<event>
 7    1  0.3795708E-015  0.9000778E+02  0.7816164E-02  0.1186339E+00
        -11   -1    0    0    0    0  0.00000000000E+00  0.00000000000E+00  0.45593999997E+02  0.45594000000E+02  0.51100000000E-03 0.  1.
         11   -1    0    0    0    0 -0.00000000000E+00 -0.00000000000E+00 -0.45593999997E+02  0.45594000000E+02  0.51100000000E-03 0. -1.
    9900012    2    1    2    0    0 -0.78010606429E+00  0.45867556901E+00  0.75760693130E+00  0.90007780948E+02  0.90000042856E+02 0.  0.
         12    1    1    2    0    0  0.78010606429E+00 -0.45867556901E+00 -0.75760693130E+00  0.11802190523E+01  0.00000000000E+00 0. -1.
         11    1    3    3    0    0 -0.51033275620E+01  0.81264312137E+01 -0.77185378825E+01  0.12314977214E+02  0.51100000000E-03 0. -1.
        -11    1    3    3    0    0  0.34310768775E+02  0.14408102955E+02  0.14563558580E+02  0.39961475491E+02  0.51100000000E-03 0.  1.
         12    1    3    3    0    0 -0.29987547277E+02 -0.22075858600E+02 -0.60874137658E+01  0.37731328243E+02  0.00000000000E+00 0. -1.
</event>
<event>
 7    1  0.6886860E-015  0.9000771E+02  0.7816164E-02  0.1186339E+00
        -11   -1    0    0    0    0  0.00000000000E+00  0.00000000000E+00  0.45593999997E+02  0.45594000000E+02  0.51100000000E-03 0. -1.
         11   -1    0    0    0    0 -0.00000000000E+00 -0.00000000000E+00 -0.45593999997E+02  0.45594000000E+02  0.51100000000E-03 0.  1.
    9900012    2    1    2    0    0  0.92562197438E+00 -0.43936875058E+00 -0.58587906306E+00  0.90007713927E+02  0.89999974950E+02 0.  0.
         12    1    1    2    0    0 -0.92562197438E+00  0.43936875058E+00  0.58587906306E+00  0.11802860734E+01  0.00000000000E+00 0. -1.
         11    1    3    3    0    0 -0.28209174298E+02  0.23566335146E+02  0.24061728473E+01  0.36836386017E+02  0.51100000000E-03 0. -1.
        -11    1    3    3    0    0  0.84066789627E+00  0.93270139185E+01 -0.49089366913E+00  0.93776803104E+01  0.51100000000E-03 0.  1.
        -12    1    3    3    0    0  0.28294128376E+02 -0.33332717815E+02 -0.25011582413E+01  0.43793647599E+02  0.00000000000E+00 0.  1.
</event>
<event>
 7    1  0.3795708E-015  0.9000765E+02  0.7816164E-02  0.1186339E+00
        -11   -1    0    0    0    0  0.00000000000E+00  0.00000000000E+00  0.45593999997E+02  0.45594000000E+02  0.51100000000E-03 0.  1.
         11   -1    0    0    0    0 -0.00000000000E+00 -0.00000000000E+00 -0.45593999997E+02  0.45594000000E+02  0.51100000000E-03 0. -1.
    9900012    2    1    2    0    0 -0.79271133586E+00 -0.48419111392E+00 -0.72827848657E+00  0.90007651810E+02  0.89999912013E+02 0.  0.
         12    1    1    2    0    0  0.79271133586E+00  0.48419111392E+00  0.72827848657E+00  0.11803481905E+01  0.00000000000E+00 0. -1.
         11    1    3    3    0    0 -0.73086473297E+01 -0.58632210087E+01 -0.72378091280E+01  0.11839745251E+02  0.51100000000E-03 0. -1.
        -11    1    3    3    0    0  0.38346133483E+02  0.12684011773E+02  0.17065207350E+02  0.43846680717E+02  0.51100000000E-03 0.  1.
         12    1    3    3    0    0 -0.31830197489E+02 -0.73049818784E+01 -0.10555676708E+02  0.34321225841E+02  0.00000000000E+00 0. -1.
</event>
<event>
 7    1  0.3795708E-015  0.9000785E+02  0.7816164E-02  0.1186339E+00
        -11   -1    0    0    0    0  0.00000000000E+00  0.00000000000E+00  0.45593999997E+02  0.45594000000E+02  0.51100000000E-03 0. -1.
         11   -1    0    0    0    0 -0.00000000000E+00 -0.00000000000E+00 -0.45593999997E+02  0.45594000000E+02  0.51100000000E-03 0.  1.
    9900012    2    1    2    0    0  0.14196224909E-01 -0.82123358701E+00 -0.84742518435E+00  0.90007849340E+02  0.90000112151E+02 0.  0.
         12    1    1    2    0    0 -0.14196224909E-01  0.82123358701E+00  0.84742518435E+00  0.11801506600E+01  0.00000000000E+00 0. -1.
         11    1    3    3    0    0 -0.47079516949E+01  0.60872379087E+01  0.61996901853E+01  0.98820763594E+01  0.51100000000E-03 0. -1.
        -11    1    3    3    0    0 -0.66653085512E+01 -0.10416219710E+02 -0.41692930781E+02  0.43488210454E+02  0.51100000000E-03 0.  1.
         12    1    3    3    0    0  0.11387456471E+02  0.35077482139E+01  0.34645815411E+02  0.36637562527E+02  0.00000000000E+00 0. -1.
</event>
<event>
 7    1  0.3795708E-015  0.9000765E+02  0.7816164E-02  0.1186339E+00
        -11   -1    0    0    0    0  0.00000000000E+00  0.00000000000E+00  0.45593999997E+02  0.45594000000E+02  0.51100000000E-03 0.  1.
         11   -1    0    0    0    0 -0.00000000000E+00 -0.00000000000E+00 -0.45593999997E+02  0.45594000000E+02  0.51100000000E-03 0. -1.
    9900012    2    1    2    0    0  0.10479382628E+00  0.84008182300E+00  0.82250397605E+00  0.90007647508E+02  0.89999907655E+02 0.  0.
         12    1    1    2    0    0 -0.10479382628E+00 -0.84008182300E+00 -0.82250397605E+00  0.11803524923E+01  0.00000000000E+00 0. -1.
         11    1    3    3    0    0 -0.20608627669E+01 -0.69945310903E+01  0.24021217662E+00  0.72957743022E+01  0.51100000000E-03 0. -1.
        -11    1    3    3    0    0  0.38226155765E+02 -0.10993483886E+02  0.98771319437E+01  0.40983574859E+02  0.51100000000E-03 0.  1.
         12    1    3    3    0    0 -0.36060499172E+02  0.18828096799E+02 -0.92948401443E+01  0.41728298347E+02  0.00000000000E+00 0. -1.
</event>
<event>
 7    1  0.3795708E-015  0.9000775E+02  0.7816164E-02  0.1186339E+00
        -11   -1    0    0    0    0  0.00000000000E+00  0.00000000000E+00  0.45593999997E+02  0.45594000000E+02  0.51100000000E-03 0.  1.
         11   -1    0    0    0    0 -0.00000000000E+00 -0.00000000000E+00 -0.45593999997E+02  0.45594000000E+02  0.51100000000E-03 0. -1.
    9900012    2    1    2    0    0  0.91207457869E+00 -0.69926299547E+00 -0.26860616729E+00  0.90007746617E+02  0.90000008073E+02 0.  0.
         12    1    1    2    0    0 -0.91207457869E+00  0.69926299547E+00  0.26860616729E+00  0.11802533826E+01  0.00000000000E+00 0. -1.
         11    1    3    3    0    0  0.49987959561E+01  0.85282153975E+01 -0.79232009423E+00  0.99169647710E+01  0.51100000000E-03 0. -1.
        -11    1    3    3    0    0  0.34080992400E+02  0.10194520148E+02  0.83903910781E+01  0.36549157948E+02  0.51100000000E-03 0.  1.
         12    1    3    3    0    0 -0.38167713777E+02 -0.19421998541E+02 -0.78666771511E+01  0.43541623898E+02  0.00000000000E+00 0. -1.
</event>
<event>
 7    1  0.3795708E-015  0.9000772E+02  0.7816164E-02  0.1186339E+00
        -11   -1    0    0    0    0  0.00000000000E+00  0.00000000000E+00  0.45593999997E+02  0.45594000000E+02  0.51100000000E-03 0. -1.
         11   -1    0    0    0    0 -0.00000000000E+00 -0.00000000000E+00 -0.45593999997E+02  0.45594000000E+02  0.51100000000E-03 0.  1.
    9900012    2    1    2    0    0  0.90559812691E+00 -0.65286653891E+00  0.38303881357E+00  0.90007719771E+02  0.89999980872E+02 0.  0.
         12    1    1    2    0    0 -0.90559812691E+00  0.65286653891E+00 -0.38303881357E+00  0.11802802285E+01  0.00000000000E+00 0. -1.
         11    1    3    3    0    0  0.12171361191E+02 -0.30407760471E+02  0.88799722544E+01  0.33935642585E+02  0.51100000000E-03 0. -1.
        -11    1    3    3    0    0 -0.14051159188E+01 -0.11757574073E+02 -0.61425865827E+01  0.13339650259E+02  0.51100000000E-03 0.  1.
        -12    1    3    3    0    0 -0.98606471451E+01  0.41512468006E+02 -0.23543468582E+01  0.42732426928E+02  0.00000000000E+00 0.  1.
</event>
<event>
 7    1  0.3795708E-015  0.9000778E+02  0.7816164E-02  0.1186339E+00
        -11   -1    0    0    0    0  0.00000000000E+00  0.00000000000E+00  0.45593999997E+02  0.45594000000E+02  0.51100000000E-03 0. -1.
         11   -1    0    0    0    0 -0.00000000000E+00 -0.00000000000E+00 -0.45593999997E+02  0.45594000000E+02  0.51100000000E-03 0.  1.
    9900012    2    1    2    0    0  0.68636313987E+00  0.40449053774E+00 -0.87075460448E+00  0.90007779454E+02  0.90000041343E+02 0.  0.
         12    1    1    2    0    0 -0.68636313987E+00 -0.40449053774E+00  0.87075460448E+00  0.11802205455E+01  0.00000000000E+00 0. -1.
         11    1    3    3    0    0  0.32293167551E+01  0.10004317480E+02  0.13656971292E+02  0.17234492162E+02  0.51100000000E-03 0. -1.
        -11    1    3    3    0    0 -0.22224594857E+02  0.45791029628E+01 -0.34539733269E+02  0.41326673893E+02  0.51100000000E-03 0.  1.
         12    1    3    3    0    0  0.19681641242E+02 -0.14178929905E+02  0.20012007372E+02  0.31446613399E+02  0.00000000000E+00 0. -1.
</event>
<event>
 7    1  0.3795708E-015  0.9000762E+02  0.7816164E-02  0.1186339E+00
        -11   -1    0    0    0    0  0.00000000000E+00  0.00000000000E+00  0.45593999997E+02  0.45594000000E+02  0.51100000000E-03 0. -1.
         11   -1    0    0    0    0 -0.00000000000E+00 -0.00000000000E+00 -0.45593999997E+02  0.45594000000E+02  0.51100000000E-03 0.  1.
    9900012    2    1    2    0    0 -0.88585964836E+00  0.16770344472E+00 -0.76185247490E+00  0.90007622537E+02  0.89999882354E+02 0.  0.
         12    1    1    2    0    0  0.88585964836E+00 -0.16770344472E+00  0.76185247490E+00  0.11803774631E+01  0.00000000000E+00 0. -1.
         11    1    3    3    0    0  0.33512225303E+02 -0.69333512565E+01 -0.13515247225E+02  0.36794055393E+02  0.51100000000E-03 0. -1.
        -11    1    3    3    0    0  0.59878169861E+01 -0.64459932110E+01  0.42705147366E+01  0.97796767386E+01  0.51100000000E-03 0.  1.
        -12    1    3    3    0    0 -0.40385901938E+02  0.13547047912E+02  0.84828800136E+01  0.43433890406E+02  0.00000000000E+00 0.  1.
</event>
<event>
 7    1  0.3795708E-015  0.9000773E+02  0.7816164E-02  0.1186339E+00
        -11   -1    0    0    0    0  0.00000000000E+00  0.00000000000E+00  0.45593999997E+02  0.45594000000E+02  0.51100000000E-03 0. -1.
         11   -1    0    0    0    0 -0.00000000000E+00 -0.00000000000E+00 -0.45593999997E+02  0.45594000000E+02  0.51100000000E-03 0.  1.
    9900012    2    1    2    0    0  0.76589567505E-01 -0.11678373363E+01 -0.15276700903E+00  0.90007725555E+02  0.89999986733E+02 0.  0.
         12    1    1    2    0    0 -0.76589567505E-01  0.11678373363E+01  0.15276700903E+00  0.11802744447E+01  0.00000000000E+00 0. -1.
         11    1    3    3    0    0 -0.56920030786E+01  0.34062446542E+01  0.11193071683E+02  0.13011005175E+02  0.51100000000E-03 0. -1.
        -11    1    3    3    0    0  0.14193079801E+00  0.76726045617E+01 -0.42429044010E+02  0.43117430130E+02  0.51100000000E-03 0.  1.
         12    1    3    3    0    0  0.56266618481E+01 -0.12246686552E+02  0.31083205318E+02  0.33879290251E+02  0.00000000000E+00 0. -1.
</event>
<event>
 7    1  0.3795708E-015  0.9000709E+02  0.7816164E-02  0.1186340E+00
        -11   -1    0    0    0    0  0.00000000000E+00  0.00000000000E+00  0.45593999997E+02  0.45594000000E+02  0.51100000000E-03 0.  1.
         11   -1    0    0    0    0 -0.00000000000E+00 -0.00000000000E+00 -0.45593999997E+02  0.45594000000E+02  0.51100000000E-03 0. -1.
    9900012    2    1    2    0    0  0.18636263433E+00  0.83820105320E+00 -0.81070445474E+00  0.90007087747E+02  0.89999340503E+02 0.  0.
         12    1    1    2    0    0 -0.18636263433E+00 -0.83820105320E+00  0.81070445474E+00  0.11809122533E+01  0.00000000000E+00 0. -1.
         11    1    3    3    0    0 -0.18101624557E+01  0.37957673592E+02 -0.51659121917E+01  0.38350336657E+02  0.51100000000E-03 0. -1.
        -11    1    3    3    0    0 -0.54826711675E+01  0.15077947682E+01 -0.85337911556E+01  0.10254692582E+02  0.51100000000E-03 0.  1.
        -12    1    3    3    0    0  0.74791962575E+01 -0.38627267307E+02  0.12888998893E+02  0.41402058508E+02  0.00000000000E+00 0.  1.
</event>
<event>
 7    1  0.3795708E-015  0.9000773E+02  0.7816164E-02  0.1186339E+00
        -11   -1    0    0    0    0  0.00000000000E+00  0.00000000000E+00  0.45593999997E+02  0.45594000000E+02  0.51100000000E-03 0. -1.
         11   -1    0    0    0    0 -0.00000000000E+00 -0.00000000000E+00 -0.45593999997E+02  0.45594000000E+02  0.51100000000E-03 0.  1.
    9900012    2    1    2    0    0  0.79966759827E+00 -0.84652510075E+00 -0.19226981978E+00  0.90007728549E+02  0.89999989766E+02 0.  0.
         12    1    1    2    0    0 -0.79966759827E+00  0.84652510075E+00  0.19226981978E+00  0.11802714508E+01  0.00000000000E+00 0. -1.
         11    1    3    3    0    0  0.91647821903E+01 -0.38721132975E+01 -0.62505833698E+00  0.99688109707E+01  0.51100000000E-03 0. -1.
        -11    1    3    3    0    0  0.43172155316E+01 -0.16298046916E+02 -0.34356907385E+02  0.38270899762E+02  0.51100000000E-03 0.  1.
         12    1    3    3    0    0 -0.12682330124E+02  0.19323635113E+02  0.34789695903E+02  0.41768017817E+02  0.00000000000E+00 0. -1.
</event>
<event>
 7    1  0.3795708E-015  0.9000773E+02  0.7816164E-02  0.1186339E+00
        -11   -1    0    0    0    0  0.00000000000E+00  0.00000000000E+00  0.45593999997E+02  0.45594000000E+02  0.51100000000E-03 0. -1.
         11   -1    0    0    0    0 -0.00000000000E+00 -0.00000000000E+00 -0.45593999997E+02  0.45594000000E+02  0.51100000000E-03 0.  1.
    9900012    2    1    2    0    0 -0.40132139521E+00 -0.10255965217E+01  0.42441889267E+00  0.90007729487E+02  0.89999990716E+02 0.  0.
         12    1    1    2    0    0  0.40132139521E+00  0.10255965217E+01 -0.42441889267E+00  0.11802705131E+01  0.00000000000E+00 0. -1.
         11    1    3    3    0    0 -0.10017898156E+01 -0.64243865305E+01  0.75802845107E+01  0.99868432777E+01  0.51100000000E-03 0. -1.
        -11    1    3    3    0    0 -0.19823852091E+02  0.28850472635E+02  0.18601704911E+02  0.39640362118E+02  0.51100000000E-03 0.  1.
         12    1    3    3    0    0  0.20424320511E+02 -0.23451682626E+02 -0.25757570529E+02  0.40380524091E+02  0.00000000000E+00 0. -1.
</event>
<event>
 7    1  0.3795708E-015  0.9000775E+02  0.7816164E-02  0.1186339E+00
        -11   -1    0    0    0    0  0.00000000000E+00  0.00000000000E+00  0.45593999997E+02  0.45594000000E+02  0.51100000000E-03 0. -1.
         11   -1    0    0    0    0 -0.00000000000E+00 -0.00000000000E+00 -0.45593999997E+02  0.45594000000E+02  0.51100000000E-03 0.  1.
    9900012    2    1    2    0    0  0.84783662250E-01  0.11771948545E+01 -0.17775219566E-02  0.90007754621E+02  0.90000016182E+02 0.  0.
         12    1    1    2    0    0 -0.84783662250E-01 -0.11771948545E+01  0.17775219566E-02  0.11802453789E+01  0.00000000000E+00 0. -1.
         11    1    3    3    0    0  0.37304724364E+02  0.13825509915E+01  0.80644440316E+01  0.38191480266E+02  0.51100000000E-03 0. -1.
        -11    1    3    3    0    0  0.27211976274E+01  0.95063610848E+01  0.19198947451E+00  0.98900292124E+01  0.51100000000E-03 0.  1.
        -12    1    3    3    0    0 -0.39941138329E+02 -0.97117172218E+01 -0.82582110280E+01  0.41926245143E+02  0.00000000000E+00 0.  1.
</event>
<event>
 7    1  0.3795708E-015  0.9000768E+02  0.7816164E-02  0.1186339E+00
        -11   -1    0    0    0    0  0.00000000000E+00  0.00000000000E+00  0.45593999997E+02  0.45594000000E+02  0.51100000000E-03 0. -1.
         11   -1    0    0    0    0 -0.00000000000E+00 -0.00000000000E+00 -0.45593999997E+02  0.45594000000E+02  0.51100000000E-03 0.  1.
    9900012    2    1    2    0    0 -0.25388485507E+00 -0.57683215412E+00 -0.99797833596E+00  0.90007680716E+02  0.89999941301E+02 0.  0.
         12    1    1    2    0    0  0.25388485507E+00  0.57683215412E+00  0.99797833596E+00  0.11803192842E+01  0.00000000000E+00 0. -1.
         11    1    3    3    0    0 -0.82891950388E+01 -0.54546058411E+01  0.42148646216E+01  0.10780935178E+02  0.51100000000E-03 0. -1.
        -11    1    3    3    0    0  0.10187499604E+02  0.37161062624E+02  0.14693320981E+02  0.41238615462E+02  0.51100000000E-03 0.  1.
         12    1    3    3    0    0 -0.21521894207E+01 -0.32283288937E+02 -0.19906163938E+02  0.37988130076E+02  0.00000000000E+00 0. -1.
</event>
<event>
 7    1  0.3795708E-015  0.9000765E+02  0.7816164E-02  0.1186339E+00
        -11   -1    0    0    0    0  0.00000000000E+00  0.00000000000E+00  0.45593999997E+02  0.45594000000E+02  0.51100000000E-03 0. -1.
         11   -1    0    0    0    0 -0.00000000000E+00 -0.00000000000E+00 -0.45593999997E+02  0.45594000000E+02  0.51100000000E-03 0.  1.
    9900012    2    1    2    0    0  0.61428919336E+00 -0.10056585999E+01  0.67360089972E-01  0.90007645047E+02  0.89999905162E+02 0.  0.
         12    1    1    2    0    0 -0.61428919336E+00  0.10056585999E+01 -0.67360089972E-01  0.11803549527E+01  0.00000000000E+00 0. -1.
         11    1    3    3    0    0  0.16964053431E+02 -0.68886475439E+01  0.20630328882E+02  0.27583383473E+02  0.51100000000E-03 0. -1.
        -11    1    3    3    0    0 -0.85606311781E+01  0.60539913564E+01  0.19215517360E+02  0.21889982302E+02  0.51100000000E-03 0.  1.
        -12    1    3    3    0    0 -0.77891330595E+01 -0.17100241240E+00 -0.39778486151E+02  0.40534279273E+02  0.00000000000E+00 0.  1.
</event>
<event>
 7    1  0.3795708E-015  0.9000775E+02  0.7816164E-02  0.1186339E+00
        -11   -1    0    0    0    0  0.00000000000E+00  0.00000000000E+00  0.45593999997E+02  0.45594000000E+02  0.51100000000E-03 0.  1.
         11   -1    0    0    0    0 -0.00000000000E+00 -0.00000000000E+00 -0.45593999997E+02  0.45594000000E+02  0.51100000000E-03 0. -1.
    9900012    2    1    2    0    0  0.83795314409E-01 -0.85464199251E+00  0.80966777662E+00  0.90007747273E+02  0.90000008737E+02 0.  0.
         12    1    1    2    0    0 -0.83795314409E-01  0.85464199251E+00 -0.80966777662E+00  0.11802527266E+01  0.00000000000E+00 0. -1.
         11    1    3    3    0    0  0.28025118834E+02 -0.10354885875E+02 -0.26260961027E+02  0.39777745305E+02  0.51100000000E-03 0. -1.
        -11    1    3    3    0    0  0.62803473978E+01  0.37138615074E+01  0.71324963808E+01  0.10203334534E+02  0.51100000000E-03 0.  1.
        -12    1    3    3    0    0 -0.34221670918E+02  0.57863823752E+01  0.19938132423E+02  0.40026667435E+02  0.00000000000E+00 0.  1.
</event>
<event>
 7    1  0.4619543E-015  0.9000769E+02  0.7816164E-02  0.1186339E+00
        -11   -1    0    0    0    0  0.00000000000E+00  0.00000000000E+00  0.45593999997E+02  0.45594000000E+02  0.51100000000E-03 0.  1.
         11   -1    0    0    0    0 -0.00000000000E+00 -0.00000000000E+00 -0.45593999997E+02  0.45594000000E+02  0.51100000000E-03 0. -1.
    9900012    2    1    2    0    0 -0.10047522966E+01  0.23141023840E+00  0.57450416174E+00  0.90007689487E+02  0.89999950188E+02 0.  0.
         12    1    1    2    0    0  0.10047522966E+01 -0.23141023840E+00 -0.57450416174E+00  0.11803105133E+01  0.00000000000E+00 0. -1.
         11    1    3    3    0    0  0.19968636993E+02  0.28547174640E+01 -0.34352518060E+02  0.39837060289E+02  0.51100000000E-03 0. -1.
        -11    1    3    3    0    0 -0.72461993336E+01  0.57452391449E+01 -0.23784271209E+01  0.95484079011E+01  0.51100000000E-03 0.  1.
        -12    1    3    3    0    0 -0.13727189956E+02 -0.83685463705E+01  0.37305449342E+02  0.40622221297E+02  0.00000000000E+00 0.  1.
</event>
<event>
 7    1  0.3795708E-015  0.9000771E+02  0.7816164E-02  0.1186339E+00
        -11   -1    0    0    0    0  0.00000000000E+00  0.00000000000E+00  0.45593999997E+02  0.45594000000E+02  0.51100000000E-03 0.  1.
         11   -1    0    0    0    0 -0.00000000000E+00 -0.00000000000E+00 -0.45593999997E+02  0.45594000000E+02  0.51100000000E-03 0. -1.
    9900012    2    1    2    0    0  0.10925638881E+00 -0.87893427686E+00  0.78014047125E+00  0.90007711232E+02  0.89999972220E+02 0.  0.
         12    1    1    2    0    0 -0.10925638881E+00  0.87893427686E+00 -0.78014047125E+00  0.11802887682E+01  0.00000000000E+00 0. -1.
         11    1    3    3    0    0 -0.95945443269E+01 -0.11008162396E+02 -0.11560422655E+02  0.18624668921E+02  0.51100000000E-03 0. -1.
        -11    1    3    3    0    0 -0.24862759286E+02 -0.13430063194E+02  0.77411306009E+01  0.29299291800E+02  0.51100000000E-03 0.  1.
        -12    1    3    3    0    0  0.34566560002E+02  0.23559291313E+02  0.45994325255E+01  0.42083750511E+02  0.00000000000E+00 0.  1.
</event>
<event>
 7    1  0.3795708E-015  0.9000774E+02  0.7816164E-02  0.1186339E+00
        -11   -1    0    0    0    0  0.00000000000E+00  0.00000000000E+00  0.45593999997E+02  0.45594000000E+02  0.51100000000E-03 0.  1.
         11   -1    0    0    0    0 -0.00000000000E+00 -0.00000000000E+00 -0.45593999997E+02  0.45594000000E+02  0.51100000000E-03 0. -1.
    9900012    2    1    2    0    0  0.43741957167E+00  0.32654392634E+00  0.10464446800E+01  0.90007740162E+02  0.90000001532E+02 0.  0.
         12    1    1    2    0    0 -0.43741957167E+00 -0.32654392634E+00 -0.10464446800E+01  0.11802598383E+01  0.00000000000E+00 0. -1.
         11    1    3    3    0    0 -0.11245647783E+02  0.18989649467E+01  0.68948092013E+01  0.13327004769E+02  0.51100000000E-03 0. -1.
        -11    1    3    3    0    0  0.97381895832E+00 -0.32959360015E+02  0.16318638720E+02  0.36790837255E+02  0.51100000000E-03 0.  1.
         12    1    3    3    0    0  0.10709248397E+02  0.31386938995E+02 -0.22167003242E+02  0.39889898137E+02  0.00000000000E+00 0. -1.
</event>
<event>
 7    1  0.3795708E-015  0.9000775E+02  0.7816164E-02  0.1186339E+00
        -11   -1    0    0    0    0  0.00000000000E+00  0.00000000000E+00  0.45593999997E+02  0.45594000000E+02  0.51100000000E-03 0. -1.
         11   -1    0    0    0    0 -0.00000000000E+00 -0.00000000000E+00 -0.45593999997E+02  0.45594000000E+02  0.51100000000E-03 0.  1.
    9900012    2    1    2    0    0 -0.71313050008E-01 -0.11777092436E+01 -0.30104567481E-01  0.90007749646E+02  0.90000011141E+02 0.  0.
         12    1    1    2    0    0  0.71313050008E-01  0.11777092436E+01  0.30104567481E-01  0.11802503542E+01  0.00000000000E+00 0. -1.
         11    1    3    3    0    0 -0.21367700739E+02  0.30135228455E+02  0.29220080175E+01  0.37057371197E+02  0.51100000000E-03 0. -1.
        -11    1    3    3    0    0 -0.79543033633E+01  0.37293657665E+00 -0.56174473100E+01  0.97450365944E+01  0.51100000000E-03 0.  1.
        -12    1    3    3    0    0  0.29250691052E+02 -0.31685874275E+02  0.26653347250E+01  0.43205341855E+02  0.00000000000E+00 0.  1.
</event>
<event>
 7    1  0.4335842E-015  0.9000807E+02  0.7816164E-02  0.1186338E+00
        -11   -1    0    0    0    0  0.00000000000E+00  0.00000000000E+00  0.45593999997E+02  0.45594000000E+02  0.51100000000E-03 0.  1.
         11   -1    0    0    0    0 -0.00000000000E+00 -0.00000000000E+00 -0.45593999997E+02  0.45594000000E+02  0.51100000000E-03 0. -1.
    9900012    2    1    2    0    0 -0.95513000900E+00  0.33871537679E+00  0.60435098804E+00  0.90008067139E+02  0.90000332824E+02 0.  0.
         12    1    1    2    0    0  0.95513000900E+00 -0.33871537679E+00 -0.60435098804E+00  0.11799328614E+01  0.00000000000E+00 0. -1.
         11    1    3    3    0    0 -0.38503620966E+02  0.42505745831E+01  0.21379631928E+01  0.38796483071E+02  0.51100000000E-03 0. -1.
        -11    1    3    3    0    0 -0.32795416465E+01 -0.92628131710E+01 -0.20190477268E+01  0.10031533045E+02  0.51100000000E-03 0.  1.
        -12    1    3    3    0    0  0.40828032603E+02  0.53509539647E+01  0.48543552209E+00  0.41180051023E+02  0.00000000000E+00 0.  1.
</event>
<event>
 7    1  0.3795708E-015  0.9000777E+02  0.7816164E-02  0.1186339E+00
        -11   -1    0    0    0    0  0.00000000000E+00  0.00000000000E+00  0.45593999997E+02  0.45594000000E+02  0.51100000000E-03 0. -1.
         11   -1    0    0    0    0 -0.00000000000E+00 -0.00000000000E+00 -0.45593999997E+02  0.45594000000E+02  0.51100000000E-03 0.  1.
    9900012    2    1    2    0    0  0.10491228798E+01 -0.66089629955E-01 -0.53658819892E+00  0.90007765468E+02  0.90000027172E+02 0.  0.
         12    1    1    2    0    0 -0.10491228798E+01  0.66089629955E-01  0.53658819892E+00  0.11802345324E+01  0.00000000000E+00 0. -1.
         11    1    3    3    0    0 -0.32406931806E+01 -0.70050769164E+01  0.35844167871E+02  0.36665754670E+02  0.51100000000E-03 0. -1.
        -11    1    3    3    0    0 -0.10561982716E+01  0.22055199462E+01  0.80129219571E+01  0.83777557600E+01  0.51100000000E-03 0.  1.
        -12    1    3    3    0    0  0.53460143321E+01  0.47334673402E+01 -0.44393678027E+02  0.44964255038E+02  0.00000000000E+00 0.  1.
</event>
<event>
 7    1  0.3795708E-015  0.9000774E+02  0.7816164E-02  0.1186339E+00
        -11   -1    0    0    0    0  0.00000000000E+00  0.00000000000E+00  0.45593999997E+02  0.45594000000E+02  0.51100000000E-03 0. -1.
         11   -1    0    0    0    0 -0.00000000000E+00 -0.00000000000E+00 -0.45593999997E+02  0.45594000000E+02  0.51100000000E-03 0.  1.
    9900012    2    1    2    0    0 -0.25880057836E-01 -0.11278179744E+01 -0.34695544760E+00  0.90007736791E+02  0.89999998116E+02 0.  0.
         12    1    1    2    0    0  0.25880057836E-01  0.11278179744E+01  0.34695544760E+00  0.11802632094E+01  0.00000000000E+00 0. -1.
         11    1    3    3    0    0  0.10607421784E+01 -0.31818195113E+00  0.88686397629E+01  0.89375156072E+01  0.51100000000E-03 0. -1.
        -11    1    3    3    0    0  0.36724941257E+02 -0.15356293501E+02 -0.15379592215E+01  0.39835943308E+02  0.51100000000E-03 0.  1.
         12    1    3    3    0    0 -0.37811563493E+02  0.14546657478E+02 -0.76776359890E+01  0.41234277876E+02  0.00000000000E+00 0. -1.
</event>
<event>
 7    1  0.3795708E-015  0.9000775E+02  0.7816164E-02  0.1186339E+00
        -11   -1    0    0    0    0  0.00000000000E+00  0.00000000000E+00  0.45593999997E+02  0.45594000000E+02  0.51100000000E-03 0.  1.
         11   -1    0    0    0    0 -0.00000000000E+00 -0.00000000000E+00 -0.45593999997E+02  0.45594000000E+02  0.51100000000E-03 0. -1.
    9900012    2    1    2    0    0  0.70681034529E+00 -0.37810566050E+00  0.86627651770E+00  0.90007754365E+02  0.90000015922E+02 0.  0.
         12    1    1    2    0    0 -0.70681034529E+00  0.37810566050E+00 -0.86627651770E+00  0.11802456354E+01  0.00000000000E+00 0. -1.
         11    1    3    3    0    0  0.17582174291E+02  0.30097622790E+02 -0.20940993005E+02  0.40663557871E+02  0.51100000000E-03 0. -1.
        -11    1    3    3    0    0  0.20403720996E+01 -0.65710703112E+01 -0.51947906982E+01  0.86213649731E+01  0.51100000000E-03 0.  1.
        -12    1    3    3    0    0 -0.18915736046E+02 -0.23904658139E+02  0.27002060221E+02  0.40722831521E+02  0.00000000000E+00 0.  1.
</event>
<event>
 7    1  0.3795708E-015  0.9000773E+02  0.7816164E-02  0.1186339E+00
        -11   -1    0    0    0    0  0.00000000000E+00  0.00000000000E+00  0.45593999997E+02  0.45594000000E+02  0.51100000000E-03 0.  1.
         11   -1    0    0    0    0 -0.00000000000E+00 -0.00000000000E+00 -0.45593999997E+02  0.45594000000E+02  0.51100000000E-03 0. -1.
    9900012    2    1    2    0    0 -0.10079394533E+01 -0.55278453800E+00 -0.26746182666E+00  0.90007725237E+02  0.89999986410E+02 0.  0.
         12    1    1    2    0    0  0.10079394533E+01  0.55278453800E+00  0.26746182666E+00  0.11802747628E+01  0.00000000000E+00 0. -1.
         11    1    3    3    0    0 -0.12046839281E+01  0.12021294458E+01 -0.10389628080E+02  0.10528093393E+02  0.51100000000E-03 0. -1.
        -11    1    3    3    0    0 -0.33103183184E+02  0.29211453846E+01 -0.16015207207E+02  0.36889574264E+02  0.51100000000E-03 0.  1.
         12    1    3    3    0    0  0.33299927659E+02 -0.46760593684E+01  0.26137373460E+02  0.42590057580E+02  0.00000000000E+00 0. -1.
</event>
<event>
 7    1  0.3795708E-015  0.9000735E+02  0.7816164E-02  0.1186340E+00
        -11   -1    0    0    0    0  0.00000000000E+00  0.00000000000E+00  0.45593999997E+02  0.45594000000E+02  0.51100000000E-03 0.  1.
         11   -1    0    0    0    0 -0.00000000000E+00 -0.00000000000E+00 -0.45593999997E+02  0.45594000000E+02  0.51100000000E-03 0. -1.
    9900012    2    1    2    0    0 -0.10949731869E+01 -0.37501426361E+00  0.23311845210E+00  0.90007345016E+02  0.89999601170E+02 0.  0.
         12    1    1    2    0    0  0.10949731869E+01  0.37501426361E+00 -0.23311845210E+00  0.11806549838E+01  0.00000000000E+00 0. -1.
         11    1    3    3    0    0 -0.14468781007E+01 -0.13466648172E+01 -0.96885497251E+01  0.98881220869E+01  0.51100000000E-03 0. -1.
        -11    1    3    3    0    0  0.30871757617E+02 -0.11885477436E+02  0.27143640594E+02  0.42791438597E+02  0.51100000000E-03 0.  1.
         12    1    3    3    0    0 -0.30519852704E+02  0.12857127990E+02 -0.17221972417E+02  0.37327784332E+02  0.00000000000E+00 0. -1.
</event>
<event>
 7    1  0.3795708E-015  0.9000769E+02  0.7816164E-02  0.1186339E+00
        -11   -1    0    0    0    0  0.00000000000E+00  0.00000000000E+00  0.45593999997E+02  0.45594000000E+02  0.51100000000E-03 0.  1.
         11   -1    0    0    0    0 -0.00000000000E+00 -0.00000000000E+00 -0.45593999997E+02  0.45594000000E+02  0.51100000000E-03 0. -1.
    9900012    2    1    2    0    0  0.58482087963E+00 -0.14971548643E+00  0.10142538785E+01  0.90007686009E+02  0.89999946664E+02 0.  0.
         12    1    1    2    0    0 -0.58482087963E+00  0.14971548643E+00 -0.10142538785E+01  0.11803139914E+01  0.00000000000E+00 0. -1.
         11    1    3    3    0    0  0.61151484072E+01 -0.11164244639E+02 -0.33037649544E+02  0.35405108192E+02  0.51100000000E-03 0. -1.
        -11    1    3    3    0    0 -0.46103564769E+00 -0.42449563185E+01 -0.82819440313E+01  0.93178755740E+01  0.51100000000E-03 0.  1.
        -12    1    3    3    0    0 -0.50692918798E+01  0.15259485471E+02  0.42333847454E+02  0.45284702243E+02  0.00000000000E+00 0.  1.
</event>
<event>
 7    1  0.3795708E-015  0.9000743E+02  0.7816164E-02  0.1186340E+00
        -11   -1    0    0    0    0  0.00000000000E+00  0.00000000000E+00  0.45593999997E+02  0.45594000000E+02  0.51100000000E-03 0. -1.
         11   -1    0    0    0    0 -0.00000000000E+00 -0.00000000000E+00 -0.45593999997E+02  0.45594000000E+02  0.51100000000E-03 0.  1.
    9900012    2    1    2    0    0  0.29546621776E+00  0.10679271596E+01 -0.40739535712E+00  0.90007432475E+02  0.89999689783E+02 0.  0.
         12    1    1    2    0    0 -0.29546621776E+00 -0.10679271596E+01  0.40739535712E+00  0.11805675250E+01  0.00000000000E+00 0. -1.
         11    1    3    3    0    0  0.56869615413E+00 -0.36841788360E+01 -0.23206914045E+02  0.23504413389E+02  0.51100000000E-03 0. -1.
        -11    1    3    3    0    0 -0.36310081019E+01  0.24796628154E+02 -0.10756630687E+02  0.27272001974E+02  0.51100000000E-03 0.  1.
         12    1    3    3    0    0  0.33577781656E+01 -0.20044522159E+02  0.33556149375E+02  0.39231017112E+02  0.00000000000E+00 0. -1.
</event>
<event>
 7    1  0.3795708E-015  0.9000769E+02  0.7816164E-02  0.1186339E+00
        -11   -1    0    0    0    0  0.00000000000E+00  0.00000000000E+00  0.45593999997E+02  0.45594000000E+02  0.51100000000E-03 0.  1.
         11   -1    0    0    0    0 -0.00000000000E+00 -0.00000000000E+00 -0.45593999997E+02  0.45594000000E+02  0.51100000000E-03 0. -1.
    9900012    2    1    2    0    0 -0.72184446299E+00 -0.57285391289E+00  0.73750727681E+00  0.90007687322E+02  0.89999947995E+02 0.  0.
         12    1    1    2    0    0  0.72184446299E+00  0.57285391289E+00 -0.73750727681E+00  0.11803126779E+01  0.00000000000E+00 0. -1.
         11    1    3    3    0    0 -0.16436623888E+02  0.31408064906E+02 -0.12263609072E+02  0.37510335292E+02  0.51100000000E-03 0. -1.
        -11    1    3    3    0    0 -0.15125780050E+01  0.66426202394E+01 -0.27793084891E+01  0.73577749222E+01  0.51100000000E-03 0.  1.
        -12    1    3    3    0    0  0.17227357430E+02 -0.38623539058E+02  0.15780424838E+02  0.45139577108E+02  0.00000000000E+00 0.  1.
</event>
<event>
 7    1  0.3795708E-015  0.9000786E+02  0.7816164E-02  0.1186339E+00
        -11   -1    0    0    0    0  0.00000000000E+00  0.00000000000E+00  0.45593999997E+02  0.45594000000E+02  0.51100000000E-03 0.  1.
         11   -1    0    0    0    0 -0.00000000000E+00 -0.00000000000E+00 -0.45593999997E+02  0.45594000000E+02  0.51100000000E-03 0. -1.
    9900012    2    1    2    0    0  0.10286442717E+01 -0.24037188348E+00  0.52615736783E+00  0.90007860493E+02  0.90000123451E+02 0.  0.
         12    1    1    2    0    0 -0.10286442717E+01  0.24037188348E+00 -0.52615736783E+00  0.11801395069E+01  0.00000000000E+00 0. -1.
         11    1    3    3    0    0 -0.91413854534E+01 -0.23744201912E+01  0.11456987275E-01  0.94447303177E+01  0.51100000000E-03 0. -1.
        -11    1    3    3    0    0 -0.89465385431E+01  0.12255409311E+02  0.35964945949E+02  0.39034765871E+02  0.51100000000E-03 0.  1.
         12    1    3    3    0    0  0.19116568268E+02 -0.10121361004E+02 -0.35450245568E+02  0.41528364304E+02  0.00000000000E+00 0. -1.
</event>
<event>
 7    1  0.3795708E-015  0.9000778E+02  0.7816164E-02  0.1186339E+00
        -11   -1    0    0    0    0  0.00000000000E+00  0.00000000000E+00  0.45593999997E+02  0.45594000000E+02  0.51100000000E-03 0.  1.
         11   -1    0    0    0    0 -0.00000000000E+00 -0.00000000000E+00 -0.45593999997E+02  0.45594000000E+02  0.51100000000E-03 0. -1.
    9900012    2    1    2    0    0 -0.25155571704E+00 -0.81300025664E+00  0.81772761373E+00  0.90007776230E+02  0.90000038077E+02 0.  0.
         12    1    1    2    0    0  0.25155571704E+00  0.81300025664E+00 -0.81772761373E+00  0.11802237696E+01  0.00000000000E+00 0. -1.
         11    1    3    3    0    0 -0.17401344100E+01  0.83708731588E+01  0.64039763075E+01  0.10682251542E+02  0.51100000000E-03 0. -1.
        -11    1    3    3    0    0  0.30519955444E+02 -0.46221219652E+01  0.22871098385E+02  0.38417689068E+02  0.51100000000E-03 0.  1.
         12    1    3    3    0    0 -0.29031376751E+02 -0.45617514502E+01 -0.28457347078E+02  0.40907835620E+02  0.00000000000E+00 0. -1.
</event>
<event>
 7    1  0.3795708E-015  0.9000769E+02  0.7816164E-02  0.1186339E+00
        -11   -1    0    0    0    0  0.00000000000E+00  0.00000000000E+00  0.45593999997E+02  0.45594000000E+02  0.51100000000E-03 0. -1.
         11   -1    0    0    0    0 -0.00000000000E+00 -0.00000000000E+00 -0.45593999997E+02  0.45594000000E+02  0.51100000000E-03 0.  1.
    9900012    2    1    2    0    0 -0.11303736573E+01  0.18758686500E+00 -0.28320322662E+00  0.90007687539E+02  0.89999948215E+02 0.  0.
         12    1    1    2    0    0  0.11303736573E+01 -0.18758686500E+00  0.28320322662E+00  0.11803124606E+01  0.00000000000E+00 0. -1.
         11    1    3    3    0    0  0.53630432323E+01  0.65449404236E+01 -0.27825389817E+01  0.89073565835E+01  0.51100000000E-03 0. -1.
        -11    1    3    3    0    0 -0.27974126544E+02 -0.23427477278E+02 -0.23418705598E+02  0.43357055016E+02  0.51100000000E-03 0.  1.
         12    1    3    3    0    0  0.21480709654E+02  0.17070123720E+02  0.25918041353E+02  0.37743275940E+02  0.00000000000E+00 0. -1.
</event>
<event>
 7    1  0.3795708E-015  0.9000780E+02  0.7816164E-02  0.1186339E+00
        -11   -1    0    0    0    0  0.00000000000E+00  0.00000000000E+00  0.45593999997E+02  0.45594000000E+02  0.51100000000E-03 0. -1.
         11   -1    0    0    0    0 -0.00000000000E+00 -0.00000000000E+00 -0.45593999997E+02  0.45594000000E+02  0.51100000000E-03 0.  1.
    9900012    2    1    2    0    0  0.29834101665E-01 -0.44736246045E+00 -0.10917187279E+01  0.90007799582E+02  0.90000061737E+02 0.  0.
         12    1    1    2    0    0 -0.29834101665E-01  0.44736246045E+00  0.10917187279E+01  0.11802004175E+01  0.00000000000E+00 0. -1.
         11    1    3    3    0    0 -0.22081908562E+02  0.25759030556E+02 -0.31770000970E+01  0.34076849485E+02  0.51100000000E-03 0. -1.
        -11    1    3    3    0    0 -0.58996452377E+01  0.88013497821E+01 -0.24248099392E+01  0.10869649278E+02  0.51100000000E-03 0.  1.
        -12    1    3    3    0    0  0.28011387901E+02 -0.35007742799E+02  0.45100913083E+01  0.45061300820E+02  0.00000000000E+00 0.  1.
</event>
<event>
 7    1  0.3795708E-015  0.9000782E+02  0.7816164E-02  0.1186339E+00
        -11   -1    0    0    0    0  0.00000000000E+00  0.00000000000E+00  0.45593999997E+02  0.45594000000E+02  0.51100000000E-03 0. -1.
         11   -1    0    0    0    0 -0.00000000000E+00 -0.00000000000E+00 -0.45593999997E+02  0.45594000000E+02  0.51100000000E-03 0.  1.
    9900012    2    1    2    0    0  0.11137696052E+01 -0.89130346181E-02 -0.39020607083E+00  0.90007820796E+02  0.90000083231E+02 0.  0.
         12    1    1    2    0    0 -0.11137696052E+01  0.89130346181E-02  0.39020607083E+00  0.11801792039E+01  0.00000000000E+00 0. -1.
         11    1    3    3    0    0 -0.10787197389E+02 -0.32313282526E+02  0.50639770819E+01  0.34440611482E+02  0.51100000000E-03 0. -1.
        -11    1    3    3    0    0  0.31933760047E+00 -0.10659194325E+02 -0.26126540664E+01  0.10979360715E+02  0.51100000000E-03 0.  1.
        -12    1    3    3    0    0  0.11581629394E+02  0.42963563816E+02 -0.28415290863E+01  0.44587848600E+02  0.00000000000E+00 0.  1.
</event>
<event>
 7    1  0.3795708E-015  0.9000744E+02  0.7816164E-02  0.1186340E+00
        -11   -1    0    0    0    0  0.00000000000E+00  0.00000000000E+00  0.45593999997E+02  0.45594000000E+02  0.51100000000E-03 0.  1.
         11   -1    0    0    0    0 -0.00000000000E+00 -0.00000000000E+00 -0.45593999997E+02  0.45594000000E+02  0.51100000000E-03 0. -1.
    9900012    2    1    2    0    0 -0.44956955045E+00 -0.13552899077E+00  0.10831573041E+01  0.90007444778E+02  0.89999702248E+02 0.  0.
         12    1    1    2    0    0  0.44956955045E+00  0.13552899077E+00 -0.10831573041E+01  0.11805552225E+01  0.00000000000E+00 0. -1.
         11    1    3    3    0    0  0.36559498560E+01  0.80091413355E+01 -0.10394840283E+00  0.88047214500E+01  0.51100000000E-03 0. -1.
        -11    1    3    3    0    0 -0.31467798626E+02  0.21800181740E+02 -0.91147312699E+01  0.39351602262E+02  0.51100000000E-03 0.  1.
         12    1    3    3    0    0  0.27362279219E+02 -0.29944852066E+02  0.10301836977E+02  0.41851121065E+02  0.00000000000E+00 0. -1.
</event>
<event>
 7    1  0.3795708E-015  0.9000748E+02  0.7816164E-02  0.1186340E+00
        -11   -1    0    0    0    0  0.00000000000E+00  0.00000000000E+00  0.45593999997E+02  0.45594000000E+02  0.51100000000E-03 0.  1.
         11   -1    0    0    0    0 -0.00000000000E+00 -0.00000000000E+00 -0.45593999997E+02  0.45594000000E+02  0.51100000000E-03 0. -1.
    9900012    2    1    2    0    0 -0.36870174939E+00  0.10816090708E+01 -0.29632763174E+00  0.90007479256E+02  0.89999737182E+02 0.  0.
         12    1    1    2    0    0  0.36870174939E+00 -0.10816090708E+01  0.29632763174E+00  0.11805207442E+01  0.00000000000E+00 0. -1.
         11    1    3    3    0    0  0.16848278729E+02  0.19300270844E+02 -0.69308916204E+01  0.26540576665E+02  0.51100000000E-03 0. -1.
        -11    1    3    3    0    0  0.15205584385E+02  0.11438579756E+02 -0.42424929293E-02  0.19027635732E+02  0.51100000000E-03 0.  1.
        -12    1    3    3    0    0 -0.32422564863E+02 -0.29657241529E+02  0.66388064816E+01  0.44439266858E+02  0.00000000000E+00 0.  1.
</event>
<event>
 7    1  0.3795708E-015  0.9000770E+02  0.7816164E-02  0.1186339E+00
        -11   -1    0    0    0    0  0.00000000000E+00  0.00000000000E+00  0.45593999997E+02  0.45594000000E+02  0.51100000000E-03 0.  1.
         11   -1    0    0    0    0 -0.00000000000E+00 -0.00000000000E+00 -0.45593999997E+02  0.45594000000E+02  0.51100000000E-03 0. -1.
    9900012    2    1    2    0    0  0.35013458973E+00 -0.30989872635E-01  0.11267412078E+01  0.90007703278E+02  0.89999964161E+02 0.  0.
         12    1    1    2    0    0 -0.35013458973E+00  0.30989872635E-01 -0.11267412078E+01  0.11802967222E+01  0.00000000000E+00 0. -1.
         11    1    3    3    0    0  0.19540362692E+01 -0.25433151487E+02  0.17746652452E+02  0.31074219633E+02  0.51100000000E-03 0. -1.
        -11    1    3    3    0    0  0.32774024361E+01 -0.12407444671E+02 -0.16381163280E+02  0.20809338304E+02  0.51100000000E-03 0.  1.
        -12    1    3    3    0    0 -0.48813041156E+01  0.37809606285E+02 -0.23874796385E+00  0.38124145340E+02  0.00000000000E+00 0.  1.
</event>
<event>
 7    1  0.3795708E-015  0.9000756E+02  0.7816164E-02  0.1186339E+00
        -11   -1    0    0    0    0  0.00000000000E+00  0.00000000000E+00  0.45593999997E+02  0.45594000000E+02  0.51100000000E-03 0.  1.
         11   -1    0    0    0    0 -0.00000000000E+00 -0.00000000000E+00 -0.45593999997E+02  0.45594000000E+02  0.51100000000E-03 0. -1.
    9900012    2    1    2    0    0  0.21428943828E+00  0.45619867475E-01  0.11599344575E+01  0.90007555558E+02  0.89999814491E+02 0.  0.
         12    1    1    2    0    0 -0.21428943828E+00 -0.45619867475E-01 -0.11599344575E+01  0.11804444423E+01  0.00000000000E+00 0. -1.
         11    1    3    3    0    0 -0.24265508565E+02  0.17713092255E+02  0.29530784694E+02  0.42126426243E+02  0.51100000000E-03 0. -1.
        -11    1    3    3    0    0  0.61995662270E+01  0.48575118354E+01 -0.89718063833E+00  0.79268515814E+01  0.51100000000E-03 0.  1.
        -12    1    3    3    0    0  0.18280231776E+02 -0.22524984223E+02 -0.27473669598E+02  0.39954277733E+02  0.00000000000E+00 0.  1.
</event>
<event>
 7    1  0.3795708E-015  0.9000778E+02  0.7816164E-02  0.1186339E+00
        -11   -1    0    0    0    0  0.00000000000E+00  0.00000000000E+00  0.45593999997E+02  0.45594000000E+02  0.51100000000E-03 0.  1.
         11   -1    0    0    0    0 -0.00000000000E+00 -0.00000000000E+00 -0.45593999997E+02  0.45594000000E+02  0.51100000000E-03 0. -1.
    9900012    2    1    2    0    0 -0.56857155136E+00 -0.10296602191E+01 -0.97136006247E-01  0.90007784266E+02  0.90000046218E+02 0.  0.
         12    1    1    2    0    0  0.56857155136E+00  0.10296602191E+01  0.97136006247E-01  0.11802157343E+01  0.00000000000E+00 0. -1.
         11    1    3    3    0    0  0.26303011095E+02  0.12580477645E+02  0.26406698982E+02  0.39337393938E+02  0.51100000000E-03 0. -1.
        -11    1    3    3    0    0 -0.10449368997E+02  0.75525642645E+01  0.13311388056E+00  0.12893729444E+02  0.51100000000E-03 0.  1.
        -12    1    3    3    0    0 -0.16422213649E+02 -0.21162702128E+02 -0.26636948869E+02  0.37776660884E+02  0.00000000000E+00 0.  1.
</event>
<event>
 7    1  0.3795708E-015  0.9000773E+02  0.7816164E-02  0.1186339E+00
        -11   -1    0    0    0    0  0.00000000000E+00  0.00000000000E+00  0.45593999997E+02  0.45594000000E+02  0.51100000000E-03 0. -1.
         11   -1    0    0    0    0 -0.00000000000E+00 -0.00000000000E+00 -0.45593999997E+02  0.45594000000E+02  0.51100000000E-03 0.  1.
    9900012    2    1    2    0    0 -0.73129872587E+00  0.23120177408E+00  0.89709481020E+00  0.90007732579E+02  0.89999993849E+02 0.  0.
         12    1    1    2    0    0  0.73129872587E+00 -0.23120177408E+00 -0.89709481020E+00  0.11802674211E+01  0.00000000000E+00 0. -1.
         11    1    3    3    0    0 -0.19379705053E+02  0.54021792307E+01  0.33349451003E+02  0.38947944630E+02  0.51100000000E-03 0. -1.
        -11    1    3    3    0    0  0.44277414428E+01 -0.58812359390E+01  0.63535113020E+01  0.97242447820E+01  0.51100000000E-03 0.  1.
        -12    1    3    3    0    0  0.14220664885E+02  0.71025848236E+00 -0.38805867495E+02  0.41335543167E+02  0.00000000000E+00 0.  1.
</event>
<event>
 7    1  0.3795708E-015  0.9000765E+02  0.7816164E-02  0.1186339E+00
        -11   -1    0    0    0    0  0.00000000000E+00  0.00000000000E+00  0.45593999997E+02  0.45594000000E+02  0.51100000000E-03 0.  1.
         11   -1    0    0    0    0 -0.00000000000E+00 -0.00000000000E+00 -0.45593999997E+02  0.45594000000E+02  0.51100000000E-03 0. -1.
    9900012    2    1    2    0    0  0.30367262848E-01  0.90573981975E+00  0.75626462069E+00  0.90007651336E+02  0.89999911534E+02 0.  0.
         12    1    1    2    0    0 -0.30367262848E-01 -0.90573981975E+00 -0.75626462069E+00  0.11803486638E+01  0.00000000000E+00 0. -1.
         11    1    3    3    0    0 -0.21360237235E+02 -0.24526674195E+01  0.15690029646E+02  0.26616768075E+02  0.51100000000E-03 0. -1.
        -11    1    3    3    0    0  0.16447952327E+02 -0.22590341366E+02  0.72802941162E+01  0.28876657380E+02  0.51100000000E-03 0.  1.
         12    1    3    3    0    0  0.49426521699E+01  0.25948748605E+02 -0.22214059142E+02  0.34514225881E+02  0.00000000000E+00 0. -1.
</event>
<event>
 7    1  0.3795708E-015  0.9000773E+02  0.7816164E-02  0.1186339E+00
        -11   -1    0    0    0    0  0.00000000000E+00  0.00000000000E+00  0.45593999997E+02  0.45594000000E+02  0.51100000000E-03 0. -1.
         11   -1    0    0    0    0 -0.00000000000E+00 -0.00000000000E+00 -0.45593999997E+02  0.45594000000E+02  0.51100000000E-03 0.  1.
    9900012    2    1    2    0    0  0.30283491099E+00  0.99564448796E+00  0.55678857011E+00  0.90007732894E+02  0.89999994168E+02 0.  0.
         12    1    1    2    0    0 -0.30283491099E+00 -0.99564448796E+00 -0.55678857011E+00  0.11802671060E+01  0.00000000000E+00 0. -1.
         11    1    3    3    0    0 -0.90590941866E+01 -0.10658001077E+01  0.29097276569E+01  0.95744259697E+01  0.51100000000E-03 0. -1.
        -11    1    3    3    0    0 -0.26686362928E+01  0.39741285874E+02  0.51874444846E+01  0.40167163245E+02  0.51100000000E-03 0.  1.
         12    1    3    3    0    0  0.12030565390E+02 -0.37679841279E+02 -0.75403835713E+01  0.40266143679E+02  0.00000000000E+00 0. -1.
</event>
<event>
 7    1  0.3795708E-015  0.9000650E+02  0.7816164E-02  0.1186342E+00
        -11   -1    0    0    0    0  0.00000000000E+00  0.00000000000E+00  0.45593999997E+02  0.45594000000E+02  0.51100000000E-03 0. -1.
         11   -1    0    0    0    0 -0.00000000000E+00 -0.00000000000E+00 -0.45593999997E+02  0.45594000000E+02  0.51100000000E-03 0.  1.
    9900012    2    1    2    0    0  0.87084726001E+00 -0.73902499007E+00 -0.30234050767E+00  0.90006499823E+02  0.89998744812E+02 0.  0.
         12    1    1    2    0    0 -0.87084726001E+00  0.73902499007E+00  0.30234050767E+00  0.11815001772E+01  0.00000000000E+00 0. -1.
         11    1    3    3    0    0 -0.15236315238E+02  0.28736907751E+02 -0.16006183409E+02  0.36251249312E+02  0.51100000000E-03 0. -1.
        -11    1    3    3    0    0  0.51039897815E+01  0.27709497940E+01 -0.96650319615E+01  0.11275713615E+02  0.51100000000E-03 0.  1.
        -12    1    3    3    0    0  0.11003172717E+02 -0.32246882535E+02  0.25368874863E+02  0.42479536895E+02  0.00000000000E+00 0.  1.
</event>
<event>
 7    1  0.3795708E-015  0.9000771E+02  0.7816164E-02  0.1186339E+00
        -11   -1    0    0    0    0  0.00000000000E+00  0.00000000000E+00  0.45593999997E+02  0.45594000000E+02  0.51100000000E-03 0. -1.
         11   -1    0    0    0    0 -0.00000000000E+00 -0.00000000000E+00 -0.45593999997E+02  0.45594000000E+02  0.51100000000E-03 0.  1.
    9900012    2    1    2    0    0  0.21136602998E+00  0.83222964495E-01 -0.11582224748E+01  0.90007711492E+02  0.89999972484E+02 0.  0.
         12    1    1    2    0    0 -0.21136602998E+00 -0.83222964495E-01  0.11582224748E+01  0.11802885078E+01  0.00000000000E+00 0. -1.
         11    1    3    3    0    0  0.52433258805E+01 -0.80506006586E+01 -0.33301555767E+01  0.10168312234E+02  0.51100000000E-03 0. -1.
        -11    1    3    3    0    0  0.35822301489E+02  0.22133396119E+00 -0.86279493125E+01  0.36847357874E+02  0.51100000000E-03 0.  1.
         12    1    3    3    0    0 -0.40854261340E+02  0.79124896619E+01  0.10799882414E+02  0.42992041385E+02  0.00000000000E+00 0. -1.
</event>
<event>
 7    1  0.3795708E-015  0.9000771E+02  0.7816164E-02  0.1186339E+00
        -11   -1    0    0    0    0  0.00000000000E+00  0.00000000000E+00  0.45593999997E+02  0.45594000000E+02  0.51100000000E-03 0.  1.
         11   -1    0    0    0    0 -0.00000000000E+00 -0.00000000000E+00 -0.45593999997E+02  0.45594000000E+02  0.51100000000E-03 0. -1.
    9900012    2    1    2    0    0 -0.63247012647E+00 -0.96114773028E+00 -0.26317748082E+00  0.90007709440E+02  0.89999970404E+02 0.  0.
         12    1    1    2    0    0  0.63247012647E+00  0.96114773028E+00  0.26317748082E+00  0.11802905603E+01  0.00000000000E+00 0. -1.
         11    1    3    3    0    0  0.29350873453E+02 -0.78867167912E+01 -0.25857210734E+02  0.39903250762E+02  0.51100000000E-03 0. -1.
        -11    1    3    3    0    0  0.53063593314E+01 -0.33893034263E+01  0.33347734038E+01  0.71249941042E+01  0.51100000000E-03 0.  1.
        -12    1    3    3    0    0 -0.35289702911E+02  0.10314872487E+02  0.22259259849E+02  0.42979464573E+02  0.00000000000E+00 0.  1.
</event>
<event>
 7    1  0.3795708E-015  0.9000774E+02  0.7816164E-02  0.1186339E+00
        -11   -1    0    0    0    0  0.00000000000E+00  0.00000000000E+00  0.45593999997E+02  0.45594000000E+02  0.51100000000E-03 0.  1.
         11   -1    0    0    0    0 -0.00000000000E+00 -0.00000000000E+00 -0.45593999997E+02  0.45594000000E+02  0.51100000000E-03 0. -1.
    9900012    2    1    2    0    0 -0.48696058696E+00  0.10255442216E+01  0.32269567054E+00  0.90007744070E+02  0.90000005492E+02 0.  0.
         12    1    1    2    0    0  0.48696058696E+00 -0.10255442216E+01 -0.32269567054E+00  0.11802559296E+01  0.00000000000E+00 0. -1.
         11    1    3    3    0    0 -0.67793906429E+01 -0.18529998669E+01  0.94750881176E+01  0.11797077651E+02  0.51100000000E-03 0. -1.
        -11    1    3    3    0    0  0.17281851913E+01  0.58483753085E+01  0.34087767722E+02  0.34628976686E+02  0.51100000000E-03 0.  1.
         12    1    3    3    0    0  0.45642448647E+01 -0.29698312200E+01 -0.43240160169E+02  0.43581689734E+02  0.00000000000E+00 0. -1.
</event>
<event>
 7    1  0.3795708E-015  0.9000825E+02  0.7816164E-02  0.1186338E+00
        -11   -1    0    0    0    0  0.00000000000E+00  0.00000000000E+00  0.45593999997E+02  0.45594000000E+02  0.51100000000E-03 0.  1.
         11   -1    0    0    0    0 -0.00000000000E+00 -0.00000000000E+00 -0.45593999997E+02  0.45594000000E+02  0.51100000000E-03 0. -1.
    9900012    2    1    2    0    0 -0.10328223507E+01  0.29645057377E+00 -0.48703360043E+00  0.90008251434E+02  0.90000519552E+02 0.  0.
         12    1    1    2    0    0  0.10328223507E+01 -0.29645057377E+00  0.48703360043E+00  0.11797485659E+01  0.00000000000E+00 0. -1.
         11    1    3    3    0    0  0.66289625799E+01 -0.57679740271E+01  0.62180864727E+01  0.10764630458E+02  0.51100000000E-03 0. -1.
        -11    1    3    3    0    0  0.33135391401E+01 -0.22314827400E+01  0.35051757608E+02  0.35278672998E+02  0.51100000000E-03 0.  1.
         12    1    3    3    0    0 -0.10975324071E+02  0.82959073408E+01 -0.41756877681E+02  0.43964947978E+02  0.00000000000E+00 0. -1.
</event>
<event>
 7    1  0.3795708E-015  0.9000759E+02  0.7816164E-02  0.1186339E+00
        -11   -1    0    0    0    0  0.00000000000E+00  0.00000000000E+00  0.45593999997E+02  0.45594000000E+02  0.51100000000E-03 0. -1.
         11   -1    0    0    0    0 -0.00000000000E+00 -0.00000000000E+00 -0.45593999997E+02  0.45594000000E+02  0.51100000000E-03 0.  1.
    9900012    2    1    2    0    0  0.81806484742E+00  0.40904605638E+00 -0.74620007551E+00  0.90007591883E+02  0.89999851295E+02 0.  0.
         12    1    1    2    0    0 -0.81806484742E+00 -0.40904605638E+00  0.74620007551E+00  0.11804081174E+01  0.00000000000E+00 0. -1.
         11    1    3    3    0    0  0.19791214608E+01 -0.40570147004E+01 -0.90261383961E+01  0.10091950487E+02  0.51100000000E-03 0. -1.
        -11    1    3    3    0    0 -0.13329804702E+02  0.27117382120E+02 -0.24041511731E+02  0.38613862705E+02  0.51100000000E-03 0.  1.
         12    1    3    3    0    0  0.12168748089E+02 -0.22651321363E+02  0.32321450051E+02  0.41301778690E+02  0.00000000000E+00 0. -1.
</event>
<event>
 7    1  0.3795708E-015  0.9000778E+02  0.7816164E-02  0.1186339E+00
        -11   -1    0    0    0    0  0.00000000000E+00  0.00000000000E+00  0.45593999997E+02  0.45594000000E+02  0.51100000000E-03 0.  1.
         11   -1    0    0    0    0 -0.00000000000E+00 -0.00000000000E+00 -0.45593999997E+02  0.45594000000E+02  0.51100000000E-03 0. -1.
    9900012    2    1    2    0    0 -0.98924364210E+00  0.62139767144E+00 -0.16789496561E+00  0.90007776814E+02  0.90000038668E+02 0.  0.
         12    1    1    2    0    0  0.98924364210E+00 -0.62139767144E+00  0.16789496561E+00  0.11802231861E+01  0.00000000000E+00 0. -1.
         11    1    3    3    0    0 -0.22075692127E+02  0.10676459740E+02 -0.25912518595E+02  0.35676064745E+02  0.51100000000E-03 0. -1.
        -11    1    3    3    0    0 -0.38301078767E+01  0.21915065774E+01 -0.89006871908E+01  0.99345186172E+01  0.51100000000E-03 0.  1.
        -12    1    3    3    0    0  0.24916556362E+02 -0.12246568646E+02  0.34645310820E+02  0.44397193452E+02  0.00000000000E+00 0.  1.
</event>
<event>
 7    1  0.3795708E-015  0.9000770E+02  0.7816164E-02  0.1186339E+00
        -11   -1    0    0    0    0  0.00000000000E+00  0.00000000000E+00  0.45593999997E+02  0.45594000000E+02  0.51100000000E-03 0.  1.
         11   -1    0    0    0    0 -0.00000000000E+00 -0.00000000000E+00 -0.45593999997E+02  0.45594000000E+02  0.51100000000E-03 0. -1.
    9900012    2    1    2    0    0 -0.73337917285E+00 -0.48557904134E+00  0.78707253322E+00  0.90007696993E+02  0.89999957793E+02 0.  0.
         12    1    1    2    0    0  0.73337917285E+00  0.48557904134E+00 -0.78707253322E+00  0.11803030073E+01  0.00000000000E+00 0. -1.
         11    1    3    3    0    0 -0.17988433755E+02  0.12139341235E+02 -0.33145239084E+02  0.39617599988E+02  0.51100000000E-03 0. -1.
        -11    1    3    3    0    0  0.30159806538E+01 -0.71815260102E+01 -0.45344669554E+01  0.90128711279E+01  0.51100000000E-03 0.  1.
        -12    1    3    3    0    0  0.14239073928E+02 -0.54433942659E+01  0.38466778573E+02  0.41377225877E+02  0.00000000000E+00 0.  1.
</event>
<event>
 7    1  0.3795708E-015  0.9000778E+02  0.7816164E-02  0.1186339E+00
        -11   -1    0    0    0    0  0.00000000000E+00  0.00000000000E+00  0.45593999997E+02  0.45594000000E+02  0.51100000000E-03 0. -1.
         11   -1    0    0    0    0 -0.00000000000E+00 -0.00000000000E+00 -0.45593999997E+02  0.45594000000E+02  0.51100000000E-03 0.  1.
    9900012    2    1    2    0    0  0.51256738831E+00  0.10027362352E+01 -0.35315849590E+00  0.90007777051E+02  0.90000038909E+02 0.  0.
         12    1    1    2    0    0 -0.51256738831E+00 -0.10027362352E+01  0.35315849590E+00  0.11802229485E+01  0.00000000000E+00 0. -1.
         11    1    3    3    0    0 -0.81651053436E+01  0.43486212384E+01 -0.12842451908E+01  0.93396326436E+01  0.51100000000E-03 0. -1.
        -11    1    3    3    0    0 -0.55631156356E+01  0.37053181695E+02  0.42260705061E+01  0.37706049932E+02  0.51100000000E-03 0.  1.
         12    1    3    3    0    0  0.14240788367E+02 -0.40399066698E+02 -0.32949838112E+01  0.42962094476E+02  0.00000000000E+00 0. -1.
</event>
<event>
 7    1  0.3795708E-015  0.9000774E+02  0.7816164E-02  0.1186339E+00
        -11   -1    0    0    0    0  0.00000000000E+00  0.00000000000E+00  0.45593999997E+02  0.45594000000E+02  0.51100000000E-03 0. -1.
         11   -1    0    0    0    0 -0.00000000000E+00 -0.00000000000E+00 -0.45593999997E+02  0.45594000000E+02  0.51100000000E-03 0.  1.
    9900012    2    1    2    0    0  0.78950296649E+00 -0.10339073715E+00 -0.87121647930E+00  0.90007736160E+02  0.89999997477E+02 0.  0.
         12    1    1    2    0    0 -0.78950296649E+00  0.10339073715E+00  0.87121647930E+00  0.11802638402E+01  0.00000000000E+00 0. -1.
         11    1    3    3    0    0  0.38459395026E+01  0.13837592798E+01  0.26596648724E+01  0.48764595657E+01  0.51100000000E-03 0. -1.
        -11    1    3    3    0    0  0.28865578694E+02  0.25239090881E+02  0.12779734930E+02  0.40417260756E+02  0.51100000000E-03 0.  1.
         12    1    3    3    0    0 -0.31922015230E+02 -0.26726240898E+02 -0.16310616282E+02  0.44714015838E+02  0.00000000000E+00 0. -1.
</event>
<event>
 7    1  0.3795708E-015  0.9000769E+02  0.7816164E-02  0.1186339E+00
        -11   -1    0    0    0    0  0.00000000000E+00  0.00000000000E+00  0.45593999997E+02  0.45594000000E+02  0.51100000000E-03 0.  1.
         11   -1    0    0    0    0 -0.00000000000E+00 -0.00000000000E+00 -0.45593999997E+02  0.45594000000E+02  0.51100000000E-03 0. -1.
    9900012    2    1    2    0    0  0.87743302889E+00 -0.42121651881E-01 -0.78832713584E+00  0.90007693842E+02  0.89999954601E+02 0.  0.
         12    1    1    2    0    0 -0.87743302889E+00  0.42121651881E-01  0.78832713584E+00  0.11803061581E+01  0.00000000000E+00 0. -1.
         11    1    3    3    0    0  0.19773721401E+02  0.35055466994E+02 -0.77322650917E+01  0.40983823003E+02  0.51100000000E-03 0. -1.
        -11    1    3    3    0    0 -0.23971431437E+01  0.35696277848E+01 -0.36828013141E+01  0.56614100323E+01  0.51100000000E-03 0.  1.
        -12    1    3    3    0    0 -0.16499145229E+02 -0.38667216430E+02  0.10626739270E+02  0.43362460807E+02  0.00000000000E+00 0.  1.
</event>
<event>
 7    1  0.3795708E-015  0.9000750E+02  0.7816164E-02  0.1186340E+00
        -11   -1    0    0    0    0  0.00000000000E+00  0.00000000000E+00  0.45593999997E+02  0.45594000000E+02  0.51100000000E-03 0. -1.
         11   -1    0    0    0    0 -0.00000000000E+00 -0.00000000000E+00 -0.45593999997E+02  0.45594000000E+02  0.51100000000E-03 0.  1.
    9900012    2    1    2    0    0 -0.85742142001E+00 -0.58744639406E+00 -0.55973602399E+00  0.90007504691E+02  0.89999762953E+02 0.  0.
         12    1    1    2    0    0  0.85742142001E+00  0.58744639406E+00  0.55973602399E+00  0.11804953087E+01  0.00000000000E+00 0. -1.
         11    1    3    3    0    0 -0.60602849604E+01  0.64835149888E+01  0.58921893846E+01  0.10652742202E+02  0.51100000000E-03 0. -1.
        -11    1    3    3    0    0  0.36719201974E+02  0.10141196589E+01 -0.22498986793E+02  0.43075893946E+02  0.51100000000E-03 0.  1.
         12    1    3    3    0    0 -0.31516338434E+02 -0.80850810417E+01  0.16047061384E+02  0.36278868543E+02  0.00000000000E+00 0. -1.
</event>
<event>
 7    1  0.3795708E-015  0.9000784E+02  0.7816164E-02  0.1186339E+00
        -11   -1    0    0    0    0  0.00000000000E+00  0.00000000000E+00  0.45593999997E+02  0.45594000000E+02  0.51100000000E-03 0.  1.
         11   -1    0    0    0    0 -0.00000000000E+00 -0.00000000000E+00 -0.45593999997E+02  0.45594000000E+02  0.51100000000E-03 0. -1.
    9900012    2    1    2    0    0  0.91680524236E+00 -0.74022746664E+00 -0.65572581530E-01  0.90007843943E+02  0.90000106683E+02 0.  0.
         12    1    1    2    0    0 -0.91680524236E+00  0.74022746664E+00  0.65572581530E-01  0.11801560567E+01  0.00000000000E+00 0. -1.
         11    1    3    3    0    0 -0.19503376724E+01 -0.67322929746E+01  0.36769545317E+01  0.79150224650E+01  0.51100000000E-03 0. -1.
        -11    1    3    3    0    0  0.58601116425E+01 -0.11699176304E+02  0.36099105475E+02  0.38397357344E+02  0.51100000000E-03 0.  1.
         12    1    3    3    0    0 -0.29929687277E+01  0.17691241812E+02 -0.39841632588E+02  0.43695464134E+02  0.00000000000E+00 0. -1.
</event>
<event>
 7    1  0.3795708E-015  0.9000757E+02  0.7816164E-02  0.1186339E+00
        -11   -1    0    0    0    0  0.00000000000E+00  0.00000000000E+00  0.45593999997E+02  0.45594000000E+02  0.51100000000E-03 0.  1.
         11   -1    0    0    0    0 -0.00000000000E+00 -0.00000000000E+00 -0.45593999997E+02  0.45594000000E+02  0.51100000000E-03 0. -1.
    9900012    2    1    2    0    0 -0.99674214788E+00 -0.56104047786E+00  0.29183059678E+00  0.90007565155E+02  0.89999824214E+02 0.  0.
         12    1    1    2    0    0  0.99674214788E+00  0.56104047786E+00 -0.29183059678E+00  0.11804348455E+01  0.00000000000E+00 0. -1.
         11    1    3    3    0    0 -0.12474754733E+02 -0.92785986001E+01  0.57546164460E+01  0.16577922317E+02  0.51100000000E-03 0. -1.
        -11    1    3    3    0    0  0.34557310651E+02 -0.95955906988E+01 -0.19468093726E+02  0.40807961893E+02  0.51100000000E-03 0.  1.
         12    1    3    3    0    0 -0.23079298065E+02  0.18313148821E+02  0.14005307877E+02  0.32621680945E+02  0.00000000000E+00 0. -1.
</event>
<event>
 7    1  0.3795708E-015  0.9000750E+02  0.7816164E-02  0.1186340E+00
        -11   -1    0    0    0    0  0.00000000000E+00  0.00000000000E+00  0.45593999997E+02  0.45594000000E+02  0.51100000000E-03 0.  1.
         11   -1    0    0    0    0 -0.00000000000E+00 -0.00000000000E+00 -0.45593999997E+02  0.45594000000E+02  0.51100000000E-03 0. -1.
    9900012    2    1    2    0    0 -0.61840088442E+00 -0.13295713511E+00  0.99674099203E+00  0.90007495930E+02  0.89999754076E+02 0.  0.
         12    1    1    2    0    0  0.61840088442E+00  0.13295713511E+00 -0.99674099203E+00  0.11805040698E+01  0.00000000000E+00 0. -1.
         11    1    3    3    0    0 -0.33878766794E+02 -0.10271192364E+01 -0.24819187245E+02  0.42009735410E+02  0.51100000000E-03 0. -1.
        -11    1    3    3    0    0  0.79364158696E+01  0.60794605039E+01 -0.18147338806E+01  0.10160698607E+02  0.51100000000E-03 0.  1.
        -12    1    3    3    0    0  0.25323950040E+02 -0.51852984026E+01  0.27630662118E+02  0.37837061913E+02  0.00000000000E+00 0.  1.
</event>
<event>
 7    1  0.3795708E-015  0.9000775E+02  0.7816164E-02  0.1186339E+00
        -11   -1    0    0    0    0  0.00000000000E+00  0.00000000000E+00  0.45593999997E+02  0.45594000000E+02  0.51100000000E-03 0. -1.
         11   -1    0    0    0    0 -0.00000000000E+00 -0.00000000000E+00 -0.45593999997E+02  0.45594000000E+02  0.51100000000E-03 0.  1.
    9900012    2    1    2    0    0 -0.37828933565E+00  0.99006898963E+00 -0.51928574868E+00  0.90007747013E+02  0.90000008473E+02 0.  0.
         12    1    1    2    0    0  0.37828933565E+00 -0.99006898963E+00  0.51928574868E+00  0.11802529875E+01  0.00000000000E+00 0. -1.
         11    1    3    3    0    0 -0.80554731789E+01 -0.34484812861E+00 -0.15356407547E+01  0.82077866174E+01  0.51100000000E-03 0. -1.
        -11    1    3    3    0    0  0.14859819292E+02  0.15935002005E+02 -0.35595861639E+02  0.41734924037E+02  0.51100000000E-03 0.  1.
         12    1    3    3    0    0 -0.71826354491E+01 -0.14600084887E+02  0.36612216645E+02  0.40065036358E+02  0.00000000000E+00 0. -1.
</event>
<event>
 7    1  0.3795708E-015  0.9000758E+02  0.7816164E-02  0.1186339E+00
        -11   -1    0    0    0    0  0.00000000000E+00  0.00000000000E+00  0.45593999997E+02  0.45594000000E+02  0.51100000000E-03 0. -1.
         11   -1    0    0    0    0 -0.00000000000E+00 -0.00000000000E+00 -0.45593999997E+02  0.45594000000E+02  0.51100000000E-03 0.  1.
    9900012    2    1    2    0    0 -0.31453902536E+00  0.10050440201E+01 -0.53323193657E+00  0.90007582879E+02  0.89999842173E+02 0.  0.
         12    1    1    2    0    0  0.31453902536E+00 -0.10050440201E+01  0.53323193657E+00  0.11804171207E+01  0.00000000000E+00 0. -1.
         11    1    3    3    0    0  0.20369961834E+02  0.35578013257E+02  0.61257958505E+01  0.41451848541E+02  0.51100000000E-03 0. -1.
        -11    1    3    3    0    0  0.56615782674E+01 -0.41470719296E+01  0.21808622250E+01  0.73490022706E+01  0.51100000000E-03 0.  1.
        -12    1    3    3    0    0 -0.26346079126E+02 -0.30425897307E+02 -0.88398900120E+01  0.41206732068E+02  0.00000000000E+00 0.  1.
</event>
<event>
 7    1  0.3795708E-015  0.9000779E+02  0.7816164E-02  0.1186339E+00
        -11   -1    0    0    0    0  0.00000000000E+00  0.00000000000E+00  0.45593999997E+02  0.45594000000E+02  0.51100000000E-03 0.  1.
         11   -1    0    0    0    0 -0.00000000000E+00 -0.00000000000E+00 -0.45593999997E+02  0.45594000000E+02  0.51100000000E-03 0. -1.
    9900012    2    1    2    0    0  0.32689033345E+00  0.98040123667E+00  0.56995793088E+00  0.90007789884E+02  0.90000051910E+02 0.  0.
         12    1    1    2    0    0 -0.32689033345E+00 -0.98040123667E+00 -0.56995793088E+00  0.11802101160E+01  0.00000000000E+00 0. -1.
         11    1    3    3    0    0  0.27669811788E+01  0.43641854993E+01  0.61111520817E+01  0.80030294229E+01  0.51100000000E-03 0. -1.
        -11    1    3    3    0    0  0.11397069541E+02  0.11021109154E+02  0.34105686229E+02  0.37610581949E+02  0.51100000000E-03 0.  1.
         12    1    3    3    0    0 -0.13837160387E+02 -0.14404893417E+02 -0.39646880380E+02  0.44394178512E+02  0.00000000000E+00 0. -1.
</event>
<event>
 7    1  0.3795708E-015  0.9000768E+02  0.7816164E-02  0.1186339E+00
        -11   -1    0    0    0    0  0.00000000000E+00  0.00000000000E+00  0.45593999997E+02  0.45594000000E+02  0.51100000000E-03 0.  1.
         11   -1    0    0    0    0 -0.00000000000E+00 -0.00000000000E+00 -0.45593999997E+02  0.45594000000E+02  0.51100000000E-03 0. -1.
    9900012    2    1    2    0    0  0.10319607054E+01  0.55428617401E+00  0.14486236911E+00  0.90007677516E+02  0.89999938059E+02 0.  0.
         12    1    1    2    0    0 -0.10319607054E+01 -0.55428617401E+00 -0.14486236911E+00  0.11803224840E+01  0.00000000000E+00 0. -1.
         11    1    3    3    0    0 -0.36405901142E+01  0.17712043547E+02  0.79587417299E+01  0.19756314261E+02  0.51100000000E-03 0.  1.
        -11    1    3    3    0    0 -0.28215995963E+02 -0.22965569905E+02 -0.29271531994E+01  0.36498329488E+02  0.51100000000E-03 0. -1.
         12    1    3    3    0    0  0.32888546783E+02  0.58078125322E+01 -0.48867261614E+01  0.33753033767E+02  0.00000000000E+00 0. -1.
</event>
<event>
 7    1  0.3795708E-015  0.9000781E+02  0.7816164E-02  0.1186339E+00
        -11   -1    0    0    0    0  0.00000000000E+00  0.00000000000E+00  0.45593999997E+02  0.45594000000E+02  0.51100000000E-03 0. -1.
         11   -1    0    0    0    0 -0.00000000000E+00 -0.00000000000E+00 -0.45593999997E+02  0.45594000000E+02  0.51100000000E-03 0.  1.
    9900012    2    1    2    0    0 -0.45464698994E+00  0.79036258513E+00 -0.74931688587E+00  0.90007808195E+02  0.90000070463E+02 0.  0.
         12    1    1    2    0    0  0.45464698994E+00 -0.79036258513E+00  0.74931688587E+00  0.11801918051E+01  0.00000000000E+00 0. -1.
         11    1    3    3    0    0 -0.13095462832E+02  0.18381562230E+02  0.27601324918E+02  0.35653977538E+02  0.51100000000E-03 0. -1.
        -11    1    3    3    0    0 -0.10789797007E+02 -0.14968478264E+01  0.37088528236E+01  0.11507209149E+02  0.51100000000E-03 0.  1.
        -12    1    3    3    0    0  0.23430612849E+02 -0.16094351818E+02 -0.32059494627E+02  0.42846621508E+02  0.00000000000E+00 0.  1.
</event>
<event>
 7    1  0.3795708E-015  0.9000766E+02  0.7816164E-02  0.1186339E+00
        -11   -1    0    0    0    0  0.00000000000E+00  0.00000000000E+00  0.45593999997E+02  0.45594000000E+02  0.51100000000E-03 0.  1.
         11   -1    0    0    0    0 -0.00000000000E+00 -0.00000000000E+00 -0.45593999997E+02  0.45594000000E+02  0.51100000000E-03 0. -1.
    9900012    2    1    2    0    0  0.91974682987E+00 -0.22372496806E+00  0.70512897398E+00  0.90007663623E+02  0.89999923983E+02 0.  0.
         12    1    1    2    0    0 -0.91974682987E+00  0.22372496806E+00 -0.70512897398E+00  0.11803363768E+01  0.00000000000E+00 0. -1.
         11    1    3    3    0    0 -0.29589754685E+01  0.65703184068E+01  0.46788633026E+01  0.85916460504E+01  0.51100000000E-03 0. -1.
        -11    1    3    3    0    0 -0.26170286109E+02 -0.14217307831E+02 -0.29032082631E+02  0.41591796537E+02  0.51100000000E-03 0.  1.
         12    1    3    3    0    0  0.30049008408E+02  0.74232644566E+01  0.25058348302E+02  0.39824221036E+02  0.00000000000E+00 0. -1.
</event>
<event>
 7    1  0.3795708E-015  0.9000760E+02  0.7816164E-02  0.1186339E+00
        -11   -1    0    0    0    0  0.00000000000E+00  0.00000000000E+00  0.45593999997E+02  0.45594000000E+02  0.51100000000E-03 0.  1.
         11   -1    0    0    0    0 -0.00000000000E+00 -0.00000000000E+00 -0.45593999997E+02  0.45594000000E+02  0.51100000000E-03 0. -1.
    9900012    2    1    2    0    0  0.13359583499E+00  0.33117173560E+00  0.11250906002E+01  0.90007596923E+02  0.89999856402E+02 0.  0.
         12    1    1    2    0    0 -0.13359583499E+00 -0.33117173560E+00 -0.11250906002E+01  0.11804030770E+01  0.00000000000E+00 0. -1.
         11    1    3    3    0    0  0.20571112243E+01 -0.28528250212E+02 -0.25557323755E+02  0.38357131860E+02  0.51100000000E-03 0. -1.
        -11    1    3    3    0    0 -0.77033828490E+01 -0.53157191554E+01  0.37081166536E+01  0.10067229352E+02  0.51100000000E-03 0.  1.
        -12    1    3    3    0    0  0.57798674598E+01  0.34175141103E+02  0.22974297702E+02  0.41583235710E+02  0.00000000000E+00 0.  1.
</event>
<event>
 7    1  0.3795708E-015  0.9000772E+02  0.7816164E-02  0.1186339E+00
        -11   -1    0    0    0    0  0.00000000000E+00  0.00000000000E+00  0.45593999997E+02  0.45594000000E+02  0.51100000000E-03 0.  1.
         11   -1    0    0    0    0 -0.00000000000E+00 -0.00000000000E+00 -0.45593999997E+02  0.45594000000E+02  0.51100000000E-03 0. -1.
    9900012    2    1    2    0    0 -0.51631214516E+00  0.76727759174E+00 -0.73332961204E+00  0.90007718062E+02  0.89999979140E+02 0.  0.
         12    1    1    2    0    0  0.51631214516E+00 -0.76727759174E+00  0.73332961204E+00  0.11802819383E+01  0.00000000000E+00 0. -1.
         11    1    3    3    0    0  0.66000987311E+01 -0.93261718066E+01 -0.21916244119E+01  0.11633658137E+02  0.51100000000E-03 0. -1.
        -11    1    3    3    0    0  0.18217920083E+02 -0.27224435614E+02 -0.37406425777E+01  0.32970515825E+02  0.51100000000E-03 0.  1.
         12    1    3    3    0    0 -0.25334330959E+02  0.37317885012E+02  0.51989373776E+01  0.45403544099E+02  0.00000000000E+00 0. -1.
</event>
<event>
 7    1  0.3795708E-015  0.9000771E+02  0.7816164E-02  0.1186339E+00
        -11   -1    0    0    0    0  0.00000000000E+00  0.00000000000E+00  0.45593999997E+02  0.45594000000E+02  0.51100000000E-03 0.  1.
         11   -1    0    0    0    0 -0.00000000000E+00 -0.00000000000E+00 -0.45593999997E+02  0.45594000000E+02  0.51100000000E-03 0. -1.
    9900012    2    1    2    0    0 -0.10574526618E+01 -0.32855847978E+00 -0.40856723592E+00  0.90007710208E+02  0.89999971183E+02 0.  0.
         12    1    1    2    0    0  0.10574526618E+01  0.32855847978E+00  0.40856723592E+00  0.11802897919E+01  0.00000000000E+00 0. -1.
         11    1    3    3    0    0  0.14898048244E+02 -0.28497660953E+02 -0.11237976542E+02  0.34064066673E+02  0.51100000000E-03 0. -1.
        -11    1    3    3    0    0  0.22167048453E+01 -0.10996849746E+02 -0.74505947837E+00  0.11242757606E+02  0.51100000000E-03 0.  1.
        -12    1    3    3    0    0 -0.18172205751E+02  0.39165952220E+02  0.11574468785E+02  0.44700885928E+02  0.00000000000E+00 0.  1.
</event>
<event>
 7    1  0.3795708E-015  0.9000779E+02  0.7816164E-02  0.1186339E+00
        -11   -1    0    0    0    0  0.00000000000E+00  0.00000000000E+00  0.45593999997E+02  0.45594000000E+02  0.51100000000E-03 0. -1.
         11   -1    0    0    0    0 -0.00000000000E+00 -0.00000000000E+00 -0.45593999997E+02  0.45594000000E+02  0.51100000000E-03 0.  1.
    9900012    2    1    2    0    0 -0.11771156153E+01 -0.83311876604E-01 -0.19043523532E-01  0.90007786165E+02  0.90000048142E+02 0.  0.
         12    1    1    2    0    0  0.11771156153E+01  0.83311876604E-01  0.19043523532E-01  0.11802138350E+01  0.00000000000E+00 0. -1.
         11    1    3    3    0    0  0.50100226679E+01 -0.21089958501E+01  0.59042693993E+01  0.80254961235E+01  0.51100000000E-03 0. -1.
        -11    1    3    3    0    0  0.33319146651E+02 -0.17564598392E+02 -0.22389604619E+01  0.37731864444E+02  0.51100000000E-03 0.  1.
         12    1    3    3    0    0 -0.39506284934E+02  0.19590282366E+02 -0.36843524609E+01  0.44250425597E+02  0.00000000000E+00 0. -1.
</event>
<event>
 7    1  0.3795708E-015  0.9000773E+02  0.7816164E-02  0.1186339E+00
        -11   -1    0    0    0    0  0.00000000000E+00  0.00000000000E+00  0.45593999997E+02  0.45594000000E+02  0.51100000000E-03 0.  1.
         11   -1    0    0    0    0 -0.00000000000E+00 -0.00000000000E+00 -0.45593999997E+02  0.45594000000E+02  0.51100000000E-03 0. -1.
    9900012    2    1    2    0    0 -0.11800129155E+01 -0.22220414541E-01 -0.10223478946E-01  0.90007733612E+02  0.89999994895E+02 0.  0.
         12    1    1    2    0    0  0.11800129155E+01  0.22220414541E-01  0.10223478946E-01  0.11802663882E+01  0.00000000000E+00 0. -1.
         11    1    3    3    0    0 -0.18101002502E+02  0.14511583213E+02 -0.36789778971E+02  0.43493909642E+02  0.51100000000E-03 0. -1.
        -11    1    3    3    0    0  0.59415044529E+01  0.32892033800E+01  0.48946712067E+01  0.83712687522E+01  0.51100000000E-03 0.  1.
        -12    1    3    3    0    0  0.10979485134E+02 -0.17823007008E+02  0.31884884286E+02  0.38142555217E+02  0.00000000000E+00 0.  1.
</event>
<event>
 7    1  0.3795708E-015  0.9000777E+02  0.7816164E-02  0.1186339E+00
        -11   -1    0    0    0    0  0.00000000000E+00  0.00000000000E+00  0.45593999997E+02  0.45594000000E+02  0.51100000000E-03 0.  1.
         11   -1    0    0    0    0 -0.00000000000E+00 -0.00000000000E+00 -0.45593999997E+02  0.45594000000E+02  0.51100000000E-03 0. -1.
    9900012    2    1    2    0    0  0.60030117134E+00 -0.98200045597E+00  0.26124374217E+00  0.90007773460E+02  0.90000035270E+02 0.  0.
         12    1    1    2    0    0 -0.60030117134E+00  0.98200045597E+00 -0.26124374217E+00  0.11802265396E+01  0.00000000000E+00 0. -1.
         11    1    3    3    0    0  0.20362918016E+02 -0.18556159295E+02 -0.26808057647E+02  0.38440231958E+02  0.51100000000E-03 0. -1.
        -11    1    3    3    0    0 -0.13950479636E+01 -0.98023883737E+01  0.18790573292E+01  0.10077888338E+02  0.51100000000E-03 0.  1.
        -12    1    3    3    0    0 -0.18367568881E+02  0.27376547213E+02  0.25190244060E+02  0.41489653164E+02  0.00000000000E+00 0.  1.
</event>
<event>
 7    1  0.3795708E-015  0.9000774E+02  0.7816164E-02  0.1186339E+00
        -11   -1    0    0    0    0  0.00000000000E+00  0.00000000000E+00  0.45593999997E+02  0.45594000000E+02  0.51100000000E-03 0. -1.
         11   -1    0    0    0    0 -0.00000000000E+00 -0.00000000000E+00 -0.45593999997E+02  0.45594000000E+02  0.51100000000E-03 0.  1.
    9900012    2    1    2    0    0 -0.10488794609E+01 -0.39933519094E+00 -0.36524259799E+00  0.90007737795E+02  0.89999999133E+02 0.  0.
         12    1    1    2    0    0  0.10488794609E+01  0.39933519094E+00  0.36524259799E+00  0.11802622054E+01  0.00000000000E+00 0. -1.
         11    1    3    3    0    0  0.59749545188E+01  0.61630566673E+01  0.34906156459E+01  0.92664851392E+01  0.51100000000E-03 0. -1.
        -11    1    3    3    0    0  0.24390928403E+02  0.16012529820E+02  0.19924900452E+02  0.35331574518E+02  0.51100000000E-03 0.  1.
         12    1    3    3    0    0 -0.31414762383E+02 -0.22574921679E+02 -0.23780758696E+02  0.45409678137E+02  0.00000000000E+00 0. -1.
</event>
<event>
 7    1  0.3795708E-015  0.9000787E+02  0.7816164E-02  0.1186339E+00
        -11   -1    0    0    0    0  0.00000000000E+00  0.00000000000E+00  0.45593999997E+02  0.45594000000E+02  0.51100000000E-03 0.  1.
         11   -1    0    0    0    0 -0.00000000000E+00 -0.00000000000E+00 -0.45593999997E+02  0.45594000000E+02  0.51100000000E-03 0. -1.
    9900012    2    1    2    0    0  0.10859860670E+01 -0.39135450507E+00  0.24533015189E+00  0.90007868241E+02  0.90000131301E+02 0.  0.
         12    1    1    2    0    0 -0.10859860670E+01  0.39135450507E+00 -0.24533015189E+00  0.11801317595E+01  0.00000000000E+00 0. -1.
         11    1    3    3    0    0  0.35663371708E+01  0.36932613027E+02 -0.10800080982E+02  0.38644254622E+02  0.51100000000E-03 0. -1.
        -11    1    3    3    0    0  0.60278712576E+01  0.35967398155E+01  0.60564521296E+01  0.92710507419E+01  0.51100000000E-03 0.  1.
        -12    1    3    3    0    0 -0.85082223614E+01 -0.40920707348E+02  0.49889590040E+01  0.42092562877E+02  0.00000000000E+00 0.  1.
</event>
<event>
 7    1  0.3795708E-015  0.9000773E+02  0.7816164E-02  0.1186339E+00
        -11   -1    0    0    0    0  0.00000000000E+00  0.00000000000E+00  0.45593999997E+02  0.45594000000E+02  0.51100000000E-03 0. -1.
         11   -1    0    0    0    0 -0.00000000000E+00 -0.00000000000E+00 -0.45593999997E+02  0.45594000000E+02  0.51100000000E-03 0.  1.
    9900012    2    1    2    0    0  0.72667122508E+00 -0.44360418472E+00  0.81743895213E+00  0.90007727920E+02  0.89999989129E+02 0.  0.
         12    1    1    2    0    0 -0.72667122508E+00  0.44360418472E+00 -0.81743895213E+00  0.11802720799E+01  0.00000000000E+00 0. -1.
         11    1    3    3    0    0  0.53069627929E+01 -0.54783149949E+01 -0.25198533600E+01  0.80327735238E+01  0.51100000000E-03 0. -1.
        -11    1    3    3    0    0  0.85571135371E+01 -0.33433239722E+02  0.17797914614E+02  0.38830033161E+02  0.51100000000E-03 0.  1.
         12    1    3    3    0    0 -0.13137405105E+02  0.38467950532E+02 -0.14460622302E+02  0.43144921235E+02  0.00000000000E+00 0. -1.
</event>
<event>
 7    1  0.3795708E-015  0.9000772E+02  0.7816164E-02  0.1186339E+00
        -11   -1    0    0    0    0  0.00000000000E+00  0.00000000000E+00  0.45593999997E+02  0.45594000000E+02  0.51100000000E-03 0.  1.
         11   -1    0    0    0    0 -0.00000000000E+00 -0.00000000000E+00 -0.45593999997E+02  0.45594000000E+02  0.51100000000E-03 0. -1.
    9900012    2    1    2    0    0  0.11781887807E+01  0.50702179255E-01  0.48583170234E-01  0.90007720441E+02  0.89999981550E+02 0.  0.
         12    1    1    2    0    0 -0.11781887807E+01 -0.50702179255E-01 -0.48583170234E-01  0.11802795594E+01  0.00000000000E+00 0. -1.
         11    1    3    3    0    0  0.16578516262E+01  0.16416877657E+01 -0.82731964848E+01  0.85958938495E+01  0.51100000000E-03 0. -1.
        -11    1    3    3    0    0  0.38892999853E+02 -0.10987807596E+02  0.22220811291E+01  0.40476351097E+02  0.51100000000E-03 0.  1.
         12    1    3    3    0    0 -0.39372662698E+02  0.93968220090E+01  0.60996985260E+01  0.40935475494E+02  0.00000000000E+00 0. -1.
</event>
<event>
 7    1  0.3795708E-015  0.9000775E+02  0.7816164E-02  0.1186339E+00
        -11   -1    0    0    0    0  0.00000000000E+00  0.00000000000E+00  0.45593999997E+02  0.45594000000E+02  0.51100000000E-03 0.  1.
         11   -1    0    0    0    0 -0.00000000000E+00 -0.00000000000E+00 -0.45593999997E+02  0.45594000000E+02  0.51100000000E-03 0. -1.
    9900012    2    1    2    0    0  0.69088329597E+00 -0.90784884447E+00  0.30246661406E+00  0.90007747779E+02  0.90000009249E+02 0.  0.
         12    1    1    2    0    0 -0.69088329597E+00  0.90784884447E+00 -0.30246661406E+00  0.11802522212E+01  0.00000000000E+00 0. -1.
         11    1    3    3    0    0 -0.75842795679E+01  0.63590966288E+01  0.47956235096E+01  0.10998063993E+02  0.51100000000E-03 0. -1.
        -11    1    3    3    0    0  0.42048492479E+02 -0.12803726538E+02  0.27009965220E+01  0.44037558010E+02  0.51100000000E-03 0.  1.
         12    1    3    3    0    0 -0.33773329615E+02  0.55367810652E+01 -0.71941534176E+01  0.34972125775E+02  0.00000000000E+00 0. -1.
</event>
<event>
 7    1  0.3795708E-015  0.9000784E+02  0.7816164E-02  0.1186339E+00
        -11   -1    0    0    0    0  0.00000000000E+00  0.00000000000E+00  0.45593999997E+02  0.45594000000E+02  0.51100000000E-03 0.  1.
         11   -1    0    0    0    0 -0.00000000000E+00 -0.00000000000E+00 -0.45593999997E+02  0.45594000000E+02  0.51100000000E-03 0. -1.
    9900012    2    1    2    0    0 -0.22832211316E-01 -0.10512189787E+00  0.11752488382E+01  0.90007838251E+02  0.90000100915E+02 0.  0.
         12    1    1    2    0    0  0.22832211316E-01  0.10512189787E+00 -0.11752488382E+01  0.11801617495E+01  0.00000000000E+00 0. -1.
         11    1    3    3    0    0  0.37213706313E+01 -0.68079877068E+01  0.75768355474E+01  0.10844617705E+02  0.51100000000E-03 0. -1.
        -11    1    3    3    0    0 -0.14162714902E+02  0.19788299331E+02  0.30281017158E+02  0.38847127103E+02  0.51100000000E-03 0.  1.
         12    1    3    3    0    0  0.10418512060E+02 -0.13085433522E+02 -0.36682603867E+02  0.40316093442E+02  0.00000000000E+00 0. -1.
</event>
<event>
 7    1  0.3795708E-015  0.9000770E+02  0.7816164E-02  0.1186339E+00
        -11   -1    0    0    0    0  0.00000000000E+00  0.00000000000E+00  0.45593999997E+02  0.45594000000E+02  0.51100000000E-03 0.  1.
         11   -1    0    0    0    0 -0.00000000000E+00 -0.00000000000E+00 -0.45593999997E+02  0.45594000000E+02  0.51100000000E-03 0. -1.
    9900012    2    1    2    0    0  0.59122724783E+00  0.73428258665E+00  0.71019790263E+00  0.90007702734E+02  0.89999963610E+02 0.  0.
         12    1    1    2    0    0 -0.59122724783E+00 -0.73428258665E+00 -0.71019790263E+00  0.11802972662E+01  0.00000000000E+00 0. -1.
         11    1    3    3    0    0  0.21253140760E+02  0.26260907303E+02 -0.16985593759E+02  0.37813246887E+02  0.51100000000E-03 0. -1.
        -11    1    3    3    0    0 -0.62234567172E+01  0.92399496317E+01  0.65961415333E+01  0.12946704835E+02  0.51100000000E-03 0.  1.
        -12    1    3    3    0    0 -0.14438456795E+02 -0.34766574348E+02  0.11099650128E+02  0.39247751012E+02  0.00000000000E+00 0.  1.
</event>
<event>
 7    1  0.3795708E-015  0.9000773E+02  0.7816164E-02  0.1186339E+00
        -11   -1    0    0    0    0  0.00000000000E+00  0.00000000000E+00  0.45593999997E+02  0.45594000000E+02  0.51100000000E-03 0.  1.
         11   -1    0    0    0    0 -0.00000000000E+00 -0.00000000000E+00 -0.45593999997E+02  0.45594000000E+02  0.51100000000E-03 0. -1.
    9900012    2    1    2    0    0 -0.34150641598E+00  0.11008686959E+01  0.25396540244E+00  0.90007730140E+02  0.89999991377E+02 0.  0.
         12    1    1    2    0    0  0.34150641598E+00 -0.11008686959E+01 -0.25396540244E+00  0.11802698605E+01  0.00000000000E+00 0. -1.
         11    1    3    3    0    0 -0.41875759805E+01 -0.56494640362E+01 -0.73426080021E+01  0.10166913446E+02  0.51100000000E-03 0. -1.
        -11    1    3    3    0    0 -0.26987891310E+02 -0.17927010224E+02 -0.13461021399E+02  0.35084513254E+02  0.51100000000E-03 0.  1.
         12    1    3    3    0    0  0.30833960874E+02  0.24677342956E+02  0.21057594804E+02  0.44756303439E+02  0.00000000000E+00 0. -1.
</event>
<event>
 7    1  0.3992326E-015  0.9000760E+02  0.7816164E-02  0.1186339E+00
        -11   -1    0    0    0    0  0.00000000000E+00  0.00000000000E+00  0.45593999997E+02  0.45594000000E+02  0.51100000000E-03 0.  1.
         11   -1    0    0    0    0 -0.00000000000E+00 -0.00000000000E+00 -0.45593999997E+02  0.45594000000E+02  0.51100000000E-03 0. -1.
    9900012    2    1    2    0    0 -0.36580173060E+00  0.10674573496E+01 -0.34650398109E+00  0.90007601293E+02  0.89999860830E+02 0.  0.
         12    1    1    2    0    0  0.36580173060E+00 -0.10674573496E+01  0.34650398109E+00  0.11803987073E+01  0.00000000000E+00 0. -1.
         11    1    3    3    0    0 -0.28262093520E+02  0.52367144222E+01  0.23949201814E+02  0.37413010783E+02  0.51100000000E-03 0. -1.
        -11    1    3    3    0    0 -0.23009024518E+00  0.96813002714E+01  0.38896725981E+01  0.10435998737E+02  0.51100000000E-03 0.  1.
        -12    1    3    3    0    0  0.28126382034E+02 -0.13850557344E+02 -0.28185378393E+02  0.42158591772E+02  0.00000000000E+00 0.  1.
</event>
<event>
 7    1  0.3795708E-015  0.9000782E+02  0.7816164E-02  0.1186339E+00
        -11   -1    0    0    0    0  0.00000000000E+00  0.00000000000E+00  0.45593999997E+02  0.45594000000E+02  0.51100000000E-03 0.  1.
         11   -1    0    0    0    0 -0.00000000000E+00 -0.00000000000E+00 -0.45593999997E+02  0.45594000000E+02  0.51100000000E-03 0. -1.
    9900012    2    1    2    0    0 -0.33086022867E+00  0.45813746260E+00  0.10360853571E+01  0.90007817263E+02  0.90000079651E+02 0.  0.
         12    1    1    2    0    0  0.33086022867E+00 -0.45813746260E+00 -0.10360853571E+01  0.11801827370E+01  0.00000000000E+00 0. -1.
         11    1    3    3    0    0  0.14193127496E+02  0.29383847025E+02 -0.15634699380E+02  0.36184239097E+02  0.51100000000E-03 0. -1.
        -11    1    3    3    0    0  0.42622306550E+01  0.83453928665E+01  0.41448960270E+01  0.10246577750E+02  0.51100000000E-03 0.  1.
        -12    1    3    3    0    0 -0.18786218380E+02 -0.37271102428E+02  0.12525888710E+02  0.43577000416E+02  0.00000000000E+00 0.  1.
</event>
<event>
 7    1  0.3795708E-015  0.9000776E+02  0.7816164E-02  0.1186339E+00
        -11   -1    0    0    0    0  0.00000000000E+00  0.00000000000E+00  0.45593999997E+02  0.45594000000E+02  0.51100000000E-03 0.  1.
         11   -1    0    0    0    0 -0.00000000000E+00 -0.00000000000E+00 -0.45593999997E+02  0.45594000000E+02  0.51100000000E-03 0. -1.
    9900012    2    1    2    0    0 -0.15953998631E+00  0.63905656693E+00  0.97934593329E+00  0.90007760719E+02  0.90000022361E+02 0.  0.
         12    1    1    2    0    0  0.15953998631E+00 -0.63905656693E+00 -0.97934593329E+00  0.11802392808E+01  0.00000000000E+00 0. -1.
         11    1    3    3    0    0  0.11265643831E+01  0.21622609713E+01  0.38616723487E+01  0.45669501209E+01  0.51100000000E-03 0. -1.
        -11    1    3    3    0    0 -0.13238288688E+02 -0.39462659197E+02  0.11433189317E+02  0.43165629574E+02  0.51100000000E-03 0.  1.
         12    1    3    3    0    0  0.11952184319E+02  0.37939454793E+02 -0.14315515733E+02  0.42275181024E+02  0.00000000000E+00 0. -1.
</event>
<event>
 7    1  0.3795708E-015  0.9000774E+02  0.7816164E-02  0.1186339E+00
        -11   -1    0    0    0    0  0.00000000000E+00  0.00000000000E+00  0.45593999997E+02  0.45594000000E+02  0.51100000000E-03 0. -1.
         11   -1    0    0    0    0 -0.00000000000E+00 -0.00000000000E+00 -0.45593999997E+02  0.45594000000E+02  0.51100000000E-03 0.  1.
    9900012    2    1    2    0    0 -0.30503547294E+00 -0.19431495925E+00 -0.11234773856E+01  0.90007743088E+02  0.90000004496E+02 0.  0.
         12    1    1    2    0    0  0.30503547294E+00  0.19431495925E+00  0.11234773856E+01  0.11802569124E+01  0.00000000000E+00 0. -1.
         11    1    3    3    0    0  0.39416097490E+02 -0.74600399839E+01 -0.11456336857E+02  0.41719642764E+02  0.51100000000E-03 0. -1.
        -11    1    3    3    0    0 -0.30780395699E+01 -0.16933602685E+01  0.99625930096E+01  0.10563856130E+02  0.51100000000E-03 0.  1.
        -12    1    3    3    0    0 -0.36643093394E+02  0.89590852931E+01  0.37026646146E+00  0.37724244194E+02  0.00000000000E+00 0.  1.
</event>
<event>
 7    1  0.3795708E-015  0.9000817E+02  0.7816164E-02  0.1186338E+00
        -11   -1    0    0    0    0  0.00000000000E+00  0.00000000000E+00  0.45593999997E+02  0.45594000000E+02  0.51100000000E-03 0. -1.
         11   -1    0    0    0    0 -0.00000000000E+00 -0.00000000000E+00 -0.45593999997E+02  0.45594000000E+02  0.51100000000E-03 0.  1.
    9900012    2    1    2    0    0 -0.22637888872E+00  0.93386079569E+00 -0.68458452003E+00  0.90008169778E+02  0.90000436818E+02 0.  0.
         12    1    1    2    0    0  0.22637888872E+00 -0.93386079569E+00  0.68458452003E+00  0.11798302217E+01  0.00000000000E+00 0. -1.
         11    1    3    3    0    0  0.90037224845E+00 -0.40602519363E+01  0.85226856690E+01  0.94832740783E+01  0.51100000000E-03 0. -1.
        -11    1    3    3    0    0  0.20755565971E+02 -0.27689960267E+02  0.10991117772E+02  0.36308843117E+02  0.51100000000E-03 0.  1.
         12    1    3    3    0    0 -0.21882317108E+02  0.32684072999E+02 -0.20198387961E+02  0.44216052583E+02  0.00000000000E+00 0. -1.
</event>
<event>
 7    1  0.3795708E-015  0.9000777E+02  0.7816164E-02  0.1186339E+00
        -11   -1    0    0    0    0  0.00000000000E+00  0.00000000000E+00  0.45593999997E+02  0.45594000000E+02  0.51100000000E-03 0. -1.
         11   -1    0    0    0    0 -0.00000000000E+00 -0.00000000000E+00 -0.45593999997E+02  0.45594000000E+02  0.51100000000E-03 0.  1.
    9900012    2    1    2    0    0 -0.66073202519E+00  0.83100216905E+00  0.51556932007E+00  0.90007769879E+02  0.90000031642E+02 0.  0.
         12    1    1    2    0    0  0.66073202519E+00 -0.83100216905E+00 -0.51556932007E+00  0.11802301207E+01  0.00000000000E+00 0. -1.
         11    1    3    3    0    0  0.13639412331E+02  0.21282489542E+02 -0.24439478449E+02  0.35160575038E+02  0.51100000000E-03 0. -1.
        -11    1    3    3    0    0  0.10152525599E+01 -0.52192738571E+01 -0.11388802286E+02  0.12568865308E+02  0.51100000000E-03 0.  1.
        -12    1    3    3    0    0 -0.15315396916E+02 -0.15232213516E+02  0.36343850055E+02  0.42278329534E+02  0.00000000000E+00 0.  1.
</event>
<event>
 7    1  0.3795708E-015  0.9000772E+02  0.7816164E-02  0.1186339E+00
        -11   -1    0    0    0    0  0.00000000000E+00  0.00000000000E+00  0.45593999997E+02  0.45594000000E+02  0.51100000000E-03 0. -1.
         11   -1    0    0    0    0 -0.00000000000E+00 -0.00000000000E+00 -0.45593999997E+02  0.45594000000E+02  0.51100000000E-03 0.  1.
    9900012    2    1    2    0    0 -0.30699064287E+00 -0.11391171075E+01 -0.34907009480E-01  0.90007724804E+02  0.89999985971E+02 0.  0.
         12    1    1    2    0    0  0.30699064287E+00  0.11391171075E+01  0.34907009480E-01  0.11802751962E+01  0.00000000000E+00 0. -1.
         11    1    3    3    0    0 -0.47714770870E+01  0.58536048915E+01 -0.76823109722E+01  0.10772631338E+02  0.51100000000E-03 0. -1.
        -11    1    3    3    0    0 -0.90210204402E+01  0.27461257762E+02 -0.18149415172E+02  0.34130642523E+02  0.51100000000E-03 0.  1.
         12    1    3    3    0    0  0.13485506884E+02 -0.34453979761E+02  0.25796819135E+02  0.45104450942E+02  0.00000000000E+00 0. -1.
</event>
<event>
 7    1  0.3795708E-015  0.9000768E+02  0.7816164E-02  0.1186339E+00
        -11   -1    0    0    0    0  0.00000000000E+00  0.00000000000E+00  0.45593999997E+02  0.45594000000E+02  0.51100000000E-03 0.  1.
         11   -1    0    0    0    0 -0.00000000000E+00 -0.00000000000E+00 -0.45593999997E+02  0.45594000000E+02  0.51100000000E-03 0. -1.
    9900012    2    1    2    0    0 -0.12492522549E-01  0.10892748191E+01  0.45439233489E+00  0.90007683056E+02  0.89999943672E+02 0.  0.
         12    1    1    2    0    0  0.12492522549E-01 -0.10892748191E+01 -0.45439233489E+00  0.11803169442E+01  0.00000000000E+00 0. -1.
         11    1    3    3    0    0 -0.39101787128E+02  0.83576907102E+01 -0.37825374547E+01  0.40163520021E+02  0.51100000000E-03 0. -1.
        -11    1    3    3    0    0 -0.17401205668E+00 -0.39539280422E+01  0.93096685733E+01  0.10116014846E+02  0.51100000000E-03 0.  1.
        -12    1    3    3    0    0  0.39263306662E+02 -0.33144878489E+01 -0.50727387837E+01  0.39728148189E+02  0.00000000000E+00 0.  1.
</event>
<event>
 7    1  0.3795708E-015  0.9000775E+02  0.7816164E-02  0.1186339E+00
        -11   -1    0    0    0    0  0.00000000000E+00  0.00000000000E+00  0.45593999997E+02  0.45594000000E+02  0.51100000000E-03 0. -1.
         11   -1    0    0    0    0 -0.00000000000E+00 -0.00000000000E+00 -0.45593999997E+02  0.45594000000E+02  0.51100000000E-03 0.  1.
    9900012    2    1    2    0    0  0.82357802175E+00  0.17659936303E+00 -0.82675903758E+00  0.90007746384E+02  0.90000007836E+02 0.  0.
         12    1    1    2    0    0 -0.82357802175E+00 -0.17659936303E+00  0.82675903758E+00  0.11802536165E+01  0.00000000000E+00 0. -1.
         11    1    3    3    0    0 -0.50456821760E+01 -0.43844055294E+01 -0.14623462976E+01  0.68425417370E+01  0.51100000000E-03 0. -1.
        -11    1    3    3    0    0 -0.11303681302E+02 -0.33828618631E+02 -0.14453764208E+02  0.38484541695E+02  0.51100000000E-03 0.  1.
         12    1    3    3    0    0  0.17172941500E+02  0.38389623523E+02  0.15089351468E+02  0.44680662951E+02  0.00000000000E+00 0. -1.
</event>
<event>
 7    1  0.3795708E-015  0.9000740E+02  0.7816164E-02  0.1186340E+00
        -11   -1    0    0    0    0  0.00000000000E+00  0.00000000000E+00  0.45593999997E+02  0.45594000000E+02  0.51100000000E-03 0. -1.
         11   -1    0    0    0    0 -0.00000000000E+00 -0.00000000000E+00 -0.45593999997E+02  0.45594000000E+02  0.51100000000E-03 0.  1.
    9900012    2    1    2    0    0 -0.48496494832E+00 -0.37549877318E+00 -0.10087803304E+01  0.90007395034E+02  0.89999651848E+02 0.  0.
         12    1    1    2    0    0  0.48496494832E+00  0.37549877318E+00  0.10087803304E+01  0.11806049656E+01  0.00000000000E+00 0. -1.
         11    1    3    3    0    0  0.21653730977E+02 -0.21260788262E+02  0.23254476935E+02  0.38231869958E+02  0.51100000000E-03 0. -1.
        -11    1    3    3    0    0  0.37042998876E+01 -0.51117484775E+01  0.20668878481E+01  0.66425774961E+01  0.51100000000E-03 0.  1.
        -12    1    3    3    0    0 -0.25842995813E+02  0.25997037966E+02 -0.26330145113E+02  0.45132947580E+02  0.00000000000E+00 0.  1.
</event>
<event>
 7    1  0.3795708E-015  0.9000771E+02  0.7816164E-02  0.1186339E+00
        -11   -1    0    0    0    0  0.00000000000E+00  0.00000000000E+00  0.45593999997E+02  0.45594000000E+02  0.51100000000E-03 0. -1.
         11   -1    0    0    0    0 -0.00000000000E+00 -0.00000000000E+00 -0.45593999997E+02  0.45594000000E+02  0.51100000000E-03 0.  1.
    9900012    2    1    2    0    0 -0.13156948568E+00 -0.20210548637E-01 -0.11727629377E+01  0.90007706857E+02  0.89999967787E+02 0.  0.
         12    1    1    2    0    0  0.13156948568E+00  0.20210548637E-01  0.11727629377E+01  0.11802931432E+01  0.00000000000E+00 0. -1.
         11    1    3    3    0    0 -0.31374130715E+01 -0.49677433770E+01 -0.75624690541E+01  0.95766786256E+01  0.51100000000E-03 0. -1.
        -11    1    3    3    0    0  0.34322798322E+01  0.17011439794E+02 -0.34055753612E+02  0.38222558562E+02  0.51100000000E-03 0.  1.
         12    1    3    3    0    0 -0.42643624635E+00 -0.12063906966E+02  0.40445459728E+02  0.42208469669E+02  0.00000000000E+00 0. -1.
</event>
<event>
 7    1  0.3795708E-015  0.9000771E+02  0.7816164E-02  0.1186339E+00
        -11   -1    0    0    0    0  0.00000000000E+00  0.00000000000E+00  0.45593999997E+02  0.45594000000E+02  0.51100000000E-03 0. -1.
         11   -1    0    0    0    0 -0.00000000000E+00 -0.00000000000E+00 -0.45593999997E+02  0.45594000000E+02  0.51100000000E-03 0.  1.
    9900012    2    1    2    0    0 -0.63935288668E+00  0.94954653555E+00  0.28754171769E+00  0.90007707250E+02  0.89999968185E+02 0.  0.
         12    1    1    2    0    0  0.63935288668E+00 -0.94954653555E+00 -0.28754171769E+00  0.11802927503E+01  0.00000000000E+00 0. -1.
         11    1    3    3    0    0 -0.13440632042E+02 -0.53030942080E+01  0.33958499577E+02  0.36904648645E+02  0.51100000000E-03 0. -1.
        -11    1    3    3    0    0 -0.32944948403E+01 -0.79492670685E+01  0.41973357235E+01  0.95740362761E+01  0.51100000000E-03 0.  1.
        -12    1    3    3    0    0  0.16095773996E+02  0.14201907812E+02 -0.37868293582E+02  0.43529022328E+02  0.00000000000E+00 0.  1.
</event>
<event>
 7    1  0.3795708E-015  0.9000777E+02  0.7816164E-02  0.1186339E+00
        -11   -1    0    0    0    0  0.00000000000E+00  0.00000000000E+00  0.45593999997E+02  0.45594000000E+02  0.51100000000E-03 0. -1.
         11   -1    0    0    0    0 -0.00000000000E+00 -0.00000000000E+00 -0.45593999997E+02  0.45594000000E+02  0.51100000000E-03 0.  1.
    9900012    2    1    2    0    0  0.39178793180E+00 -0.18730396068E+00 -0.10974397897E+01  0.90007765003E+02  0.90000026701E+02 0.  0.
         12    1    1    2    0    0 -0.39178793180E+00  0.18730396068E+00  0.10974397897E+01  0.11802349974E+01  0.00000000000E+00 0. -1.
         11    1    3    3    0    0 -0.34874462916E+01  0.33789102449E+02 -0.94360887652E+01  0.35254864875E+02  0.51100000000E-03 0. -1.
        -11    1    3    3    0    0 -0.10493566514E+02  0.53791490715E+01 -0.97522695481E+00  0.11832212422E+02  0.51100000000E-03 0.  1.
        -12    1    3    3    0    0  0.14372800738E+02 -0.39355555481E+02  0.93138759304E+01  0.42920687705E+02  0.00000000000E+00 0.  1.
</event>
<event>
 7    1  0.3795708E-015  0.9000780E+02  0.7816164E-02  0.1186339E+00
        -11   -1    0    0    0    0  0.00000000000E+00  0.00000000000E+00  0.45593999997E+02  0.45594000000E+02  0.51100000000E-03 0. -1.
         11   -1    0    0    0    0 -0.00000000000E+00 -0.00000000000E+00 -0.45593999997E+02  0.45594000000E+02  0.51100000000E-03 0.  1.
    9900012    2    1    2    0    0  0.11681695595E+01 -0.14640901168E+00  0.82606083328E-01  0.90007796847E+02  0.90000058965E+02 0.  0.
         12    1    1    2    0    0 -0.11681695595E+01  0.14640901168E+00 -0.82606083328E-01  0.11802031534E+01  0.00000000000E+00 0. -1.
         11    1    3    3    0    0  0.11874986077E+02 -0.29577543193E+02  0.19334028387E+02  0.37278023145E+02  0.51100000000E-03 0. -1.
        -11    1    3    3    0    0  0.64822570928E+00 -0.82878009332E+01 -0.85186273518E+01  0.11902724608E+02  0.51100000000E-03 0.  1.
        -12    1    3    3    0    0 -0.11355042227E+02  0.37718935115E+02 -0.10732794952E+02  0.40827049093E+02  0.00000000000E+00 0.  1.
</event>
<event>
 7    1  0.3795708E-015  0.9000771E+02  0.7816164E-02  0.1186339E+00
        -11   -1    0    0    0    0  0.00000000000E+00  0.00000000000E+00  0.45593999997E+02  0.45594000000E+02  0.51100000000E-03 0. -1.
         11   -1    0    0    0    0 -0.00000000000E+00 -0.00000000000E+00 -0.45593999997E+02  0.45594000000E+02  0.51100000000E-03 0.  1.
    9900012    2    1    2    0    0  0.29238454558E+00  0.11194413579E+01 -0.23331651133E+00  0.90007714327E+02  0.89999975356E+02 0.  0.
         12    1    1    2    0    0 -0.29238454558E+00 -0.11194413579E+01  0.23331651133E+00  0.11802856733E+01  0.00000000000E+00 0. -1.
         11    1    3    3    0    0  0.11644192037E+02 -0.29024210088E+02  0.17038021327E+02  0.35613005355E+02  0.51100000000E-03 0. -1.
        -11    1    3    3    0    0 -0.69127057959E+01 -0.14265270552E+01  0.10136722151E+02  0.12352069344E+02  0.51100000000E-03 0.  1.
        -12    1    3    3    0    0 -0.44391016953E+01  0.31570178501E+02 -0.27408059989E+02  0.42042639627E+02  0.00000000000E+00 0.  1.
</event>
<event>
 7    1  0.3795708E-015  0.9000755E+02  0.7816164E-02  0.1186339E+00
        -11   -1    0    0    0    0  0.00000000000E+00  0.00000000000E+00  0.45593999997E+02  0.45594000000E+02  0.51100000000E-03 0.  1.
         11   -1    0    0    0    0 -0.00000000000E+00 -0.00000000000E+00 -0.45593999997E+02  0.45594000000E+02  0.51100000000E-03 0. -1.
    9900012    2    1    2    0    0 -0.15875868734E+00 -0.11654665632E+00  0.11639095396E+01  0.90007545486E+02  0.89999804286E+02 0.  0.
         12    1    1    2    0    0  0.15875868734E+00  0.11654665632E+00 -0.11639095396E+01  0.11804545143E+01  0.00000000000E+00 0. -1.
         11    1    3    3    0    0 -0.23543905967E+02  0.12368087324E+02 -0.32474613932E+02  0.41974821531E+02  0.51100000000E-03 0. -1.
        -11    1    3    3    0    0  0.73701168887E+01 -0.10868657803E+02  0.30710711254E+01  0.13486208641E+02  0.51100000000E-03 0.  1.
        -12    1    3    3    0    0  0.16015030391E+02 -0.16159761782E+01  0.30567452346E+02  0.34546515314E+02  0.00000000000E+00 0.  1.
</event>
<event>
 7    1  0.3795708E-015  0.9000775E+02  0.7816164E-02  0.1186339E+00
        -11   -1    0    0    0    0  0.00000000000E+00  0.00000000000E+00  0.45593999997E+02  0.45594000000E+02  0.51100000000E-03 0.  1.
         11   -1    0    0    0    0 -0.00000000000E+00 -0.00000000000E+00 -0.45593999997E+02  0.45594000000E+02  0.51100000000E-03 0. -1.
    9900012    2    1    2    0    0 -0.85880754205E+00 -0.62623569738E+00  0.51310408132E+00  0.90007746916E+02  0.90000008376E+02 0.  0.
         12    1    1    2    0    0  0.85880754205E+00  0.62623569738E+00 -0.51310408132E+00  0.11802530835E+01  0.00000000000E+00 0. -1.
         11    1    3    3    0    0  0.80538803294E+01 -0.22637578141E+01 -0.17073211127E+01  0.85384151600E+01  0.51100000000E-03 0. -1.
        -11    1    3    3    0    0  0.32640657970E+02 -0.14548733801E+02 -0.56665144298E+01  0.36182697439E+02  0.51100000000E-03 0.  1.
         12    1    3    3    0    0 -0.41553345841E+02  0.16186255917E+02  0.78869396239E+01  0.45286634318E+02  0.00000000000E+00 0. -1.
</event>
<event>
 7    1  0.3795708E-015  0.9000780E+02  0.7816164E-02  0.1186339E+00
        -11   -1    0    0    0    0  0.00000000000E+00  0.00000000000E+00  0.45593999997E+02  0.45594000000E+02  0.51100000000E-03 0. -1.
         11   -1    0    0    0    0 -0.00000000000E+00 -0.00000000000E+00 -0.45593999997E+02  0.45594000000E+02  0.51100000000E-03 0.  1.
    9900012    2    1    2    0    0  0.54835952881E+00 -0.69551280270E+00 -0.78002538426E+00  0.90007798394E+02  0.90000060532E+02 0.  0.
         12    1    1    2    0    0 -0.54835952881E+00  0.69551280270E+00  0.78002538426E+00  0.11802016064E+01  0.00000000000E+00 0. -1.
         11    1    3    3    0    0  0.76998766563E+01  0.50448358485E+01  0.16992130903E+01  0.93608650587E+01  0.51100000000E-03 0. -1.
        -11    1    3    3    0    0 -0.15815596759E+02  0.31570033302E+01 -0.38930139197E+02  0.42138527608E+02  0.51100000000E-03 0.  1.
         12    1    3    3    0    0  0.86640796318E+01 -0.88973519813E+01  0.36450900722E+02  0.38508405727E+02  0.00000000000E+00 0. -1.
</event>
<event>
 7    1  0.3795708E-015  0.9000775E+02  0.7816164E-02  0.1186339E+00
        -11   -1    0    0    0    0  0.00000000000E+00  0.00000000000E+00  0.45593999997E+02  0.45594000000E+02  0.51100000000E-03 0.  1.
         11   -1    0    0    0    0 -0.00000000000E+00 -0.00000000000E+00 -0.45593999997E+02  0.45594000000E+02  0.51100000000E-03 0. -1.
    9900012    2    1    2    0    0 -0.62316632882E+00 -0.93924958127E+00  0.34994106973E+00  0.90007752229E+02  0.90000013758E+02 0.  0.
         12    1    1    2    0    0  0.62316632882E+00  0.93924958127E+00 -0.34994106973E+00  0.11802477713E+01  0.00000000000E+00 0. -1.
         11    1    3    3    0    0 -0.11778392973E+02  0.25672269821E+02 -0.26070414808E+02  0.38437774484E+02  0.51100000000E-03 0. -1.
        -11    1    3    3    0    0  0.32827524527E+00 -0.30586382470E+01 -0.79475750908E+01  0.85221465985E+01  0.51100000000E-03 0.  1.
        -12    1    3    3    0    0  0.10826951399E+02 -0.23552881155E+02  0.34367930969E+02  0.43047831146E+02  0.00000000000E+00 0.  1.
</event>
<event>
 7    1  0.3795708E-015  0.9000778E+02  0.7816164E-02  0.1186339E+00
        -11   -1    0    0    0    0  0.00000000000E+00  0.00000000000E+00  0.45593999997E+02  0.45594000000E+02  0.51100000000E-03 0.  1.
         11   -1    0    0    0    0 -0.00000000000E+00 -0.00000000000E+00 -0.45593999997E+02  0.45594000000E+02  0.51100000000E-03 0. -1.
    9900012    2    1    2    0    0 -0.54809176833E+00 -0.98380323519E+00  0.35304924044E+00  0.90007780885E+02  0.90000042793E+02 0.  0.
         12    1    1    2    0    0  0.54809176833E+00  0.98380323519E+00 -0.35304924044E+00  0.11802191145E+01  0.00000000000E+00 0. -1.
         11    1    3    3    0    0 -0.13291596682E+01  0.16483453706E+01 -0.96232461327E+01  0.98534549411E+01  0.51100000000E-03 0. -1.
        -11    1    3    3    0    0 -0.29371995044E+02  0.22753752722E+02 -0.59766551345E+01  0.37632004500E+02  0.51100000000E-03 0.  1.
         12    1    3    3    0    0  0.30153062944E+02 -0.25385901328E+02  0.15952950508E+02  0.42522321445E+02  0.00000000000E+00 0. -1.
</event>
<event>
 7    1  0.3795708E-015  0.9000702E+02  0.7816164E-02  0.1186340E+00
        -11   -1    0    0    0    0  0.00000000000E+00  0.00000000000E+00  0.45593999997E+02  0.45594000000E+02  0.51100000000E-03 0.  1.
         11   -1    0    0    0    0 -0.00000000000E+00 -0.00000000000E+00 -0.45593999997E+02  0.45594000000E+02  0.51100000000E-03 0. -1.
    9900012    2    1    2    0    0 -0.36305335762E-01  0.84308623010E+00 -0.82619788397E+00  0.90007019301E+02  0.89999271152E+02 0.  0.
         12    1    1    2    0    0  0.36305335762E-01 -0.84308623010E+00  0.82619788397E+00  0.11809806994E+01  0.00000000000E+00 0. -1.
         11    1    3    3    0    0  0.11773323627E+01 -0.48531176901E+01 -0.92352204917E+01  0.10498959977E+02  0.51100000000E-03 0. -1.
        -11    1    3    3    0    0 -0.30125324607E+02 -0.21306666459E+02 -0.60432929300E+01  0.37390247498E+02  0.51100000000E-03 0.  1.
         12    1    3    3    0    0  0.28911686908E+02  0.27002870379E+02  0.14452315538E+02  0.42117811826E+02  0.00000000000E+00 0. -1.
</event>
<event>
 7    1  0.3795708E-015  0.9000776E+02  0.7816164E-02  0.1186339E+00
        -11   -1    0    0    0    0  0.00000000000E+00  0.00000000000E+00  0.45593999997E+02  0.45594000000E+02  0.51100000000E-03 0.  1.
         11   -1    0    0    0    0 -0.00000000000E+00 -0.00000000000E+00 -0.45593999997E+02  0.45594000000E+02  0.51100000000E-03 0. -1.
    9900012    2    1    2    0    0  0.11797114902E+01  0.23280339248E-01 -0.26616948322E-01  0.90007758653E+02  0.90000020268E+02 0.  0.
         12    1    1    2    0    0 -0.11797114902E+01 -0.23280339248E-01  0.26616948322E-01  0.11802413466E+01  0.00000000000E+00 0. -1.
         11    1    3    3    0    0 -0.87506555472E+01 -0.14646462757E+01  0.37582094488E+01  0.96355228058E+01  0.51100000000E-03 0. -1.
        -11    1    3    3    0    0 -0.14870348421E+02  0.25227653682E+02  0.22667411509E+02  0.37032057967E+02  0.51100000000E-03 0.  1.
         12    1    3    3    0    0  0.24800715459E+02 -0.23739727067E+02 -0.26452237907E+02  0.43340177881E+02  0.00000000000E+00 0. -1.
</event>
<event>
 7    1  0.3795708E-015  0.9000822E+02  0.7816164E-02  0.1186338E+00
        -11   -1    0    0    0    0  0.00000000000E+00  0.00000000000E+00  0.45593999997E+02  0.45594000000E+02  0.51100000000E-03 0. -1.
         11   -1    0    0    0    0 -0.00000000000E+00 -0.00000000000E+00 -0.45593999997E+02  0.45594000000E+02  0.51100000000E-03 0.  1.
    9900012    2    1    2    0    0  0.19654404119E+00 -0.11432125034E+01  0.21521749550E+00  0.90008219106E+02  0.90000486797E+02 0.  0.
         12    1    1    2    0    0 -0.19654404119E+00  0.11432125034E+01 -0.21521749550E+00  0.11797808943E+01  0.00000000000E+00 0. -1.
         11    1    3    3    0    0 -0.98583643982E+00  0.29561604702E+01  0.87188562884E+01  0.92590071525E+01  0.51100000000E-03 0. -1.
        -11    1    3    3    0    0  0.34318504977E+01 -0.36224521873E+02  0.16524625314E+02  0.39963193376E+02  0.51100000000E-03 0.  1.
         12    1    3    3    0    0 -0.22494700166E+01  0.32125148899E+02 -0.25028264107E+02  0.40786018577E+02  0.00000000000E+00 0. -1.
</event>
<event>
 7    1  0.3795708E-015  0.9000775E+02  0.7816164E-02  0.1186339E+00
        -11   -1    0    0    0    0  0.00000000000E+00  0.00000000000E+00  0.45593999997E+02  0.45594000000E+02  0.51100000000E-03 0.  1.
         11   -1    0    0    0    0 -0.00000000000E+00 -0.00000000000E+00 -0.45593999997E+02  0.45594000000E+02  0.51100000000E-03 0. -1.
    9900012    2    1    2    0    0  0.77584582503E-01 -0.11015843518E+01  0.41650799607E+00  0.90007751568E+02  0.90000013088E+02 0.  0.
         12    1    1    2    0    0 -0.77584582503E-01  0.11015843518E+01 -0.41650799607E+00  0.11802484325E+01  0.00000000000E+00 0. -1.
         11    1    3    3    0    0 -0.52109398797E+01  0.49112156263E+01 -0.36356618602E+01  0.80306893092E+01  0.51100000000E-03 0. -1.
        -11    1    3    3    0    0  0.13791563258E+02 -0.30185325670E+02 -0.26235174200E+02  0.42304201546E+02  0.51100000000E-03 0.  1.
         12    1    3    3    0    0 -0.85030387957E+01  0.24172525692E+02  0.30287344056E+02  0.39672860712E+02  0.00000000000E+00 0. -1.
</event>
<event>
 7    1  0.3795708E-015  0.9000783E+02  0.7816164E-02  0.1186339E+00
        -11   -1    0    0    0    0  0.00000000000E+00  0.00000000000E+00  0.45593999997E+02  0.45594000000E+02  0.51100000000E-03 0.  1.
         11   -1    0    0    0    0 -0.00000000000E+00 -0.00000000000E+00 -0.45593999997E+02  0.45594000000E+02  0.51100000000E-03 0. -1.
    9900012    2    1    2    0    0 -0.28188155505E+00  0.16348026648E+00  0.11342871488E+01  0.90007834611E+02  0.90000097228E+02 0.  0.
         12    1    1    2    0    0  0.28188155505E+00 -0.16348026648E+00 -0.11342871488E+01  0.11801653887E+01  0.00000000000E+00 0. -1.
         11    1    3    3    0    0  0.43011681983E+01 -0.16835227631E+01 -0.76486653774E+01  0.89351205409E+01  0.51100000000E-03 0. -1.
        -11    1    3    3    0    0 -0.51827959468E+01 -0.21743534614E+01  0.44636706549E+02  0.44989162679E+02  0.51100000000E-03 0.  1.
         12    1    3    3    0    0  0.59974619346E+00  0.40213564910E+01 -0.35853754022E+02  0.36083551391E+02  0.00000000000E+00 0. -1.
</event>
<event>
 7    1  0.3795708E-015  0.9000775E+02  0.7816164E-02  0.1186339E+00
        -11   -1    0    0    0    0  0.00000000000E+00  0.00000000000E+00  0.45593999997E+02  0.45594000000E+02  0.51100000000E-03 0. -1.
         11   -1    0    0    0    0 -0.00000000000E+00 -0.00000000000E+00 -0.45593999997E+02  0.45594000000E+02  0.51100000000E-03 0.  1.
    9900012    2    1    2    0    0 -0.10902943540E+01  0.19082863318E+00 -0.40967651884E+00  0.90007749096E+02  0.90000010584E+02 0.  0.
         12    1    1    2    0    0  0.10902943540E+01 -0.19082863318E+00  0.40967651884E+00  0.11802509037E+01  0.00000000000E+00 0. -1.
         11    1    3    3    0    0 -0.74335034086E+01 -0.34533976404E+02  0.16121821725E+02  0.38829957960E+02  0.51100000000E-03 0. -1.
        -11    1    3    3    0    0  0.60962260497E+01  0.39704761862E+01  0.87398576939E+01  0.11371621079E+02  0.51100000000E-03 0.  1.
        -12    1    3    3    0    0  0.24698300487E+00  0.30754328851E+02 -0.25271355938E+02  0.39806170057E+02  0.00000000000E+00 0.  1.
</event>
<event>
 7    1  0.3795708E-015  0.9000769E+02  0.7816164E-02  0.1186339E+00
        -11   -1    0    0    0    0  0.00000000000E+00  0.00000000000E+00  0.45593999997E+02  0.45594000000E+02  0.51100000000E-03 0. -1.
         11   -1    0    0    0    0 -0.00000000000E+00 -0.00000000000E+00 -0.45593999997E+02  0.45594000000E+02  0.51100000000E-03 0.  1.
    9900012    2    1    2    0    0 -0.10778063914E+01  0.45768527781E+00  0.14828776785E+00  0.90007690001E+02  0.89999950709E+02 0.  0.
         12    1    1    2    0    0  0.10778063914E+01 -0.45768527781E+00 -0.14828776785E+00  0.11803099987E+01  0.00000000000E+00 0. -1.
         11    1    3    3    0    0  0.67094269235E+01 -0.58471082046E+01  0.28316869845E+01  0.93393541232E+01  0.51100000000E-03 0. -1.
        -11    1    3    3    0    0  0.91411208577E+00  0.16504679190E+02 -0.38783385203E+02  0.42159115314E+02  0.51100000000E-03 0.  1.
         12    1    3    3    0    0 -0.87013454007E+01 -0.10199885707E+02  0.36099985986E+02  0.38509220564E+02  0.00000000000E+00 0. -1.
</event>
<event>
 7    1  0.3795708E-015  0.9000778E+02  0.7816164E-02  0.1186339E+00
        -11   -1    0    0    0    0  0.00000000000E+00  0.00000000000E+00  0.45593999997E+02  0.45594000000E+02  0.51100000000E-03 0.  1.
         11   -1    0    0    0    0 -0.00000000000E+00 -0.00000000000E+00 -0.45593999997E+02  0.45594000000E+02  0.51100000000E-03 0. -1.
    9900012    2    1    2    0    0 -0.12056409292E+00  0.96724032502E+00  0.66545906506E+00  0.90007777430E+02  0.90000039292E+02 0.  0.
         12    1    1    2    0    0  0.12056409292E+00 -0.96724032502E+00 -0.66545906506E+00  0.11802225697E+01  0.00000000000E+00 0. -1.
         11    1    3    3    0    0 -0.10024070935E+02  0.42476608932E+00 -0.18057290338E+01  0.10194267111E+02  0.51100000000E-03 0. -1.
        -11    1    3    3    0    0 -0.36029054181E+01 -0.22494996022E+02  0.32460706386E+02  0.39657322563E+02  0.51100000000E-03 0.  1.
         12    1    3    3    0    0  0.13506412260E+02  0.23037470257E+02 -0.29989518288E+02  0.40156187756E+02  0.00000000000E+00 0. -1.
</event>
<event>
 7    1  0.3795708E-015  0.9000772E+02  0.7816164E-02  0.1186339E+00
        -11   -1    0    0    0    0  0.00000000000E+00  0.00000000000E+00  0.45593999997E+02  0.45594000000E+02  0.51100000000E-03 0.  1.
         11   -1    0    0    0    0 -0.00000000000E+00 -0.00000000000E+00 -0.45593999997E+02  0.45594000000E+02  0.51100000000E-03 0. -1.
    9900012    2    1    2    0    0 -0.24806790407E+00 -0.32163184172E+00  0.11081879357E+01  0.90007718158E+02  0.89999979237E+02 0.  0.
         12    1    1    2    0    0  0.24806790407E+00  0.32163184172E+00 -0.11081879357E+01  0.11802818424E+01  0.00000000000E+00 0. -1.
         11    1    3    3    0    0 -0.18782174547E+02  0.12132229585E+02  0.15468493420E+02  0.27188883102E+02  0.51100000000E-03 0. -1.
        -11    1    3    3    0    0  0.87366590139E+01  0.45862240252E+01  0.20526967577E+02  0.22775404710E+02  0.51100000000E-03 0.  1.
         12    1    3    3    0    0  0.97974476291E+01 -0.17040085452E+02 -0.34887273061E+02  0.40043430346E+02  0.00000000000E+00 0. -1.
</event>
<event>
 7    1  0.3795708E-015  0.9000770E+02  0.7816164E-02  0.1186339E+00
        -11   -1    0    0    0    0  0.00000000000E+00  0.00000000000E+00  0.45593999997E+02  0.45594000000E+02  0.51100000000E-03 0. -1.
         11   -1    0    0    0    0 -0.00000000000E+00 -0.00000000000E+00 -0.45593999997E+02  0.45594000000E+02  0.51100000000E-03 0.  1.
    9900012    2    1    2    0    0  0.20952012724E+00 -0.10079353344E+01 -0.57730382251E+00  0.90007698333E+02  0.89999959151E+02 0.  0.
         12    1    1    2    0    0 -0.20952012724E+00  0.10079353344E+01  0.57730382251E+00  0.11803016671E+01  0.00000000000E+00 0. -1.
         11    1    3    3    0    0 -0.13233449059E+02  0.17895009309E+00 -0.35440849641E+01  0.13700975718E+02  0.51100000000E-03 0. -1.
        -11    1    3    3    0    0  0.10973869596E+02  0.16027186856E+02 -0.31897314637E+02  0.37346153935E+02  0.51100000000E-03 0.  1.
         12    1    3    3    0    0  0.24690995905E+01 -0.17214072283E+02  0.34864095779E+02  0.38960568680E+02  0.00000000000E+00 0. -1.
</event>
<event>
 7    1  0.3795708E-015  0.9000691E+02  0.7816164E-02  0.1186341E+00
        -11   -1    0    0    0    0  0.00000000000E+00  0.00000000000E+00  0.45593999997E+02  0.45594000000E+02  0.51100000000E-03 0. -1.
         11   -1    0    0    0    0 -0.00000000000E+00 -0.00000000000E+00 -0.45593999997E+02  0.45594000000E+02  0.51100000000E-03 0.  1.
    9900012    2    1    2    0    0 -0.26347038587E+00 -0.82590581487E+00 -0.80215099923E+00  0.90006905895E+02  0.89999156249E+02 0.  0.
         12    1    1    2    0    0  0.26347038587E+00  0.82590581487E+00  0.80215099923E+00  0.11810941050E+01  0.00000000000E+00 0. -1.
         11    1    3    3    0    0 -0.60686711632E+01  0.26918471374E+00 -0.77150415374E+01  0.98195262758E+01  0.51100000000E-03 0. -1.
        -11    1    3    3    0    0 -0.18900880715E+02  0.31679341721E+02  0.12087344638E+02  0.38819169032E+02  0.51100000000E-03 0.  1.
         12    1    3    3    0    0  0.24706081492E+02 -0.32774432249E+02 -0.51744541002E+01  0.41368210587E+02  0.00000000000E+00 0. -1.
</event>
<event>
 7    1  0.3795708E-015  0.9000774E+02  0.7816164E-02  0.1186339E+00
        -11   -1    0    0    0    0  0.00000000000E+00  0.00000000000E+00  0.45593999997E+02  0.45594000000E+02  0.51100000000E-03 0.  1.
         11   -1    0    0    0    0 -0.00000000000E+00 -0.00000000000E+00 -0.45593999997E+02  0.45594000000E+02  0.51100000000E-03 0. -1.
    9900012    2    1    2    0    0  0.68608175530E+00 -0.31377744578E+00  0.90766046075E+00  0.90007740718E+02  0.90000002096E+02 0.  0.
         12    1    1    2    0    0 -0.68608175530E+00  0.31377744578E+00 -0.90766046075E+00  0.11802592819E+01  0.00000000000E+00 0. -1.
         11    1    3    3    0    0 -0.15569224644E+01 -0.61382186825E+01  0.67569907948E+01  0.92605972279E+01  0.51100000000E-03 0. -1.
        -11    1    3    3    0    0 -0.13046042969E+01 -0.36868561090E+02  0.29615662932E+01  0.37010318351E+02  0.51100000000E-03 0.  1.
         12    1    3    3    0    0  0.35476085166E+01  0.42693002327E+02 -0.88108966273E+01  0.43736825139E+02  0.00000000000E+00 0. -1.
</event>
<event>
 7    1  0.3795708E-015  0.9000785E+02  0.7816164E-02  0.1186339E+00
        -11   -1    0    0    0    0  0.00000000000E+00  0.00000000000E+00  0.45593999997E+02  0.45594000000E+02  0.51100000000E-03 0.  1.
         11   -1    0    0    0    0 -0.00000000000E+00 -0.00000000000E+00 -0.45593999997E+02  0.45594000000E+02  0.51100000000E-03 0. -1.
    9900012    2    1    2    0    0  0.82296436108E+00  0.60882385373E+00  0.58721461727E+00  0.90007848386E+02  0.90000111185E+02 0.  0.
         12    1    1    2    0    0 -0.82296436108E+00 -0.60882385373E+00 -0.58721461727E+00  0.11801516137E+01  0.00000000000E+00 0. -1.
         11    1    3    3    0    0  0.36894385878E+01  0.12673736725E+01 -0.97755853866E+01  0.10525220332E+02  0.51100000000E-03 0. -1.
        -11    1    3    3    0    0 -0.53066431300E+01  0.38671178271E+02  0.13352315233E+01  0.39056412197E+02  0.51100000000E-03 0.  1.
         12    1    3    3    0    0  0.24401689032E+01 -0.39329728090E+02  0.90275684805E+01  0.40426215858E+02  0.00000000000E+00 0. -1.
</event>
<event>
 7    1  0.3795708E-015  0.9000778E+02  0.7816164E-02  0.1186339E+00
        -11   -1    0    0    0    0  0.00000000000E+00  0.00000000000E+00  0.45593999997E+02  0.45594000000E+02  0.51100000000E-03 0.  1.
         11   -1    0    0    0    0 -0.00000000000E+00 -0.00000000000E+00 -0.45593999997E+02  0.45594000000E+02  0.51100000000E-03 0. -1.
    9900012    2    1    2    0    0 -0.68648613749E+00  0.24595799517E+00  0.92799077049E+00  0.90007777384E+02  0.90000039246E+02 0.  0.
         12    1    1    2    0    0  0.68648613749E+00 -0.24595799517E+00 -0.92799077049E+00  0.11802226156E+01  0.00000000000E+00 0. -1.
         11    1    3    3    0    0  0.20427471284E+02 -0.23816162539E+02 -0.14719937110E+02  0.34657866783E+02  0.51100000000E-03 0. -1.
        -11    1    3    3    0    0  0.28605429512E+01 -0.86861345578E+01 -0.43243247265E+01  0.10115899571E+02  0.51100000000E-03 0.  1.
        -12    1    3    3    0    0 -0.23974500373E+02  0.32748255092E+02  0.19972252607E+02  0.45234011030E+02  0.00000000000E+00 0.  1.
</event>
<event>
 7    1  0.3795708E-015  0.9000777E+02  0.7816164E-02  0.1186339E+00
        -11   -1    0    0    0    0  0.00000000000E+00  0.00000000000E+00  0.45593999997E+02  0.45594000000E+02  0.51100000000E-03 0.  1.
         11   -1    0    0    0    0 -0.00000000000E+00 -0.00000000000E+00 -0.45593999997E+02  0.45594000000E+02  0.51100000000E-03 0. -1.
    9900012    2    1    2    0    0  0.55878056886E+00 -0.50330984324E+00  0.90961375313E+00  0.90007765404E+02  0.90000027107E+02 0.  0.
         12    1    1    2    0    0 -0.55878056886E+00  0.50330984324E+00 -0.90961375313E+00  0.11802345963E+01  0.00000000000E+00 0. -1.
         11    1    3    3    0    0 -0.94170138141E+01  0.14070157025E+02 -0.16513798616E+02  0.23650687366E+02  0.51100000000E-03 0. -1.
        -11    1    3    3    0    0 -0.23023865971E+02 -0.82509676506E+00 -0.57612959894E+01  0.23748088779E+02  0.51100000000E-03 0.  1.
         12    1    3    3    0    0  0.32999660354E+02 -0.13748370104E+02  0.23184708358E+02  0.42608989259E+02  0.00000000000E+00 0. -1.
</event>
<event>
 7    1  0.3795708E-015  0.9000776E+02  0.7816164E-02  0.1186339E+00
        -11   -1    0    0    0    0  0.00000000000E+00  0.00000000000E+00  0.45593999997E+02  0.45594000000E+02  0.51100000000E-03 0.  1.
         11   -1    0    0    0    0 -0.00000000000E+00 -0.00000000000E+00 -0.45593999997E+02  0.45594000000E+02  0.51100000000E-03 0. -1.
    9900012    2    1    2    0    0 -0.82733623026E+00  0.24113351879E-01  0.84137086435E+00  0.90007757812E+02  0.90000019415E+02 0.  0.
         12    1    1    2    0    0  0.82733623026E+00 -0.24113351879E-01 -0.84137086435E+00  0.11802421883E+01  0.00000000000E+00 0. -1.
         11    1    3    3    0    0  0.26453532417E+01 -0.20384066668E+01  0.99726923116E+01  0.10517014202E+02  0.51100000000E-03 0. -1.
        -11    1    3    3    0    0 -0.39448585496E+00 -0.22263730901E+01  0.34985847517E+02  0.35058834592E+02  0.51100000000E-03 0.  1.
         12    1    3    3    0    0 -0.30782036170E+01  0.42888931087E+01 -0.44117168964E+02  0.44431909018E+02  0.00000000000E+00 0. -1.
</event>
<event>
 7    1  0.3795708E-015  0.9000776E+02  0.7816164E-02  0.1186339E+00
        -11   -1    0    0    0    0  0.00000000000E+00  0.00000000000E+00  0.45593999997E+02  0.45594000000E+02  0.51100000000E-03 0. -1.
         11   -1    0    0    0    0 -0.00000000000E+00 -0.00000000000E+00 -0.45593999997E+02  0.45594000000E+02  0.51100000000E-03 0.  1.
    9900012    2    1    2    0    0 -0.10478842708E+01 -0.14204162950E+00  0.52414270481E+00  0.90007761531E+02  0.90000023183E+02 0.  0.
         12    1    1    2    0    0  0.10478842708E+01  0.14204162950E+00 -0.52414270481E+00  0.11802384693E+01  0.00000000000E+00 0. -1.
         11    1    3    3    0    0 -0.56088443871E+01 -0.16848933383E+01 -0.43255362066E+01  0.72806774861E+01  0.51100000000E-03 0. -1.
        -11    1    3    3    0    0 -0.26940571025E+02 -0.10188589120E+02 -0.24720721336E+02  0.37956761967E+02  0.51100000000E-03 0.  1.
         12    1    3    3    0    0  0.31501531141E+02  0.11731440829E+02  0.29570400247E+02  0.44770322078E+02  0.00000000000E+00 0. -1.
</event>
<event>
 7    1  0.3795708E-015  0.9000777E+02  0.7816164E-02  0.1186339E+00
        -11   -1    0    0    0    0  0.00000000000E+00  0.00000000000E+00  0.45593999997E+02  0.45594000000E+02  0.51100000000E-03 0.  1.
         11   -1    0    0    0    0 -0.00000000000E+00 -0.00000000000E+00 -0.45593999997E+02  0.45594000000E+02  0.51100000000E-03 0. -1.
    9900012    2    1    2    0    0  0.69637316034E+00 -0.32378833752E+00  0.89620215696E+00  0.90007765798E+02  0.90000027506E+02 0.  0.
         12    1    1    2    0    0 -0.69637316034E+00  0.32378833752E+00 -0.89620215696E+00  0.11802342022E+01  0.00000000000E+00 0. -1.
         11    1    3    3    0    0  0.69397626655E+01 -0.26217549456E+02 -0.25301763296E+02  0.37090422369E+02  0.51100000000E-03 0. -1.
        -11    1    3    3    0    0 -0.31449724865E+01 -0.91848990680E+01  0.13128010208E+01  0.97967683249E+01  0.51100000000E-03 0.  1.
        -12    1    3    3    0    0 -0.30984170187E+01  0.35078660186E+02  0.24885164432E+02  0.43120575104E+02  0.00000000000E+00 0.  1.
</event>
<event>
 7    1  0.3795708E-015  0.9000762E+02  0.7816164E-02  0.1186339E+00
        -11   -1    0    0    0    0  0.00000000000E+00  0.00000000000E+00  0.45593999997E+02  0.45594000000E+02  0.51100000000E-03 0.  1.
         11   -1    0    0    0    0 -0.00000000000E+00 -0.00000000000E+00 -0.45593999997E+02  0.45594000000E+02  0.51100000000E-03 0. -1.
    9900012    2    1    2    0    0 -0.55843773527E+00  0.99001114985E+00 -0.31830598848E+00  0.90007621466E+02  0.89999881269E+02 0.  0.
         12    1    1    2    0    0  0.55843773527E+00 -0.99001114985E+00  0.31830598848E+00  0.11803785339E+01  0.00000000000E+00 0. -1.
         11    1    3    3    0    0 -0.22414293070E+02 -0.91124983301E+01 -0.27112191868E+02  0.36338809939E+02  0.51100000000E-03 0. -1.
        -11    1    3    3    0    0 -0.60104096496E+01 -0.30835445678E+01 -0.57283317123E+01  0.88570342511E+01  0.51100000000E-03 0.  1.
        -12    1    3    3    0    0  0.27866264985E+02  0.13186054048E+02  0.32522217591E+02  0.44811777276E+02  0.00000000000E+00 0.  1.
</event>
<event>
 7    1  0.3795708E-015  0.9000809E+02  0.7816164E-02  0.1186338E+00
        -11   -1    0    0    0    0  0.00000000000E+00  0.00000000000E+00  0.45593999997E+02  0.45594000000E+02  0.51100000000E-03 0.  1.
         11   -1    0    0    0    0 -0.00000000000E+00 -0.00000000000E+00 -0.45593999997E+02  0.45594000000E+02  0.51100000000E-03 0. -1.
    9900012    2    1    2    0    0  0.70506864574E-01 -0.52116632217E+00 -0.10562201557E+01  0.90008090440E+02  0.90000356433E+02 0.  0.
         12    1    1    2    0    0 -0.70506864574E-01  0.52116632217E+00  0.10562201557E+01  0.11799095603E+01  0.00000000000E+00 0. -1.
         11    1    3    3    0    0  0.13844180454E+02 -0.12184301278E+02  0.74387565705E+01  0.19886015932E+02  0.51100000000E-03 0. -1.
        -11    1    3    3    0    0 -0.21026857268E+02 -0.21855226743E+02  0.89838823124E+01  0.31630520138E+02  0.51100000000E-03 0.  1.
         12    1    3    3    0    0  0.72531836789E+01  0.33518361699E+02 -0.17478859039E+02  0.38491554369E+02  0.00000000000E+00 0. -1.
</event>
<event>
 7    1  0.3795708E-015  0.9000781E+02  0.7816164E-02  0.1186339E+00
        -11   -1    0    0    0    0  0.00000000000E+00  0.00000000000E+00  0.45593999997E+02  0.45594000000E+02  0.51100000000E-03 0. -1.
         11   -1    0    0    0    0 -0.00000000000E+00 -0.00000000000E+00 -0.45593999997E+02  0.45594000000E+02  0.51100000000E-03 0.  1.
    9900012    2    1    2    0    0  0.10999643311E+01 -0.38242086379E+00  0.19153902414E+00  0.90007807454E+02  0.90000069713E+02 0.  0.
         12    1    1    2    0    0 -0.10999643311E+01  0.38242086379E+00 -0.19153902414E+00  0.11801925456E+01  0.00000000000E+00 0. -1.
         11    1    3    3    0    0  0.87400967006E+01 -0.20597196949E+01 -0.66781356764E+01  0.11190586755E+02  0.51100000000E-03 0. -1.
        -11    1    3    3    0    0  0.29231510496E+02 -0.49894569737E+01 -0.17201340650E+02  0.34282094556E+02  0.51100000000E-03 0.  1.
         12    1    3    3    0    0 -0.36871642865E+02  0.66667558048E+01  0.24071015351E+02  0.44535126143E+02  0.00000000000E+00 0. -1.
</event>
<event>
 7    1  0.3795708E-015  0.9000761E+02  0.7816164E-02  0.1186339E+00
        -11   -1    0    0    0    0  0.00000000000E+00  0.00000000000E+00  0.45593999997E+02  0.45594000000E+02  0.51100000000E-03 0.  1.
         11   -1    0    0    0    0 -0.00000000000E+00 -0.00000000000E+00 -0.45593999997E+02  0.45594000000E+02  0.51100000000E-03 0. -1.
    9900012    2    1    2    0    0  0.10308377182E+01 -0.40229720367E+00  0.41091928066E+00  0.90007608499E+02  0.89999868131E+02 0.  0.
         12    1    1    2    0    0 -0.10308377182E+01  0.40229720367E+00 -0.41091928066E+00  0.11803915014E+01  0.00000000000E+00 0. -1.
         11    1    3    3    0    0  0.34061704506E+01 -0.13330312159E+02  0.83174686220E+01  0.16077297781E+02  0.51100000000E-03 0. -1.
        -11    1    3    3    0    0  0.25624771255E+02 -0.15937563136E+02 -0.13983156443E+02  0.33259036140E+02  0.51100000000E-03 0.  1.
         12    1    3    3    0    0 -0.28000103988E+02  0.28865578091E+02  0.60766071016E+01  0.40671274577E+02  0.00000000000E+00 0. -1.
</event>
<event>
 7    1  0.3795708E-015  0.9000833E+02  0.7816164E-02  0.1186338E+00
        -11   -1    0    0    0    0  0.00000000000E+00  0.00000000000E+00  0.45593999997E+02  0.45594000000E+02  0.51100000000E-03 0. -1.
         11   -1    0    0    0    0 -0.00000000000E+00 -0.00000000000E+00 -0.45593999997E+02  0.45594000000E+02  0.51100000000E-03 0.  1.
    9900012    2    1    2    0    0 -0.45537774425E+00 -0.98706357590E+00  0.45819909337E+00  0.90008334877E+02  0.90000604096E+02 0.  0.
         12    1    1    2    0    0  0.45537774425E+00  0.98706357590E+00 -0.45819909337E+00  0.11796651228E+01  0.00000000000E+00 0. -1.
         11    1    3    3    0    0  0.10627766040E+02  0.47045438785E+01  0.48140260895E+01  0.12580023512E+02  0.51100000000E-03 0. -1.
        -11    1    3    3    0    0 -0.15622911538E+02  0.30806656268E+02 -0.17049064103E+02  0.38520072980E+02  0.51100000000E-03 0.  1.
         12    1    3    3    0    0  0.45397677537E+01 -0.36498263722E+02  0.12693237107E+02  0.38908238386E+02  0.00000000000E+00 0. -1.
</event>
<event>
 7    1  0.3795708E-015  0.9000778E+02  0.7816164E-02  0.1186339E+00
        -11   -1    0    0    0    0  0.00000000000E+00  0.00000000000E+00  0.45593999997E+02  0.45594000000E+02  0.51100000000E-03 0.  1.
         11   -1    0    0    0    0 -0.00000000000E+00 -0.00000000000E+00 -0.45593999997E+02  0.45594000000E+02  0.51100000000E-03 0. -1.
    9900012    2    1    2    0    0  0.43675507033E+00 -0.91144927313E+00 -0.60944202014E+00  0.90007782077E+02  0.90000044001E+02 0.  0.
         12    1    1    2    0    0 -0.43675507033E+00  0.91144927313E+00  0.60944202014E+00  0.11802179226E+01  0.00000000000E+00 0. -1.
         11    1    3    3    0    0  0.24079093658E+01 -0.13355994910E+02  0.75844870974E+01  0.15546866963E+02  0.51100000000E-03 0. -1.
        -11    1    3    3    0    0  0.14233282520E+02  0.60309163829E+01  0.29292686145E+02  0.33121288404E+02  0.51100000000E-03 0.  1.
         12    1    3    3    0    0 -0.16204436815E+02  0.64136292544E+01 -0.37486615263E+02  0.41339626710E+02  0.00000000000E+00 0. -1.
</event>
<event>
 7    1  0.3795708E-015  0.9000774E+02  0.7816164E-02  0.1186339E+00
        -11   -1    0    0    0    0  0.00000000000E+00  0.00000000000E+00  0.45593999997E+02  0.45594000000E+02  0.51100000000E-03 0.  1.
         11   -1    0    0    0    0 -0.00000000000E+00 -0.00000000000E+00 -0.45593999997E+02  0.45594000000E+02  0.51100000000E-03 0. -1.
    9900012    2    1    2    0    0 -0.83831365546E+00 -0.20498228631E+00  0.80511951589E+00  0.90007743690E+02  0.90000005107E+02 0.  0.
         12    1    1    2    0    0  0.83831365546E+00  0.20498228631E+00 -0.80511951589E+00  0.11802563101E+01  0.00000000000E+00 0. -1.
         11    1    3    3    0    0  0.26286035636E+02 -0.77566450773E+01 -0.25079340279E+02  0.37149623435E+02  0.51100000000E-03 0. -1.
        -11    1    3    3    0    0  0.42731314477E+01 -0.39900069798E+01 -0.47238609580E+01  0.75162936797E+01  0.51100000000E-03 0.  1.
        -12    1    3    3    0    0 -0.31397480739E+02  0.11541669771E+02  0.30608320753E+02  0.45341826575E+02  0.00000000000E+00 0.  1.
</event>
<event>
 7    1  0.3795708E-015  0.9000781E+02  0.7816164E-02  0.1186339E+00
        -11   -1    0    0    0    0  0.00000000000E+00  0.00000000000E+00  0.45593999997E+02  0.45594000000E+02  0.51100000000E-03 0.  1.
         11   -1    0    0    0    0 -0.00000000000E+00 -0.00000000000E+00 -0.45593999997E+02  0.45594000000E+02  0.51100000000E-03 0. -1.
    9900012    2    1    2    0    0  0.24138954580E+00 -0.52506379450E+00 -0.10290228833E+01  0.90007809763E+02  0.90000072052E+02 0.  0.
         12    1    1    2    0    0 -0.24138954580E+00  0.52506379450E+00  0.10290228833E+01  0.11801902370E+01  0.00000000000E+00 0. -1.
         11    1    3    3    0    0  0.54894481997E+01  0.78145877180E+01  0.23602557869E+01  0.98373080861E+01  0.51100000000E-03 0. -1.
        -11    1    3    3    0    0  0.28760644594E+02  0.19452193949E+02  0.60581440155E+01  0.35245760540E+02  0.51100000000E-03 0.  1.
         12    1    3    3    0    0 -0.34008703248E+02 -0.27791845462E+02 -0.94474226858E+01  0.44924741136E+02  0.00000000000E+00 0. -1.
</event>
<event>
 7    1  0.3795708E-015  0.9000776E+02  0.7816164E-02  0.1186339E+00
        -11   -1    0    0    0    0  0.00000000000E+00  0.00000000000E+00  0.45593999997E+02  0.45594000000E+02  0.51100000000E-03 0.  1.
         11   -1    0    0    0    0 -0.00000000000E+00 -0.00000000000E+00 -0.45593999997E+02  0.45594000000E+02  0.51100000000E-03 0. -1.
    9900012    2    1    2    0    0  0.63756931345E+00 -0.79857256736E+00 -0.59056166139E+00  0.90007756021E+02  0.90000017600E+02 0.  0.
         12    1    1    2    0    0 -0.63756931345E+00  0.79857256736E+00  0.59056166139E+00  0.11802439793E+01  0.00000000000E+00 0. -1.
         11    1    3    3    0    0 -0.33818102655E+00 -0.76970610809E+01  0.68167276639E+01  0.10287219838E+02  0.51100000000E-03 0. -1.
        -11    1    3    3    0    0  0.19222333411E+02  0.34125309962E+02  0.12813252559E+02  0.41209396054E+02  0.51100000000E-03 0.  1.
         12    1    3    3    0    0 -0.18246583071E+02 -0.27226821448E+02 -0.20220541884E+02  0.38511140129E+02  0.00000000000E+00 0. -1.
</event>
<event>
 8    1  0.3795708E-015  0.9000780E+02  0.7816164E-02  0.1186339E+00
        -11   -1    0    0    0    0  0.00000000000E+00  0.00000000000E+00  0.45593999997E+02  0.45594000000E+02  0.51100000000E-03 0.  1.
         11   -1    0    0    0    0 -0.00000000000E+00 -0.00000000000E+00 -0.45593999997E+02  0.45594000000E+02  0.51100000000E-03 0. -1.
    9900012    2    1    2    0    0 -0.10463642079E+01 -0.54268515809E+00  0.58999300584E-01  0.90007802494E+02  0.90000064687E+02 0.  0.
         23    2    3    3    0    0 -0.32370295763E+01 -0.24182614078E+02 -0.43338843624E+00  0.66261482783E+02  0.61604537909E+02 0.  0.
         12    1    1    2    0    0  0.10463642079E+01  0.54268515809E+00 -0.58999300584E-01  0.11801975063E+01  0.00000000000E+00 0. -1.
         11    1    4    4    0    0 -0.31073952886E+02 -0.14096287304E+02 -0.92781370078E+01  0.35360708284E+02  0.51100000000E-03 0. -1.
        -11    1    4    4    0    0  0.27836923310E+02 -0.10086326774E+02  0.88447485716E+01  0.30900774500E+02  0.51100000000E-03 0.  1.
         12    1    3    3    0    0  0.21906653684E+01  0.23639928920E+02  0.49238773682E+00  0.23746319710E+02  0.00000000000E+00 0. -1.
</event>
<event>
 7    1  0.3795708E-015  0.9000776E+02  0.7816164E-02  0.1186339E+00
        -11   -1    0    0    0    0  0.00000000000E+00  0.00000000000E+00  0.45593999997E+02  0.45594000000E+02  0.51100000000E-03 0.  1.
         11   -1    0    0    0    0 -0.00000000000E+00 -0.00000000000E+00 -0.45593999997E+02  0.45594000000E+02  0.51100000000E-03 0. -1.
    9900012    2    1    2    0    0  0.26081059029E-01 -0.16864358547E+00  0.11678363739E+01  0.90007761602E+02  0.90000023255E+02 0.  0.
         12    1    1    2    0    0 -0.26081059029E-01  0.16864358547E+00 -0.11678363739E+01  0.11802383983E+01  0.00000000000E+00 0. -1.
         11    1    3    3    0    0  0.10051709951E+02  0.12890742830E+02 -0.56613959751E+01  0.17299119292E+02  0.51100000000E-03 0. -1.
        -11    1    3    3    0    0 -0.19146566380E+02 -0.45723252237E+01  0.35976764449E+02  0.41010056602E+02  0.51100000000E-03 0.  1.
         12    1    3    3    0    0  0.91209374878E+01 -0.84870611919E+01 -0.29147532100E+02  0.31698585707E+02  0.00000000000E+00 0. -1.
</event>
<event>
 7    1  0.3795708E-015  0.9000775E+02  0.7816164E-02  0.1186339E+00
        -11   -1    0    0    0    0  0.00000000000E+00  0.00000000000E+00  0.45593999997E+02  0.45594000000E+02  0.51100000000E-03 0.  1.
         11   -1    0    0    0    0 -0.00000000000E+00 -0.00000000000E+00 -0.45593999997E+02  0.45594000000E+02  0.51100000000E-03 0. -1.
    9900012    2    1    2    0    0 -0.29573064388E+00 -0.56059248568E+00  0.99562502069E+00  0.90007750141E+02  0.90000011642E+02 0.  0.
         12    1    1    2    0    0  0.29573064388E+00  0.56059248568E+00 -0.99562502069E+00  0.11802498594E+01  0.00000000000E+00 0. -1.
         11    1    3    3    0    0  0.93037605505E+01 -0.29833368787E+02  0.23746588972E+02  0.39249080774E+02  0.51100000000E-03 0. -1.
        -11    1    3    3    0    0  0.24313621928E+01  0.40448757791E+01  0.79471732515E+01  0.92428407501E+01  0.51100000000E-03 0.  1.
        -12    1    3    3    0    0 -0.12030853387E+02  0.25227900522E+02 -0.30698137203E+02  0.41515828616E+02  0.00000000000E+00 0.  1.
</event>
<event>
 7    1  0.3795708E-015  0.9000805E+02  0.7816164E-02  0.1186338E+00
        -11   -1    0    0    0    0  0.00000000000E+00  0.00000000000E+00  0.45593999997E+02  0.45594000000E+02  0.51100000000E-03 0. -1.
         11   -1    0    0    0    0 -0.00000000000E+00 -0.00000000000E+00 -0.45593999997E+02  0.45594000000E+02  0.51100000000E-03 0.  1.
    9900012    2    1    2    0    0 -0.26228991171E+00  0.48828180706E+00 -0.10416615464E+01  0.90008053434E+02  0.90000318939E+02 0.  0.
         12    1    1    2    0    0  0.26228991171E+00 -0.48828180706E+00  0.10416615464E+01  0.11799465658E+01  0.00000000000E+00 0. -1.
         11    1    3    3    0    0 -0.11836505631E+02 -0.17080570551E+02  0.12774502067E+02  0.24393373265E+02  0.51100000000E-03 0. -1.
        -11    1    3    3    0    0 -0.17625103430E+02  0.24877054820E+02 -0.17718629505E+02  0.35262755979E+02  0.51100000000E-03 0.  1.
         12    1    3    3    0    0  0.29199319149E+02 -0.73082024618E+01  0.39024658916E+01  0.30351924190E+02  0.00000000000E+00 0. -1.
</event>
<event>
 7    1  0.3795708E-015  0.9000775E+02  0.7816164E-02  0.1186339E+00
        -11   -1    0    0    0    0  0.00000000000E+00  0.00000000000E+00  0.45593999997E+02  0.45594000000E+02  0.51100000000E-03 0.  1.
         11   -1    0    0    0    0 -0.00000000000E+00 -0.00000000000E+00 -0.45593999997E+02  0.45594000000E+02  0.51100000000E-03 0. -1.
    9900012    2    1    2    0    0  0.11070472546E+01 -0.26796695901E+00  0.30925846162E+00  0.90007745489E+02  0.90000006929E+02 0.  0.
         12    1    1    2    0    0 -0.11070472546E+01  0.26796695901E+00 -0.30925846162E+00  0.11802545112E+01  0.00000000000E+00 0. -1.
         11    1    3    3    0    0  0.69802360792E+01  0.27219092399E+02 -0.24582301317E+02  0.37334866078E+02  0.51100000000E-03 0. -1.
        -11    1    3    3    0    0  0.54879213944E+01  0.71341266236E+00 -0.67923941049E+01  0.87614414793E+01  0.51100000000E-03 0.  1.
        -12    1    3    3    0    0 -0.11361110219E+02 -0.28200472020E+02  0.31683953883E+02  0.43911437932E+02  0.00000000000E+00 0.  1.
</event>
<event>
 7    1  0.3795708E-015  0.9000780E+02  0.7816164E-02  0.1186339E+00
        -11   -1    0    0    0    0  0.00000000000E+00  0.00000000000E+00  0.45593999997E+02  0.45594000000E+02  0.51100000000E-03 0. -1.
         11   -1    0    0    0    0 -0.00000000000E+00 -0.00000000000E+00 -0.45593999997E+02  0.45594000000E+02  0.51100000000E-03 0.  1.
    9900012    2    1    2    0    0  0.91427938592E+00 -0.37408520957E+00 -0.64577596445E+00  0.90007799536E+02  0.90000061690E+02 0.  0.
         12    1    1    2    0    0 -0.91427938592E+00  0.37408520957E+00  0.64577596445E+00  0.11802004642E+01  0.00000000000E+00 0. -1.
         11    1    3    3    0    0  0.16767388880E+02 -0.38139387749E+02 -0.79795335570E+01  0.42419702778E+02  0.51100000000E-03 0. -1.
        -11    1    3    3    0    0  0.56488075279E+01  0.12867631110E+02  0.33839162072E+01  0.14454613313E+02  0.51100000000E-03 0.  1.
        -12    1    3    3    0    0 -0.21501917022E+02  0.24897671429E+02  0.39498413853E+01  0.33133483445E+02  0.00000000000E+00 0.  1.
</event>
<event>
 7    1  0.3795708E-015  0.9000774E+02  0.7816164E-02  0.1186339E+00
        -11   -1    0    0    0    0  0.00000000000E+00  0.00000000000E+00  0.45593999997E+02  0.45594000000E+02  0.51100000000E-03 0. -1.
         11   -1    0    0    0    0 -0.00000000000E+00 -0.00000000000E+00 -0.45593999997E+02  0.45594000000E+02  0.51100000000E-03 0.  1.
    9900012    2    1    2    0    0 -0.39167522951E+00  0.12039343200E+00 -0.11068490345E+01  0.90007737805E+02  0.89999999144E+02 0.  0.
         12    1    1    2    0    0  0.39167522951E+00 -0.12039343200E+00  0.11068490345E+01  0.11802621951E+01  0.00000000000E+00 0. -1.
         11    1    3    3    0    0  0.33873476210E+01  0.84117364309E+01 -0.35993706641E+01  0.97563775617E+01  0.51100000000E-03 0. -1.
        -11    1    3    3    0    0  0.33624630576E+02 -0.17840972714E+02  0.13034240182E+02  0.40234406994E+02  0.51100000000E-03 0.  1.
         12    1    3    3    0    0 -0.37403653427E+02  0.95496297148E+01 -0.10541718552E+02  0.40016953250E+02  0.00000000000E+00 0. -1.
</event>
<event>
 7    1  0.3795708E-015  0.9000773E+02  0.7816164E-02  0.1186339E+00
        -11   -1    0    0    0    0  0.00000000000E+00  0.00000000000E+00  0.45593999997E+02  0.45594000000E+02  0.51100000000E-03 0.  1.
         11   -1    0    0    0    0 -0.00000000000E+00 -0.00000000000E+00 -0.45593999997E+02  0.45594000000E+02  0.51100000000E-03 0. -1.
    9900012    2    1    2    0    0 -0.78404323413E+00  0.30965090725E-01  0.88168151813E+00  0.90007726757E+02  0.89999987950E+02 0.  0.
         12    1    1    2    0    0  0.78404323413E+00 -0.30965090725E-01 -0.88168151813E+00  0.11802732435E+01  0.00000000000E+00 0. -1.
         11    1    3    3    0    0 -0.10164221851E+02  0.80160778945E+01 -0.35456664105E+02  0.37745780431E+02  0.51100000000E-03 0. -1.
        -11    1    3    3    0    0 -0.25960162083E+01  0.49967434112E+01 -0.48593585551E+01  0.74377490344E+01  0.51100000000E-03 0.  1.
        -12    1    3    3    0    0  0.11976194825E+02 -0.12981856215E+02  0.41197704178E+02  0.44824197291E+02  0.00000000000E+00 0.  1.
</event>
<event>
 7    1  0.3795708E-015  0.9000775E+02  0.7816164E-02  0.1186339E+00
        -11   -1    0    0    0    0  0.00000000000E+00  0.00000000000E+00  0.45593999997E+02  0.45594000000E+02  0.51100000000E-03 0.  1.
         11   -1    0    0    0    0 -0.00000000000E+00 -0.00000000000E+00 -0.45593999997E+02  0.45594000000E+02  0.51100000000E-03 0. -1.
    9900012    2    1    2    0    0  0.88716689462E+00 -0.60542541630E+00  0.48925890880E+00  0.90007754554E+02  0.90000016114E+02 0.  0.
         12    1    1    2    0    0 -0.88716689462E+00  0.60542541630E+00 -0.48925890880E+00  0.11802454463E+01  0.00000000000E+00 0. -1.
         11    1    3    3    0    0  0.37242884269E+02 -0.14977915878E+02  0.12803920657E+02  0.42134436951E+02  0.51100000000E-03 0. -1.
        -11    1    3    3    0    0 -0.14389011027E+01  0.88176560327E+01  0.28851479562E+01  0.93885873956E+01  0.51100000000E-03 0.  1.
        -12    1    3    3    0    0 -0.34916816271E+02  0.55548344290E+01 -0.15199809705E+02  0.38484730207E+02  0.00000000000E+00 0.  1.
</event>
<event>
 7    1  0.3795708E-015  0.9000776E+02  0.7816164E-02  0.1186339E+00
        -11   -1    0    0    0    0  0.00000000000E+00  0.00000000000E+00  0.45593999997E+02  0.45594000000E+02  0.51100000000E-03 0.  1.
         11   -1    0    0    0    0 -0.00000000000E+00 -0.00000000000E+00 -0.45593999997E+02  0.45594000000E+02  0.51100000000E-03 0. -1.
    9900012    2    1    2    0    0 -0.77555502712E+00  0.88288242341E+00 -0.10949905236E+00  0.90007764000E+02  0.90000025685E+02 0.  0.
         12    1    1    2    0    0  0.77555502712E+00 -0.88288242341E+00  0.10949905236E+00  0.11802360002E+01  0.00000000000E+00 0. -1.
         11    1    3    3    0    0 -0.31301170793E+02  0.14039309674E+02 -0.10582777659E+02  0.35900706015E+02  0.51100000000E-03 0. -1.
        -11    1    3    3    0    0 -0.83701105225E+01  0.49974551545E+01 -0.63550615609E+00  0.97691952850E+01  0.51100000000E-03 0.  1.
        -12    1    3    3    0    0  0.38895726288E+02 -0.18153882405E+02  0.11108784762E+02  0.44337862700E+02  0.00000000000E+00 0.  1.
</event>
<event>
 7    1  0.3795708E-015  0.9000776E+02  0.7816164E-02  0.1186339E+00
        -11   -1    0    0    0    0  0.00000000000E+00  0.00000000000E+00  0.45593999997E+02  0.45594000000E+02  0.51100000000E-03 0. -1.
         11   -1    0    0    0    0 -0.00000000000E+00 -0.00000000000E+00 -0.45593999997E+02  0.45594000000E+02  0.51100000000E-03 0.  1.
    9900012    2    1    2    0    0 -0.59572948652E+00 -0.76184150136E+00 -0.67651172589E+00  0.90007760952E+02  0.90000022597E+02 0.  0.
         12    1    1    2    0    0  0.59572948652E+00  0.76184150136E+00  0.67651172589E+00  0.11802390476E+01  0.00000000000E+00 0. -1.
         11    1    3    3    0    0 -0.30587359401E+02  0.96092992582E+01  0.16701653859E+02  0.36150662916E+02  0.51100000000E-03 0. -1.
        -11    1    3    3    0    0 -0.91651523328E+01 -0.20506419039E+01  0.16470004155E+01  0.95350804995E+01  0.51100000000E-03 0.  1.
        -12    1    3    3    0    0  0.39156782248E+02 -0.83204988557E+01 -0.19025166000E+02  0.44322017537E+02  0.00000000000E+00 0.  1.
</event>
<event>
 7    1  0.3795708E-015  0.9000764E+02  0.7816164E-02  0.1186339E+00
        -11   -1    0    0    0    0  0.00000000000E+00  0.00000000000E+00  0.45593999997E+02  0.45594000000E+02  0.51100000000E-03 0.  1.
         11   -1    0    0    0    0 -0.00000000000E+00 -0.00000000000E+00 -0.45593999997E+02  0.45594000000E+02  0.51100000000E-03 0. -1.
    9900012    2    1    2    0    0 -0.23907804494E+00  0.11456360596E+01 -0.15365588961E+00  0.90007639705E+02  0.89999899749E+02 0.  0.
         12    1    1    2    0    0  0.23907804494E+00 -0.11456360596E+01  0.15365588961E+00  0.11803602946E+01  0.00000000000E+00 0. -1.
         11    1    3    3    0    0 -0.25026410656E+02 -0.18066217423E+02 -0.82064453131E+01  0.31938302823E+02  0.51100000000E-03 0. -1.
        -11    1    3    3    0    0 -0.12369448248E+02 -0.46970683870E+01  0.47459088306E+00  0.13239748417E+02  0.51100000000E-03 0.  1.
        -12    1    3    3    0    0  0.37156780859E+02  0.23908921869E+02  0.75781985405E+01  0.44829588465E+02  0.00000000000E+00 0.  1.
</event>
<event>
 7    1  0.3795708E-015  0.9000807E+02  0.7816164E-02  0.1186338E+00
        -11   -1    0    0    0    0  0.00000000000E+00  0.00000000000E+00  0.45593999997E+02  0.45594000000E+02  0.51100000000E-03 0.  1.
         11   -1    0    0    0    0 -0.00000000000E+00 -0.00000000000E+00 -0.45593999997E+02  0.45594000000E+02  0.51100000000E-03 0. -1.
    9900012    2    1    2    0    0  0.97488357997E+00  0.64113964865E-01  0.66161590620E+00  0.90008066018E+02  0.90000331689E+02 0.  0.
         12    1    1    2    0    0 -0.97488357997E+00 -0.64113964865E-01 -0.66161590620E+00  0.11799339822E+01  0.00000000000E+00 0. -1.
         11    1    3    3    0    0 -0.22493168107E+02 -0.18699527828E+02 -0.25129877256E+02  0.38563268581E+02  0.51100000000E-03 0. -1.
        -11    1    3    3    0    0  0.19826405061E+01  0.63735448876E+00 -0.75515872654E+01  0.78334892997E+01  0.51100000000E-03 0.  1.
        -12    1    3    3    0    0  0.21485411181E+02  0.18126287304E+02  0.33343080428E+02  0.43611308137E+02  0.00000000000E+00 0.  1.
</event>
<event>
 7    1  0.3795708E-015  0.9000776E+02  0.7816164E-02  0.1186339E+00
        -11   -1    0    0    0    0  0.00000000000E+00  0.00000000000E+00  0.45593999997E+02  0.45594000000E+02  0.51100000000E-03 0.  1.
         11   -1    0    0    0    0 -0.00000000000E+00 -0.00000000000E+00 -0.45593999997E+02  0.45594000000E+02  0.51100000000E-03 0. -1.
    9900012    2    1    2    0    0 -0.10756152699E+01 -0.47038679276E+00  0.12151417864E+00  0.90007755263E+02  0.90000016832E+02 0.  0.
         12    1    1    2    0    0  0.10756152699E+01  0.47038679276E+00 -0.12151417864E+00  0.11802447371E+01  0.00000000000E+00 0. -1.
         11    1    3    3    0    0 -0.14346369172E+02  0.19394167294E+02 -0.30801262319E+02  0.39123775305E+02  0.51100000000E-03 0. -1.
        -11    1    3    3    0    0  0.76355413920E+01  0.55429397019E+01 -0.12337396297E+01  0.95156600729E+01  0.51100000000E-03 0.  1.
        -12    1    3    3    0    0  0.56352125099E+01 -0.25407493789E+02  0.32156516127E+02  0.41368319885E+02  0.00000000000E+00 0.  1.
</event>
<event>
 7    1  0.4137257E-015  0.9000805E+02  0.7816164E-02  0.1186338E+00
        -11   -1    0    0    0    0  0.00000000000E+00  0.00000000000E+00  0.45593999997E+02  0.45594000000E+02  0.51100000000E-03 0. -1.
         11   -1    0    0    0    0 -0.00000000000E+00 -0.00000000000E+00 -0.45593999997E+02  0.45594000000E+02  0.51100000000E-03 0.  1.
    9900012    2    1    2    0    0  0.14836225399E+00  0.10326231115E+01 -0.55132862402E+00  0.90008048687E+02  0.90000314129E+02 0.  0.
         12    1    1    2    0    0 -0.14836225399E+00 -0.10326231115E+01  0.55132862402E+00  0.11799513127E+01  0.00000000000E+00 0. -1.
         11    1    3    3    0    0 -0.15178917868E+02  0.33238731433E+02 -0.30839307520E+01  0.36670471010E+02  0.51100000000E-03 0. -1.
        -11    1    3    3    0    0 -0.84408216014E+00  0.87452438738E+01  0.30664698379E+01  0.93056435905E+01  0.51100000000E-03 0.  1.
        -12    1    3    3    0    0  0.16171362282E+02 -0.40951352196E+02 -0.53386770994E+00  0.44031934087E+02  0.00000000000E+00 0.  1.
</event>
<event>
 7    1  0.3795708E-015  0.9000773E+02  0.7816164E-02  0.1186339E+00
        -11   -1    0    0    0    0  0.00000000000E+00  0.00000000000E+00  0.45593999997E+02  0.45594000000E+02  0.51100000000E-03 0. -1.
         11   -1    0    0    0    0 -0.00000000000E+00 -0.00000000000E+00 -0.45593999997E+02  0.45594000000E+02  0.51100000000E-03 0.  1.
    9900012    2    1    2    0    0  0.84387160955E+00 -0.78905536239E+00  0.24148352131E+00  0.90007728019E+02  0.89999989229E+02 0.  0.
         12    1    1    2    0    0 -0.84387160955E+00  0.78905536239E+00 -0.24148352131E+00  0.11802719811E+01  0.00000000000E+00 0. -1.
         11    1    3    3    0    0  0.88904012021E+01  0.39586596096E+02 -0.30829082029E+01  0.40689582785E+02  0.51100000000E-03 0. -1.
        -11    1    3    3    0    0 -0.85810885741E+01 -0.64426282952E+01 -0.81705217539E+01  0.13487029564E+02  0.51100000000E-03 0.  1.
        -12    1    3    3    0    0  0.53455898162E+00 -0.33933023163E+02  0.11494913478E+02  0.35831115670E+02  0.00000000000E+00 0.  1.
</event>
<event>
 7    1  0.3795708E-015  0.9000770E+02  0.7816164E-02  0.1186339E+00
        -11   -1    0    0    0    0  0.00000000000E+00  0.00000000000E+00  0.45593999997E+02  0.45594000000E+02  0.51100000000E-03 0.  1.
         11   -1    0    0    0    0 -0.00000000000E+00 -0.00000000000E+00 -0.45593999997E+02  0.45594000000E+02  0.51100000000E-03 0. -1.
    9900012    2    1    2    0    0 -0.90384566791E+00 -0.72597347996E+00  0.22165209868E+00  0.90007701674E+02  0.89999962536E+02 0.  0.
         12    1    1    2    0    0  0.90384566791E+00  0.72597347996E+00 -0.22165209868E+00  0.11802983258E+01  0.00000000000E+00 0. -1.
         11    1    3    3    0    0  0.53497292867E+01  0.64026726306E+01  0.60088531763E+00  0.83650991436E+01  0.51100000000E-03 0. -1.
        -11    1    3    3    0    0  0.56823790895E+01  0.36150089030E+02 -0.26574955450E+01  0.36690334584E+02  0.51100000000E-03 0.  1.
         12    1    3    3    0    0 -0.11935954044E+02 -0.43278735141E+02  0.22782623260E+01  0.44952267947E+02  0.00000000000E+00 0. -1.
</event>
<event>
 7    1  0.3795708E-015  0.9000772E+02  0.7816164E-02  0.1186339E+00
        -11   -1    0    0    0    0  0.00000000000E+00  0.00000000000E+00  0.45593999997E+02  0.45594000000E+02  0.51100000000E-03 0.  1.
         11   -1    0    0    0    0 -0.00000000000E+00 -0.00000000000E+00 -0.45593999997E+02  0.45594000000E+02  0.51100000000E-03 0. -1.
    9900012    2    1    2    0    0  0.86219464671E-01 -0.54085032918E+00  0.10455152008E+01  0.90007722528E+02  0.89999983666E+02 0.  0.
         12    1    1    2    0    0 -0.86219464671E-01  0.54085032918E+00 -0.10455152008E+01  0.11802774715E+01  0.00000000000E+00 0. -1.
         11    1    3    3    0    0  0.51529988106E-01  0.20491093027E+01 -0.42289397797E+01  0.46995144638E+01  0.51100000000E-03 0. -1.
        -11    1    3    3    0    0  0.31705158646E+02  0.15129670197E+02  0.25826715824E+02  0.43602101504E+02  0.51100000000E-03 0.  1.
         12    1    3    3    0    0 -0.31670469170E+02 -0.17719629829E+02 -0.20552260843E+02  0.41706106561E+02  0.00000000000E+00 0. -1.
</event>
<event>
 7    1  0.3795708E-015  0.9000776E+02  0.7816164E-02  0.1186339E+00
        -11   -1    0    0    0    0  0.00000000000E+00  0.00000000000E+00  0.45593999997E+02  0.45594000000E+02  0.51100000000E-03 0. -1.
         11   -1    0    0    0    0 -0.00000000000E+00 -0.00000000000E+00 -0.45593999997E+02  0.45594000000E+02  0.51100000000E-03 0.  1.
    9900012    2    1    2    0    0 -0.71305526697E+00  0.27209026597E+00 -0.90026967467E+00  0.90007760019E+02  0.90000021651E+02 0.  0.
         12    1    1    2    0    0  0.71305526697E+00 -0.27209026597E+00  0.90026967467E+00  0.11802399814E+01  0.00000000000E+00 0. -1.
         11    1    3    3    0    0 -0.12568311226E+02  0.36054021134E+02  0.17294320839E+01  0.38221012841E+02  0.51100000000E-03 0. -1.
        -11    1    3    3    0    0 -0.36880722894E+01  0.23311102123E+00 -0.11063487687E+02  0.11664346446E+02  0.51100000000E-03 0.  1.
        -12    1    3    3    0    0  0.15543328249E+02 -0.36015041889E+02  0.84337859285E+01  0.40122400731E+02  0.00000000000E+00 0.  1.
</event>
<event>
 7    1  0.3795708E-015  0.9000775E+02  0.7816164E-02  0.1186339E+00
        -11   -1    0    0    0    0  0.00000000000E+00  0.00000000000E+00  0.45593999997E+02  0.45594000000E+02  0.51100000000E-03 0. -1.
         11   -1    0    0    0    0 -0.00000000000E+00 -0.00000000000E+00 -0.45593999997E+02  0.45594000000E+02  0.51100000000E-03 0.  1.
    9900012    2    1    2    0    0 -0.99614566771E-01 -0.60485583870E+00 -0.10085710440E+01  0.90007750366E+02  0.90000011871E+02 0.  0.
         12    1    1    2    0    0  0.99614566771E-01  0.60485583870E+00  0.10085710440E+01  0.11802496339E+01  0.00000000000E+00 0. -1.
         11    1    3    3    0    0 -0.39428989438E+01  0.39930740091E+01 -0.71267701339E+01  0.90709395834E+01  0.51100000000E-03 0. -1.
        -11    1    3    3    0    0 -0.37750455995E+02 -0.91625559025E+01  0.21583149019E+01  0.38906396415E+02  0.51100000000E-03 0.  1.
         12    1    3    3    0    0  0.41593740372E+02  0.45646260547E+01  0.39598841880E+01  0.42030414368E+02  0.00000000000E+00 0. -1.
</event>
<event>
 7    1  0.4510089E-015  0.9000770E+02  0.7816164E-02  0.1186339E+00
        -11   -1    0    0    0    0  0.00000000000E+00  0.00000000000E+00  0.45593999997E+02  0.45594000000E+02  0.51100000000E-03 0.  1.
         11   -1    0    0    0    0 -0.00000000000E+00 -0.00000000000E+00 -0.45593999997E+02  0.45594000000E+02  0.51100000000E-03 0. -1.
    9900012    2    1    2    0    0  0.75109603433E+00 -0.77966953606E+00 -0.47019861292E+00  0.90007696406E+02  0.89999957199E+02 0.  0.
         12    1    1    2    0    0 -0.75109603433E+00  0.77966953606E+00  0.47019861292E+00  0.11803035939E+01  0.00000000000E+00 0. -1.
         11    1    3    3    0    0 -0.21117812908E+02  0.21344918017E+02  0.24088794152E+02  0.38494643149E+02  0.51100000000E-03 0. -1.
        -11    1    3    3    0    0  0.26855317323E+01 -0.58504379714E+01  0.80631992113E+01  0.10317697753E+02  0.51100000000E-03 0.  1.
        -12    1    3    3    0    0  0.19183377210E+02 -0.16274149582E+02 -0.32622191977E+02  0.41195355504E+02  0.00000000000E+00 0.  1.
</event>
<event>
 7    1  0.3795708E-015  0.9000772E+02  0.7816164E-02  0.1186339E+00
        -11   -1    0    0    0    0  0.00000000000E+00  0.00000000000E+00  0.45593999997E+02  0.45594000000E+02  0.51100000000E-03 0. -1.
         11   -1    0    0    0    0 -0.00000000000E+00 -0.00000000000E+00 -0.45593999997E+02  0.45594000000E+02  0.51100000000E-03 0.  1.
    9900012    2    1    2    0    0  0.92472691614E+00 -0.14732952445E+00 -0.71850006946E+00  0.90007716895E+02  0.89999977958E+02 0.  0.
         12    1    1    2    0    0 -0.92472691614E+00  0.14732952445E+00  0.71850006946E+00  0.11802831050E+01  0.00000000000E+00 0. -1.
         11    1    3    3    0    0  0.67672450670E+01  0.56375322988E+01  0.86738934578E+01  0.12361788066E+02  0.51100000000E-03 0. -1.
        -11    1    3    3    0    0 -0.36297345435E+02 -0.19253871507E+02  0.49565826311E+01  0.41385704842E+02  0.51100000000E-03 0.  1.
         12    1    3    3    0    0  0.30454827284E+02  0.13469009683E+02 -0.14348976158E+02  0.36260223987E+02  0.00000000000E+00 0. -1.
</event>
<event>
 7    1  0.6544371E-015  0.9000779E+02  0.7816164E-02  0.1186339E+00
        -11   -1    0    0    0    0  0.00000000000E+00  0.00000000000E+00  0.45593999997E+02  0.45594000000E+02  0.51100000000E-03 0. -1.
         11   -1    0    0    0    0 -0.00000000000E+00 -0.00000000000E+00 -0.45593999997E+02  0.45594000000E+02  0.51100000000E-03 0.  1.
    9900012    2    1    2    0    0  0.51735850332E-01 -0.13108645311E+00 -0.11717677950E+01  0.90007788145E+02  0.90000050149E+02 0.  0.
         12    1    1    2    0    0 -0.51735850332E-01  0.13108645311E+00  0.11717677950E+01  0.11802118547E+01  0.00000000000E+00 0. -1.
         11    1    3    3    0    0  0.62367124812E+01  0.17440059868E+02  0.39072195911E+02  0.43239897830E+02  0.51100000000E-03 0. -1.
        -11    1    3    3    0    0  0.13572572692E+01  0.16960820020E+01 -0.92533623387E+01  0.95049227396E+01  0.51100000000E-03 0.  1.
        -12    1    3    3    0    0 -0.75422339001E+01 -0.19267228324E+02 -0.30990601367E+02  0.37262967576E+02  0.00000000000E+00 0.  1.
</event>
<event>
 7    1  0.3795708E-015  0.9000778E+02  0.7816164E-02  0.1186339E+00
        -11   -1    0    0    0    0  0.00000000000E+00  0.00000000000E+00  0.45593999997E+02  0.45594000000E+02  0.51100000000E-03 0.  1.
         11   -1    0    0    0    0 -0.00000000000E+00 -0.00000000000E+00 -0.45593999997E+02  0.45594000000E+02  0.51100000000E-03 0. -1.
    9900012    2    1    2    0    0 -0.63978981634E-01  0.88659574411E+00  0.77638929663E+00  0.90007777282E+02  0.90000039142E+02 0.  0.
         12    1    1    2    0    0  0.63978981634E-01 -0.88659574411E+00 -0.77638929663E+00  0.11802227178E+01  0.00000000000E+00 0. -1.
         11    1    3    3    0    0  0.21629616059E+02 -0.26677079876E+02  0.16248817699E+02  0.37993827899E+02  0.51100000000E-03 0. -1.
        -11    1    3    3    0    0  0.46785545932E+01 -0.48488758574E+01 -0.63185285655E+01  0.92371139246E+01  0.51100000000E-03 0.  1.
        -12    1    3    3    0    0 -0.26372149634E+02  0.32412551477E+02 -0.91538998372E+01  0.42776835458E+02  0.00000000000E+00 0.  1.
</event>
<event>
 7    1  0.3795708E-015  0.9000781E+02  0.7816164E-02  0.1186339E+00
        -11   -1    0    0    0    0  0.00000000000E+00  0.00000000000E+00  0.45593999997E+02  0.45594000000E+02  0.51100000000E-03 0.  1.
         11   -1    0    0    0    0 -0.00000000000E+00 -0.00000000000E+00 -0.45593999997E+02  0.45594000000E+02  0.51100000000E-03 0. -1.
    9900012    2    1    2    0    0 -0.33174822467E+00 -0.82627774247E+00  0.77463298917E+00  0.90007810159E+02  0.90000072453E+02 0.  0.
         12    1    1    2    0    0  0.33174822467E+00  0.82627774247E+00 -0.77463298917E+00  0.11801898407E+01  0.00000000000E+00 0. -1.
         11    1    3    3    0    0 -0.43195806870E+01 -0.68457877239E+01  0.82762604870E+01  0.11576703969E+02  0.51100000000E-03 0. -1.
        -11    1    3    3    0    0  0.37592309932E+02  0.18107369484E+02  0.93189288223E+00  0.41736399224E+02  0.51100000000E-03 0.  1.
         12    1    3    3    0    0 -0.33604477469E+02 -0.12087859502E+02 -0.84335203800E+01  0.36694706966E+02  0.00000000000E+00 0. -1.
</event>
<event>
 7    1  0.3795708E-015  0.9000769E+02  0.7816164E-02  0.1186339E+00
        -11   -1    0    0    0    0  0.00000000000E+00  0.00000000000E+00  0.45593999997E+02  0.45594000000E+02  0.51100000000E-03 0.  1.
         11   -1    0    0    0    0 -0.00000000000E+00 -0.00000000000E+00 -0.45593999997E+02  0.45594000000E+02  0.51100000000E-03 0. -1.
    9900012    2    1    2    0    0 -0.98787883057E+00 -0.57098674814E+00  0.30198169449E+00  0.90007693517E+02  0.89999954271E+02 0.  0.
         12    1    1    2    0    0  0.98787883057E+00  0.57098674814E+00 -0.30198169449E+00  0.11803064832E+01  0.00000000000E+00 0. -1.
         11    1    3    3    0    0  0.22799330829E+01  0.31557556617E+02 -0.15094850337E+02  0.35056126161E+02  0.51100000000E-03 0. -1.
        -11    1    3    3    0    0  0.56013611203E+01  0.66743601225E+01 -0.51872396950E+01  0.10140502224E+02  0.51100000000E-03 0.  1.
        -12    1    3    3    0    0 -0.88691730338E+01 -0.38802903487E+02  0.20584071726E+02  0.44811065131E+02  0.00000000000E+00 0.  1.
</event>
<event>
 7    1  0.3795708E-015  0.9000774E+02  0.7816164E-02  0.1186339E+00
        -11   -1    0    0    0    0  0.00000000000E+00  0.00000000000E+00  0.45593999997E+02  0.45594000000E+02  0.51100000000E-03 0.  1.
         11   -1    0    0    0    0 -0.00000000000E+00 -0.00000000000E+00 -0.45593999997E+02  0.45594000000E+02  0.51100000000E-03 0. -1.
    9900012    2    1    2    0    0  0.55806072618E+00  0.98726129878E+00 -0.32695134576E+00  0.90007739932E+02  0.90000001299E+02 0.  0.
         12    1    1    2    0    0 -0.55806072618E+00 -0.98726129878E+00  0.32695134576E+00  0.11802600682E+01  0.00000000000E+00 0. -1.
         11    1    3    3    0    0  0.21972020682E+02  0.18438440121E+02  0.20196632604E+02  0.35080617664E+02  0.51100000000E-03 0. -1.
        -11    1    3    3    0    0  0.94422911053E+01 -0.26436286233E+01  0.61157750056E+01  0.11556311600E+02  0.51100000000E-03 0.  1.
        -12    1    3    3    0    0 -0.30856251061E+02 -0.14807550199E+02 -0.26639358955E+02  0.43370810667E+02  0.00000000000E+00 0.  1.
</event>
<event>
 7    1  0.3795708E-015  0.9000756E+02  0.7816164E-02  0.1186339E+00
        -11   -1    0    0    0    0  0.00000000000E+00  0.00000000000E+00  0.45593999997E+02  0.45594000000E+02  0.51100000000E-03 0.  1.
         11   -1    0    0    0    0 -0.00000000000E+00 -0.00000000000E+00 -0.45593999997E+02  0.45594000000E+02  0.51100000000E-03 0. -1.
    9900012    2    1    2    0    0  0.85775401250E+00  0.31806681499E+00  0.74601390204E+00  0.90007557207E+02  0.89999816162E+02 0.  0.
         12    1    1    2    0    0 -0.85775401250E+00 -0.31806681499E+00 -0.74601390204E+00  0.11804427927E+01  0.00000000000E+00 0. -1.
         11    1    3    3    0    0  0.51711130678E+01  0.17944815744E+02 -0.36376484347E+00  0.18678574560E+02  0.51100000000E-03 0. -1.
        -11    1    3    3    0    0 -0.28762490094E+01  0.26109614214E+02  0.69746272086E+01  0.27177751705E+02  0.51100000000E-03 0.  1.
         12    1    3    3    0    0 -0.14371100459E+01 -0.43736363143E+02 -0.58648484631E+01  0.44151230943E+02  0.00000000000E+00 0. -1.
</event>
<event>
 7    1  0.4121300E-015  0.9000769E+02  0.7816164E-02  0.1186339E+00
        -11   -1    0    0    0    0  0.00000000000E+00  0.00000000000E+00  0.45593999997E+02  0.45594000000E+02  0.51100000000E-03 0. -1.
         11   -1    0    0    0    0 -0.00000000000E+00 -0.00000000000E+00 -0.45593999997E+02  0.45594000000E+02  0.51100000000E-03 0.  1.
    9900012    2    1    2    0    0  0.18312143055E+00  0.86279452551E+00 -0.78433426360E+00  0.90007691528E+02  0.89999952256E+02 0.  0.
         12    1    1    2    0    0 -0.18312143055E+00 -0.86279452551E+00  0.78433426360E+00  0.11803084718E+01  0.00000000000E+00 0. -1.
         11    1    3    3    0    0  0.35031684986E+02 -0.34602609005E+00  0.13420548779E+02  0.37515994147E+02  0.51100000000E-03 0. -1.
        -11    1    3    3    0    0  0.12980137677E+01 -0.13524511794E+00  0.92758158326E+01  0.93671708965E+01  0.51100000000E-03 0.  1.
        -12    1    3    3    0    0 -0.36146577323E+02  0.13440657335E+01 -0.23480698875E+02  0.43124526485E+02  0.00000000000E+00 0.  1.
</event>
<event>
 7    1  0.3795708E-015  0.9000770E+02  0.7816164E-02  0.1186339E+00
        -11   -1    0    0    0    0  0.00000000000E+00  0.00000000000E+00  0.45593999997E+02  0.45594000000E+02  0.51100000000E-03 0. -1.
         11   -1    0    0    0    0 -0.00000000000E+00 -0.00000000000E+00 -0.45593999997E+02  0.45594000000E+02  0.51100000000E-03 0.  1.
    9900012    2    1    2    0    0 -0.53827734870E+00 -0.38187489186E+00 -0.97853267283E+00  0.90007704643E+02  0.89999965545E+02 0.  0.
         12    1    1    2    0    0  0.53827734870E+00  0.38187489186E+00  0.97853267283E+00  0.11802953567E+01  0.00000000000E+00 0. -1.
         11    1    3    3    0    0 -0.74620209299E+01 -0.28768386034E+02 -0.25342783310E+02  0.39058398041E+02  0.51100000000E-03 0. -1.
        -11    1    3    3    0    0  0.12993317375E+01 -0.31757625648E+01 -0.59233699339E+01  0.68454395379E+01  0.51100000000E-03 0.  1.
        -12    1    3    3    0    0  0.56244118437E+01  0.31562273707E+02  0.30287620571E+02  0.44103867064E+02  0.00000000000E+00 0.  1.
</event>
<event>
 7    1  0.3795708E-015  0.9000766E+02  0.7816164E-02  0.1186339E+00
        -11   -1    0    0    0    0  0.00000000000E+00  0.00000000000E+00  0.45593999997E+02  0.45594000000E+02  0.51100000000E-03 0.  1.
         11   -1    0    0    0    0 -0.00000000000E+00 -0.00000000000E+00 -0.45593999997E+02  0.45594000000E+02  0.51100000000E-03 0. -1.
    9900012    2    1    2    0    0 -0.96505383794E+00  0.27474837311E+00  0.62160534441E+00  0.90007657345E+02  0.89999917622E+02 0.  0.
         12    1    1    2    0    0  0.96505383794E+00 -0.27474837311E+00 -0.62160534441E+00  0.11803426548E+01  0.00000000000E+00 0. -1.
         11    1    3    3    0    0 -0.45380352075E+01 -0.44327245712E+01  0.60971269509E+01  0.87987367267E+01  0.51100000000E-03 0. -1.
        -11    1    3    3    0    0  0.33960505271E+02 -0.91756467283E+01  0.18823791883E+02  0.39897914134E+02  0.51100000000E-03 0.  1.
         12    1    3    3    0    0 -0.30387523901E+02  0.13883119673E+02 -0.24299313490E+02  0.41311006484E+02  0.00000000000E+00 0. -1.
</event>
<event>
 7    1  0.3795708E-015  0.9000771E+02  0.7816164E-02  0.1186339E+00
        -11   -1    0    0    0    0  0.00000000000E+00  0.00000000000E+00  0.45593999997E+02  0.45594000000E+02  0.51100000000E-03 0. -1.
         11   -1    0    0    0    0 -0.00000000000E+00 -0.00000000000E+00 -0.45593999997E+02  0.45594000000E+02  0.51100000000E-03 0.  1.
    9900012    2    1    2    0    0 -0.51363204067E-01 -0.85473807662E+00 -0.81231922881E+00  0.90007712794E+02  0.89999973803E+02 0.  0.
         12    1    1    2    0    0  0.51363204067E-01  0.85473807662E+00  0.81231922881E+00  0.11802872057E+01  0.00000000000E+00 0. -1.
         11    1    3    3    0    0  0.23360164370E+02 -0.55833335647E+01  0.34820199481E+02  0.42300321338E+02  0.51100000000E-03 0. -1.
        -11    1    3    3    0    0 -0.26020026188E+01  0.79438253509E+01 -0.30199818275E+01  0.88879170413E+01  0.51100000000E-03 0.  1.
        -12    1    3    3    0    0 -0.20809524956E+02 -0.32152298628E+01 -0.32612536883E+02  0.38819474415E+02  0.00000000000E+00 0.  1.
</event>
<event>
 7    1  0.3795708E-015  0.9000777E+02  0.7816164E-02  0.1186339E+00
        -11   -1    0    0    0    0  0.00000000000E+00  0.00000000000E+00  0.45593999997E+02  0.45594000000E+02  0.51100000000E-03 0.  1.
         11   -1    0    0    0    0 -0.00000000000E+00 -0.00000000000E+00 -0.45593999997E+02  0.45594000000E+02  0.51100000000E-03 0. -1.
    9900012    2    1    2    0    0 -0.50303095035E+00 -0.10548386877E+01 -0.16500789105E+00  0.90007765956E+02  0.90000027667E+02 0.  0.
         12    1    1    2    0    0  0.50303095035E+00  0.10548386877E+01  0.16500789105E+00  0.11802340438E+01  0.00000000000E+00 0. -1.
         11    1    3    3    0    0 -0.23783155828E+02  0.15130795812E+02 -0.26489588765E+02  0.38681750170E+02  0.51100000000E-03 0. -1.
        -11    1    3    3    0    0  0.46010594918E+01  0.10552869193E+01 -0.75926533191E+01  0.89404565664E+01  0.51100000000E-03 0.  1.
        -12    1    3    3    0    0  0.18679065386E+02 -0.17240921419E+02  0.33917234193E+02  0.42385559220E+02  0.00000000000E+00 0.  1.
</event>
<event>
 7    1  0.3795708E-015  0.9000745E+02  0.7816164E-02  0.1186340E+00
        -11   -1    0    0    0    0  0.00000000000E+00  0.00000000000E+00  0.45593999997E+02  0.45594000000E+02  0.51100000000E-03 0. -1.
         11   -1    0    0    0    0 -0.00000000000E+00 -0.00000000000E+00 -0.45593999997E+02  0.45594000000E+02  0.51100000000E-03 0.  1.
    9900012    2    1    2    0    0  0.59548633572E+00  0.79134965308E+00 -0.64253848424E+00  0.90007451842E+02  0.89999709406E+02 0.  0.
         12    1    1    2    0    0 -0.59548633572E+00 -0.79134965308E+00  0.64253848424E+00  0.11805481579E+01  0.00000000000E+00 0. -1.
         11    1    3    3    0    0 -0.42237008771E+01 -0.71876380811E+01  0.37822145247E+01  0.91546128949E+01  0.51100000000E-03 0. -1.
        -11    1    3    3    0    0 -0.20066984543E+01 -0.25738360435E+02 -0.28810531056E+02  0.38685097086E+02  0.51100000000E-03 0.  1.
         12    1    3    3    0    0  0.68258856671E+01  0.33717348169E+02  0.24385778047E+02  0.42167741861E+02  0.00000000000E+00 0. -1.
</event>
<event>
 7    1  0.3795708E-015  0.9000770E+02  0.7816164E-02  0.1186339E+00
        -11   -1    0    0    0    0  0.00000000000E+00  0.00000000000E+00  0.45593999997E+02  0.45594000000E+02  0.51100000000E-03 0.  1.
         11   -1    0    0    0    0 -0.00000000000E+00 -0.00000000000E+00 -0.45593999997E+02  0.45594000000E+02  0.51100000000E-03 0. -1.
    9900012    2    1    2    0    0  0.12669593259E+00 -0.63464832632E+00  0.98706082742E+00  0.90007695194E+02  0.89999955971E+02 0.  0.
         12    1    1    2    0    0 -0.12669593259E+00  0.63464832632E+00 -0.98706082742E+00  0.11803048057E+01  0.00000000000E+00 0. -1.
         11    1    3    3    0    0  0.48123890417E+01  0.28535594543E+01 -0.86531313446E+01  0.10304298723E+02  0.51100000000E-03 0. -1.
        -11    1    3    3    0    0  0.34736375398E+02  0.28885157971E+00  0.18155100983E+02  0.39195751083E+02  0.51100000000E-03 0.  1.
         12    1    3    3    0    0 -0.39422068507E+02 -0.37770593603E+01 -0.85149088115E+01  0.40507645388E+02  0.00000000000E+00 0. -1.
</event>
<event>
 7    1  0.3795708E-015  0.9000773E+02  0.7816164E-02  0.1186339E+00
        -11   -1    0    0    0    0  0.00000000000E+00  0.00000000000E+00  0.45593999997E+02  0.45594000000E+02  0.51100000000E-03 0. -1.
         11   -1    0    0    0    0 -0.00000000000E+00 -0.00000000000E+00 -0.45593999997E+02  0.45594000000E+02  0.51100000000E-03 0.  1.
    9900012    2    1    2    0    0  0.67828952433E-01  0.76458886149E-01 -0.11758389359E+01  0.90007727179E+02  0.89999988378E+02 0.  0.
         12    1    1    2    0    0 -0.67828952433E-01 -0.76458886149E-01  0.11758389359E+01  0.11802728206E+01  0.00000000000E+00 0. -1.
         11    1    3    3    0    0 -0.45336192079E+01 -0.64780809756E+01  0.43812958454E+01  0.90396343839E+01  0.51100000000E-03 0. -1.
        -11    1    3    3    0    0 -0.24066292384E+02  0.19927924032E+02 -0.28180875804E+02  0.42076957431E+02  0.51100000000E-03 0.  1.
         12    1    3    3    0    0  0.28667740544E+02 -0.13373384170E+02  0.22623741023E+02  0.38891135364E+02  0.00000000000E+00 0. -1.
</event>
<event>
 7    1  0.3795708E-015  0.9000778E+02  0.7816164E-02  0.1186339E+00
        -11   -1    0    0    0    0  0.00000000000E+00  0.00000000000E+00  0.45593999997E+02  0.45594000000E+02  0.51100000000E-03 0. -1.
         11   -1    0    0    0    0 -0.00000000000E+00 -0.00000000000E+00 -0.45593999997E+02  0.45594000000E+02  0.51100000000E-03 0.  1.
    9900012    2    1    2    0    0  0.43838103523E+00  0.10556220033E+01 -0.29393313636E+00  0.90007782887E+02  0.90000044821E+02 0.  0.
         12    1    1    2    0    0 -0.43838103523E+00 -0.10556220033E+01  0.29393313636E+00  0.11802171133E+01  0.00000000000E+00 0. -1.
         11    1    3    3    0    0 -0.10420548149E+02  0.10912931592E+01 -0.32586546247E+01  0.10972582864E+02  0.51100000000E-03 0. -1.
        -11    1    3    3    0    0 -0.32458371675E+02 -0.10070178677E+02 -0.32455258673E+01  0.34139241772E+02  0.51100000000E-03 0.  1.
         12    1    3    3    0    0  0.43317300860E+02  0.10034507521E+02  0.62102473556E+01  0.44895958250E+02  0.00000000000E+00 0. -1.
</event>
<event>
 7    1  0.3795708E-015  0.9000777E+02  0.7816164E-02  0.1186339E+00
        -11   -1    0    0    0    0  0.00000000000E+00  0.00000000000E+00  0.45593999997E+02  0.45594000000E+02  0.51100000000E-03 0.  1.
         11   -1    0    0    0    0 -0.00000000000E+00 -0.00000000000E+00 -0.45593999997E+02  0.45594000000E+02  0.51100000000E-03 0. -1.
    9900012    2    1    2    0    0 -0.47967190869E+00 -0.16475005742E+00  0.10656944802E+01  0.90007774409E+02  0.90000036231E+02 0.  0.
         12    1    1    2    0    0  0.47967190869E+00  0.16475005742E+00 -0.10656944802E+01  0.11802255914E+01  0.00000000000E+00 0. -1.
         11    1    3    3    0    0  0.49932992246E+01 -0.14847167957E+00  0.94364583000E+01  0.10677163785E+02  0.51100000000E-03 0. -1.
        -11    1    3    3    0    0  0.24093004518E+02  0.10192467516E+02  0.23143973265E+02  0.34928537896E+02  0.51100000000E-03 0.  1.
         12    1    3    3    0    0 -0.29565975651E+02 -0.10208745894E+02 -0.31514737085E+02  0.44402072728E+02  0.00000000000E+00 0. -1.
</event>
<event>
 7    1  0.3795708E-015  0.9000764E+02  0.7816164E-02  0.1186339E+00
        -11   -1    0    0    0    0  0.00000000000E+00  0.00000000000E+00  0.45593999997E+02  0.45594000000E+02  0.51100000000E-03 0.  1.
         11   -1    0    0    0    0 -0.00000000000E+00 -0.00000000000E+00 -0.45593999997E+02  0.45594000000E+02  0.51100000000E-03 0. -1.
    9900012    2    1    2    0    0  0.41329161651E+00  0.34239812074E+00  0.10512884852E+01  0.90007638228E+02  0.89999898253E+02 0.  0.
         12    1    1    2    0    0 -0.41329161651E+00 -0.34239812074E+00 -0.10512884852E+01  0.11803617719E+01  0.00000000000E+00 0. -1.
         11    1    3    3    0    0 -0.23947156110E+02  0.33290421336E+02  0.61176843902E+01  0.41462567467E+02  0.51100000000E-03 0. -1.
        -11    1    3    3    0    0  0.42609736682E+01 -0.32896139928E+01  0.86445752118E+01  0.10183621049E+02  0.51100000000E-03 0.  1.
        -12    1    3    3    0    0  0.20099474058E+02 -0.29658409222E+02 -0.13710971117E+02  0.38361449711E+02  0.00000000000E+00 0.  1.
</event>
<event>
 7    1  0.3795708E-015  0.9000779E+02  0.7816164E-02  0.1186339E+00
        -11   -1    0    0    0    0  0.00000000000E+00  0.00000000000E+00  0.45593999997E+02  0.45594000000E+02  0.51100000000E-03 0. -1.
         11   -1    0    0    0    0 -0.00000000000E+00 -0.00000000000E+00 -0.45593999997E+02  0.45594000000E+02  0.51100000000E-03 0.  1.
    9900012    2    1    2    0    0 -0.12696905441E+00 -0.97081696708E+00 -0.65901474885E+00  0.90007785120E+02  0.90000047083E+02 0.  0.
         12    1    1    2    0    0  0.12696905441E+00  0.97081696708E+00  0.65901474885E+00  0.11802148803E+01  0.00000000000E+00 0. -1.
         11    1    3    3    0    0  0.80077767428E+01  0.45326371936E+01  0.19273801559E+01  0.94012809137E+01  0.51100000000E-03 0. -1.
        -11    1    3    3    0    0 -0.26851636662E+02  0.16156963712E+02  0.25575452874E+02  0.40449495149E+02  0.51100000000E-03 0.  1.
         12    1    3    3    0    0  0.18716890865E+02 -0.21660417873E+02 -0.28161847779E+02  0.40157009057E+02  0.00000000000E+00 0. -1.
</event>
<event>
 7    1  0.3795708E-015  0.9000752E+02  0.7816164E-02  0.1186339E+00
        -11   -1    0    0    0    0  0.00000000000E+00  0.00000000000E+00  0.45593999997E+02  0.45594000000E+02  0.51100000000E-03 0.  1.
         11   -1    0    0    0    0 -0.00000000000E+00 -0.00000000000E+00 -0.45593999997E+02  0.45594000000E+02  0.51100000000E-03 0. -1.
    9900012    2    1    2    0    0 -0.97316108457E+00  0.15297361559E+00  0.65045802523E+00  0.90007517444E+02  0.89999775873E+02 0.  0.
         12    1    1    2    0    0  0.97316108457E+00 -0.15297361559E+00 -0.65045802523E+00  0.11804825565E+01  0.00000000000E+00 0. -1.
         11    1    3    3    0    0 -0.17961682908E+00 -0.93477473701E+01  0.45354785462E+01  0.10391496957E+02  0.51100000000E-03 0. -1.
        -11    1    3    3    0    0  0.38850082770E+02  0.76129057833E+01 -0.50540452415E+01  0.39910257319E+02  0.51100000000E-03 0.  1.
         12    1    3    3    0    0 -0.39643627025E+02  0.18878152024E+01  0.11690247205E+01  0.39705763168E+02  0.00000000000E+00 0. -1.
</event>
<event>
 7    1  0.3795708E-015  0.9000766E+02  0.7816164E-02  0.1186339E+00
        -11   -1    0    0    0    0  0.00000000000E+00  0.00000000000E+00  0.45593999997E+02  0.45594000000E+02  0.51100000000E-03 0.  1.
         11   -1    0    0    0    0 -0.00000000000E+00 -0.00000000000E+00 -0.45593999997E+02  0.45594000000E+02  0.51100000000E-03 0. -1.
    9900012    2    1    2    0    0  0.95007656924E+00 -0.59971619666E+00  0.36179185236E+00  0.90007661765E+02  0.89999922101E+02 0.  0.
         12    1    1    2    0    0 -0.95007656924E+00  0.59971619666E+00 -0.36179185236E+00  0.11803382347E+01  0.00000000000E+00 0. -1.
         11    1    3    3    0    0  0.21876586954E+02 -0.19523840922E+02 -0.10361282526E+02  0.31098578697E+02  0.51100000000E-03 0. -1.
        -11    1    3    3    0    0 -0.27983873908E+01 -0.17238281860E+02  0.27531634692E+01  0.17679627904E+02  0.51100000000E-03 0.  1.
        -12    1    3    3    0    0 -0.18128122994E+02  0.36162406585E+02  0.79699109096E+01  0.41229455165E+02  0.00000000000E+00 0.  1.
</event>
<event>
 7    1  0.3795708E-015  0.9000769E+02  0.7816164E-02  0.1186339E+00
        -11   -1    0    0    0    0  0.00000000000E+00  0.00000000000E+00  0.45593999997E+02  0.45594000000E+02  0.51100000000E-03 0.  1.
         11   -1    0    0    0    0 -0.00000000000E+00 -0.00000000000E+00 -0.45593999997E+02  0.45594000000E+02  0.51100000000E-03 0. -1.
    9900012    2    1    2    0    0  0.22246029369E+00  0.11405970890E+01 -0.20662306658E+00  0.90007685045E+02  0.89999945687E+02 0.  0.
         12    1    1    2    0    0 -0.22246029369E+00 -0.11405970890E+01  0.20662306658E+00  0.11803149552E+01  0.00000000000E+00 0. -1.
         11    1    3    3    0    0  0.92687956533E+01  0.39173473980E+02  0.93522134461E+01  0.41327176690E+02  0.51100000000E-03 0. -1.
        -11    1    3    3    0    0  0.81633631081E+01 -0.33867902942E+01 -0.24954136764E-01  0.88380692859E+01  0.51100000000E-03 0.  1.
        -12    1    3    3    0    0 -0.17209698468E+02 -0.34646086597E+02 -0.95338823759E+01  0.39842439069E+02  0.00000000000E+00 0.  1.
</event>
<event>
 7    1  0.3795708E-015  0.9000789E+02  0.7816164E-02  0.1186339E+00
        -11   -1    0    0    0    0  0.00000000000E+00  0.00000000000E+00  0.45593999997E+02  0.45594000000E+02  0.51100000000E-03 0.  1.
         11   -1    0    0    0    0 -0.00000000000E+00 -0.00000000000E+00 -0.45593999997E+02  0.45594000000E+02  0.51100000000E-03 0. -1.
    9900012    2    1    2    0    0 -0.39471009339E+00 -0.20430990350E+00  0.10932121087E+01  0.90007893518E+02  0.90000156912E+02 0.  0.
         12    1    1    2    0    0  0.39471009339E+00  0.20430990350E+00 -0.10932121087E+01  0.11801064821E+01  0.00000000000E+00 0. -1.
         11    1    3    3    0    0 -0.24918784144E+01  0.65751204027E+01  0.40190345744E+01  0.80990311466E+01  0.51100000000E-03 0. -1.
        -11    1    3    3    0    0  0.27935014033E+01  0.35620938276E+02  0.10816517402E+02  0.37331648004E+02  0.51100000000E-03 0.  1.
         12    1    3    3    0    0 -0.69633308226E+00 -0.42400368582E+02 -0.13742339868E+02  0.44577214367E+02  0.00000000000E+00 0. -1.
</event>
<event>
 7    1  0.3795708E-015  0.9000776E+02  0.7816164E-02  0.1186339E+00
        -11   -1    0    0    0    0  0.00000000000E+00  0.00000000000E+00  0.45593999997E+02  0.45594000000E+02  0.51100000000E-03 0.  1.
         11   -1    0    0    0    0 -0.00000000000E+00 -0.00000000000E+00 -0.45593999997E+02  0.45594000000E+02  0.51100000000E-03 0. -1.
    9900012    2    1    2    0    0  0.47839822419E+00  0.10654804021E+01  0.16985682236E+00  0.90007760750E+02  0.90000022391E+02 0.  0.
         12    1    1    2    0    0 -0.47839822419E+00 -0.10654804021E+01 -0.16985682236E+00  0.11802392505E+01  0.00000000000E+00 0. -1.
         11    1    3    3    0    0  0.80749443772E+01  0.39751392405E+01  0.84091066124E+00  0.90395569404E+01  0.51100000000E-03 0. -1.
        -11    1    3    3    0    0 -0.88082629693E+01 -0.33474487232E+02  0.23622154823E+02  0.41906240475E+02  0.51100000000E-03 0.  1.
         12    1    3    3    0    0  0.12117168162E+01  0.30564828394E+02 -0.24293208662E+02  0.39061963334E+02  0.00000000000E+00 0. -1.
</event>
<event>
 7    1  0.3795708E-015  0.9000773E+02  0.7816164E-02  0.1186339E+00
        -11   -1    0    0    0    0  0.00000000000E+00  0.00000000000E+00  0.45593999997E+02  0.45594000000E+02  0.51100000000E-03 0.  1.
         11   -1    0    0    0    0 -0.00000000000E+00 -0.00000000000E+00 -0.45593999997E+02  0.45594000000E+02  0.51100000000E-03 0. -1.
    9900012    2    1    2    0    0 -0.67160934836E+00  0.61117850338E+00 -0.75395243608E+00  0.90007727762E+02  0.89999988969E+02 0.  0.
         12    1    1    2    0    0  0.67160934836E+00 -0.61117850338E+00  0.75395243608E+00  0.11802722379E+01  0.00000000000E+00 0. -1.
         11    1    3    3    0    0  0.22505211153E+02 -0.49033597563E+01 -0.26758364052E+02  0.35306338141E+02  0.51100000000E-03 0. -1.
        -11    1    3    3    0    0  0.10797545066E+02 -0.36778841543E+01  0.84575652761E+00  0.11438055590E+02  0.51100000000E-03 0.  1.
        -12    1    3    3    0    0 -0.33974365568E+02  0.91924224139E+01  0.25158655089E+02  0.43263334031E+02  0.00000000000E+00 0.  1.
</event>
<event>
 7    1  0.3795708E-015  0.9000773E+02  0.7816164E-02  0.1186339E+00
        -11   -1    0    0    0    0  0.00000000000E+00  0.00000000000E+00  0.45593999997E+02  0.45594000000E+02  0.51100000000E-03 0.  1.
         11   -1    0    0    0    0 -0.00000000000E+00 -0.00000000000E+00 -0.45593999997E+02  0.45594000000E+02  0.51100000000E-03 0. -1.
    9900012    2    1    2    0    0  0.19460914653E+00  0.85088866875E+00  0.79444480260E+00  0.90007734441E+02  0.89999995735E+02 0.  0.
         12    1    1    2    0    0 -0.19460914653E+00 -0.85088866875E+00 -0.79444480260E+00  0.11802655595E+01  0.00000000000E+00 0. -1.
         11    1    3    3    0    0 -0.32880517959E+02  0.51167342583E+01 -0.41527196752E+01  0.33534378057E+02  0.51100000000E-03 0. -1.
        -11    1    3    3    0    0 -0.11270202331E+02  0.14010654964E+01 -0.87144288550E+00  0.11390340560E+02  0.51100000000E-03 0.  1.
        -12    1    3    3    0    0  0.44345329436E+02 -0.56669110860E+01  0.58186073633E+01  0.45083015823E+02  0.00000000000E+00 0.  1.
</event>
<event>
 7    1  0.3795708E-015  0.9000772E+02  0.7816164E-02  0.1186339E+00
        -11   -1    0    0    0    0  0.00000000000E+00  0.00000000000E+00  0.45593999997E+02  0.45594000000E+02  0.51100000000E-03 0. -1.
         11   -1    0    0    0    0 -0.00000000000E+00 -0.00000000000E+00 -0.45593999997E+02  0.45594000000E+02  0.51100000000E-03 0.  1.
    9900012    2    1    2    0    0  0.96940146622E+00  0.67056833232E+00 -0.60470168644E-01  0.90007721333E+02  0.89999982454E+02 0.  0.
         12    1    1    2    0    0 -0.96940146622E+00 -0.67056833232E+00  0.60470168644E-01  0.11802786672E+01  0.00000000000E+00 0. -1.
         11    1    3    3    0    0  0.49065079225E+01  0.13420559877E+02  0.10591147112E+02  0.17786445536E+02  0.51100000000E-03 0. -1.
        -11    1    3    3    0    0 -0.25067835657E+02 -0.73134076131E+01  0.21184870362E+02  0.33625601080E+02  0.51100000000E-03 0.  1.
         12    1    3    3    0    0  0.21130729201E+02 -0.54365839313E+01 -0.31836487643E+02  0.38595674717E+02  0.00000000000E+00 0. -1.
</event>
<event>
 7    1  0.3795708E-015  0.9000771E+02  0.7816164E-02  0.1186339E+00
        -11   -1    0    0    0    0  0.00000000000E+00  0.00000000000E+00  0.45593999997E+02  0.45594000000E+02  0.51100000000E-03 0.  1.
         11   -1    0    0    0    0 -0.00000000000E+00 -0.00000000000E+00 -0.45593999997E+02  0.45594000000E+02  0.51100000000E-03 0. -1.
    9900012    2    1    2    0    0  0.16203582513E+00  0.69449730632E+00 -0.94047549153E+00  0.90007713481E+02  0.89999974499E+02 0.  0.
         12    1    1    2    0    0 -0.16203582513E+00 -0.69449730632E+00  0.94047549153E+00  0.11802865191E+01  0.00000000000E+00 0. -1.
         11    1    3    3    0    0 -0.24216085447E+01  0.17608743029E+02 -0.19905853358E+01  0.17885593343E+02  0.51100000000E-03 0. -1.
        -11    1    3    3    0    0 -0.76964662073E+01  0.25419206486E+02  0.85842333541E+01  0.27911659087E+02  0.51100000000E-03 0.  1.
         12    1    3    3    0    0  0.10280110577E+02 -0.42333452208E+02 -0.75341235098E+01  0.44210461051E+02  0.00000000000E+00 0. -1.
</event>
<event>
 7    1  0.3795708E-015  0.9000773E+02  0.7816164E-02  0.1186339E+00
        -11   -1    0    0    0    0  0.00000000000E+00  0.00000000000E+00  0.45593999997E+02  0.45594000000E+02  0.51100000000E-03 0.  1.
         11   -1    0    0    0    0 -0.00000000000E+00 -0.00000000000E+00 -0.45593999997E+02  0.45594000000E+02  0.51100000000E-03 0. -1.
    9900012    2    1    2    0    0  0.52392354372E+00 -0.87842356850E+00  0.58899372285E+00  0.90007729925E+02  0.89999991160E+02 0.  0.
         12    1    1    2    0    0 -0.52392354372E+00  0.87842356850E+00 -0.58899372285E+00  0.11802700754E+01  0.00000000000E+00 0. -1.
         11    1    3    3    0    0 -0.65275325882E+01 -0.31336970398E+02 -0.19031482546E+02  0.37239921100E+02  0.51100000000E-03 0. -1.
        -11    1    3    3    0    0 -0.14020512922E+01 -0.86012793406E+01  0.13251129389E+01  0.88149690120E+01  0.51100000000E-03 0.  1.
        -12    1    3    3    0    0  0.84535074242E+01  0.39059826170E+02  0.18295363330E+02  0.43952839812E+02  0.00000000000E+00 0.  1.
</event>
<event>
 7    1  0.3795708E-015  0.9000772E+02  0.7816164E-02  0.1186339E+00
        -11   -1    0    0    0    0  0.00000000000E+00  0.00000000000E+00  0.45593999997E+02  0.45594000000E+02  0.51100000000E-03 0. -1.
         11   -1    0    0    0    0 -0.00000000000E+00 -0.00000000000E+00 -0.45593999997E+02  0.45594000000E+02  0.51100000000E-03 0.  1.
    9900012    2    1    2    0    0  0.74121390047E+00 -0.91096999092E+00 -0.11741319785E+00  0.90007724511E+02  0.89999985675E+02 0.  0.
         12    1    1    2    0    0 -0.74121390047E+00  0.91096999092E+00  0.11741319785E+00  0.11802754889E+01  0.00000000000E+00 0. -1.
         11    1    3    3    0    0  0.11334960075E+01  0.43861190993E+01  0.30575404397E+02  0.30909192941E+02  0.51100000000E-03 0. -1.
        -11    1    3    3    0    0  0.22116007099E+02 -0.12152065791E+02 -0.81624630599E+01  0.26521996088E+02  0.51100000000E-03 0.  1.
         12    1    3    3    0    0 -0.22508289206E+02  0.68549767012E+01 -0.22530354535E+02  0.32576535482E+02  0.00000000000E+00 0. -1.
</event>
<event>
 7    1  0.3795708E-015  0.9000779E+02  0.7816164E-02  0.1186339E+00
        -11   -1    0    0    0    0  0.00000000000E+00  0.00000000000E+00  0.45593999997E+02  0.45594000000E+02  0.51100000000E-03 0.  1.
         11   -1    0    0    0    0 -0.00000000000E+00 -0.00000000000E+00 -0.45593999997E+02  0.45594000000E+02  0.51100000000E-03 0. -1.
    9900012    2    1    2    0    0  0.15891642822E+00 -0.11049547580E+01  0.38305076351E+00  0.90007785047E+02  0.90000047009E+02 0.  0.
         12    1    1    2    0    0 -0.15891642822E+00  0.11049547580E+01 -0.38305076351E+00  0.11802149532E+01  0.00000000000E+00 0. -1.
         11    1    3    3    0    0  0.18075029914E+02 -0.19734473700E+02 -0.28844327375E+02  0.39346554876E+02  0.51100000000E-03 0. -1.
        -11    1    3    3    0    0 -0.46801950863E+00 -0.55539178820E+01 -0.33445675302E+01  0.65000906398E+01  0.51100000000E-03 0.  1.
        -12    1    3    3    0    0 -0.17448093977E+02  0.24183436824E+02  0.32571945669E+02  0.44161139531E+02  0.00000000000E+00 0.  1.
</event>
<event>
 7    1  0.3795708E-015  0.9000777E+02  0.7816164E-02  0.1186339E+00
        -11   -1    0    0    0    0  0.00000000000E+00  0.00000000000E+00  0.45593999997E+02  0.45594000000E+02  0.51100000000E-03 0.  1.
         11   -1    0    0    0    0 -0.00000000000E+00 -0.00000000000E+00 -0.45593999997E+02  0.45594000000E+02  0.51100000000E-03 0. -1.
    9900012    2    1    2    0    0 -0.88976588365E-01 -0.11608929252E+01  0.19325872554E+00  0.90007771991E+02  0.90000033782E+02 0.  0.
         12    1    1    2    0    0  0.88976588365E-01  0.11608929252E+01 -0.19325872554E+00  0.11802280085E+01  0.00000000000E+00 0. -1.
         11    1    3    3    0    0  0.61907392407E+01  0.12505481894E+01 -0.40370987668E+02  0.40862033340E+02  0.51100000000E-03 0. -1.
        -11    1    3    3    0    0  0.87335748459E+01  0.30139670653E+01  0.58457587267E+01  0.10933079274E+02  0.51100000000E-03 0.  1.
        -12    1    3    3    0    0 -0.15013290675E+02 -0.54254081800E+01  0.34718487667E+02  0.38212659377E+02  0.00000000000E+00 0.  1.
</event>
<event>
 7    1  0.3795708E-015  0.9000770E+02  0.7816164E-02  0.1186339E+00
        -11   -1    0    0    0    0  0.00000000000E+00  0.00000000000E+00  0.45593999997E+02  0.45594000000E+02  0.51100000000E-03 0. -1.
         11   -1    0    0    0    0 -0.00000000000E+00 -0.00000000000E+00 -0.45593999997E+02  0.45594000000E+02  0.51100000000E-03 0.  1.
    9900012    2    1    2    0    0  0.52683453577E+00  0.54072225990E+00 -0.90728995554E+00  0.90007699083E+02  0.89999959911E+02 0.  0.
         12    1    1    2    0    0 -0.52683453577E+00 -0.54072225990E+00  0.90728995554E+00  0.11803009167E+01  0.00000000000E+00 0. -1.
         11    1    3    3    0    0  0.49342814273E+01 -0.11609866046E+02 -0.25715641218E+01  0.12874356881E+02  0.51100000000E-03 0. -1.
        -11    1    3    3    0    0  0.21375434891E+01  0.26703464109E-01 -0.36497789123E+02  0.36560339390E+02  0.51100000000E-03 0.  1.
         12    1    3    3    0    0 -0.65449903806E+01  0.12123884842E+02  0.38162063289E+02  0.40573002812E+02  0.00000000000E+00 0. -1.
</event>
<event>
 7    1  0.3795708E-015  0.9000778E+02  0.7816164E-02  0.1186339E+00
        -11   -1    0    0    0    0  0.00000000000E+00  0.00000000000E+00  0.45593999997E+02  0.45594000000E+02  0.51100000000E-03 0.  1.
         11   -1    0    0    0    0 -0.00000000000E+00 -0.00000000000E+00 -0.45593999997E+02  0.45594000000E+02  0.51100000000E-03 0. -1.
    9900012    2    1    2    0    0  0.83828865144E+00 -0.55417239109E+00  0.61892983759E+00  0.90007784322E+02  0.90000046275E+02 0.  0.
         12    1    1    2    0    0 -0.83828865144E+00  0.55417239109E+00 -0.61892983759E+00  0.11802156778E+01  0.00000000000E+00 0. -1.
         11    1    3    3    0    0 -0.22723258067E+02 -0.12054790181E+02 -0.68126646086E+01  0.26609712942E+02  0.51100000000E-03 0. -1.
        -11    1    3    3    0    0  0.10653089820E+02 -0.22921418597E+02 -0.22667695156E+01  0.25377509680E+02  0.51100000000E-03 0.  1.
        -12    1    3    3    0    0  0.12908456898E+02  0.34422036387E+02  0.96983639617E+01  0.38020561701E+02  0.00000000000E+00 0.  1.
</event>
<event>
 7    1  0.4300415E-015  0.9000776E+02  0.7816164E-02  0.1186339E+00
        -11   -1    0    0    0    0  0.00000000000E+00  0.00000000000E+00  0.45593999997E+02  0.45594000000E+02  0.51100000000E-03 0. -1.
         11   -1    0    0    0    0 -0.00000000000E+00 -0.00000000000E+00 -0.45593999997E+02  0.45594000000E+02  0.51100000000E-03 0.  1.
    9900012    2    1    2    0    0 -0.40536169439E+00 -0.45715836043E-01 -0.11075051551E+01  0.90007756080E+02  0.90000017661E+02 0.  0.
         12    1    1    2    0    0  0.40536169439E+00  0.45715836043E-01  0.11075051551E+01  0.11802439195E+01  0.00000000000E+00 0. -1.
         11    1    3    3    0    0 -0.65925690565E+01  0.93954645718E+01  0.35462897502E+02  0.37274036819E+02  0.51100000000E-03 0. -1.
        -11    1    3    3    0    0  0.82781945828E+01 -0.23905482179E+01  0.53703909398E+01  0.10153045131E+02  0.51100000000E-03 0.  1.
        -12    1    3    3    0    0 -0.20909872207E+01 -0.70506321899E+01 -0.41940793597E+02  0.42580674130E+02  0.00000000000E+00 0.  1.
</event>
<event>
 7    1  0.3795708E-015  0.9000773E+02  0.7816164E-02  0.1186339E+00
        -11   -1    0    0    0    0  0.00000000000E+00  0.00000000000E+00  0.45593999997E+02  0.45594000000E+02  0.51100000000E-03 0.  1.
         11   -1    0    0    0    0 -0.00000000000E+00 -0.00000000000E+00 -0.45593999997E+02  0.45594000000E+02  0.51100000000E-03 0. -1.
    9900012    2    1    2    0    0 -0.16874655653E+00 -0.78879791953E+00  0.86160208444E+00  0.90007730662E+02  0.89999991907E+02 0.  0.
         12    1    1    2    0    0  0.16874655653E+00  0.78879791953E+00 -0.86160208444E+00  0.11802693380E+01  0.00000000000E+00 0. -1.
         11    1    3    3    0    0  0.15782384917E+01  0.49839491775E+01 -0.89388985913E+01  0.10355408945E+02  0.51100000000E-03 0. -1.
        -11    1    3    3    0    0 -0.33444984295E+02 -0.25191175323E+02  0.55503625008E+01  0.42237054973E+02  0.51100000000E-03 0.  1.
         12    1    3    3    0    0  0.31697999246E+02  0.19418428226E+02  0.42501381750E+01  0.37415266744E+02  0.00000000000E+00 0. -1.
</event>
<event>
 7    1  0.3795708E-015  0.9000781E+02  0.7816164E-02  0.1186339E+00
        -11   -1    0    0    0    0  0.00000000000E+00  0.00000000000E+00  0.45593999997E+02  0.45594000000E+02  0.51100000000E-03 0. -1.
         11   -1    0    0    0    0 -0.00000000000E+00 -0.00000000000E+00 -0.45593999997E+02  0.45594000000E+02  0.51100000000E-03 0.  1.
    9900012    2    1    2    0    0  0.80098126622E+00 -0.60181605480E+00 -0.62377748544E+00  0.90007808531E+02  0.90000070803E+02 0.  0.
         12    1    1    2    0    0 -0.80098126622E+00  0.60181605480E+00  0.62377748544E+00  0.11801914692E+01  0.00000000000E+00 0. -1.
         11    1    3    3    0    0 -0.84973065509E+01  0.33390192279E+02  0.65281331488E+01  0.35067444756E+02  0.51100000000E-03 0. -1.
        -11    1    3    3    0    0 -0.19980523400E+01  0.93953276471E+01 -0.52839800655E+00  0.96199583921E+01  0.51100000000E-03 0.  1.
        -12    1    3    3    0    0  0.11296340157E+02 -0.43387335981E+02 -0.66235126277E+01  0.45320405382E+02  0.00000000000E+00 0.  1.
</event>
<event>
 7    1  0.3795708E-015  0.9000772E+02  0.7816164E-02  0.1186339E+00
        -11   -1    0    0    0    0  0.00000000000E+00  0.00000000000E+00  0.45593999997E+02  0.45594000000E+02  0.51100000000E-03 0.  1.
         11   -1    0    0    0    0 -0.00000000000E+00 -0.00000000000E+00 -0.45593999997E+02  0.45594000000E+02  0.51100000000E-03 0. -1.
    9900012    2    1    2    0    0 -0.29500299731E+00  0.11353978699E+01 -0.12999557640E+00  0.90007722939E+02  0.89999984082E+02 0.  0.
         12    1    1    2    0    0  0.29500299731E+00 -0.11353978699E+01  0.12999557640E+00  0.11802770612E+01  0.00000000000E+00 0. -1.
         11    1    3    3    0    0 -0.23415333985E+02  0.12369988079E+01 -0.36655899034E+02  0.43513939904E+02  0.51100000000E-03 0. -1.
        -11    1    3    3    0    0 -0.43146219989E+00  0.44110305163E+01  0.86748521447E+01  0.97414788322E+01  0.51100000000E-03 0.  1.
        -12    1    3    3    0    0  0.23551793187E+02 -0.45126314543E+01  0.27851051313E+02  0.36752304203E+02  0.00000000000E+00 0.  1.
</event>
<event>
 7    1  0.3795708E-015  0.9000769E+02  0.7816164E-02  0.1186339E+00
        -11   -1    0    0    0    0  0.00000000000E+00  0.00000000000E+00  0.45593999997E+02  0.45594000000E+02  0.51100000000E-03 0. -1.
         11   -1    0    0    0    0 -0.00000000000E+00 -0.00000000000E+00 -0.45593999997E+02  0.45594000000E+02  0.51100000000E-03 0.  1.
    9900012    2    1    2    0    0 -0.77103467532E+00  0.89298688635E+00  0.34779919318E-01  0.90007690849E+02  0.89999951568E+02 0.  0.
         12    1    1    2    0    0  0.77103467532E+00 -0.89298688635E+00 -0.34779919318E-01  0.11803091512E+01  0.00000000000E+00 0. -1.
         11    1    3    3    0    0  0.60183658737E+01 -0.49058658949E+01 -0.33866205314E+01  0.84709767355E+01  0.51100000000E-03 0. -1.
        -11    1    3    3    0    0  0.13779828797E+02 -0.28004478544E+02 -0.18518680875E+02  0.36291542291E+02  0.51100000000E-03 0.  1.
         12    1    3    3    0    0 -0.20569229346E+02  0.33803331326E+02  0.21940081326E+02  0.45245171822E+02  0.00000000000E+00 0. -1.
</event>
<event>
 7    1  0.3795708E-015  0.9000773E+02  0.7816164E-02  0.1186339E+00
        -11   -1    0    0    0    0  0.00000000000E+00  0.00000000000E+00  0.45593999997E+02  0.45594000000E+02  0.51100000000E-03 0. -1.
         11   -1    0    0    0    0 -0.00000000000E+00 -0.00000000000E+00 -0.45593999997E+02  0.45594000000E+02  0.51100000000E-03 0.  1.
    9900012    2    1    2    0    0 -0.68371530971E+00 -0.87093764134E+00 -0.40870313901E+00  0.90007730007E+02  0.89999991243E+02 0.  0.
         12    1    1    2    0    0  0.68371530971E+00  0.87093764134E+00  0.40870313901E+00  0.11802699927E+01  0.00000000000E+00 0. -1.
         11    1    3    3    0    0 -0.60255773306E+01 -0.16305293352E+00 -0.65439997348E+01  0.88970838603E+01  0.51100000000E-03 0. -1.
        -11    1    3    3    0    0 -0.16149297401E+02  0.13810334599E+02 -0.29919060442E+02  0.36697075174E+02  0.51100000000E-03 0.  1.
         12    1    3    3    0    0  0.21491159422E+02 -0.14518219307E+02  0.36054357038E+02  0.44413570973E+02  0.00000000000E+00 0. -1.
</event>
<event>
 7    1  0.5416256E-015  0.9000771E+02  0.7816164E-02  0.1186339E+00
        -11   -1    0    0    0    0  0.00000000000E+00  0.00000000000E+00  0.45593999997E+02  0.45594000000E+02  0.51100000000E-03 0.  1.
         11   -1    0    0    0    0 -0.00000000000E+00 -0.00000000000E+00 -0.45593999997E+02  0.45594000000E+02  0.51100000000E-03 0. -1.
    9900012    2    1    2    0    0 -0.79506223363E+00 -0.19197830597E+00  0.85094290451E+00  0.90007710437E+02  0.89999971415E+02 0.  0.
         12    1    1    2    0    0  0.79506223363E+00  0.19197830597E+00 -0.85094290451E+00  0.11802895628E+01  0.00000000000E+00 0. -1.
         11    1    3    3    0    0  0.11634346007E+02  0.10581059830E+02 -0.34603678079E+02  0.38009622084E+02  0.51100000000E-03 0. -1.
        -11    1    3    3    0    0  0.28737315477E+00 -0.71360674407E+01 -0.54656463275E+01  0.89932937174E+01  0.51100000000E-03 0.  1.
        -12    1    3    3    0    0 -0.12716781395E+02 -0.36369706956E+01  0.40920267311E+02  0.43004794636E+02  0.00000000000E+00 0.  1.
</event>
<event>
 7    1  0.3795708E-015  0.9000761E+02  0.7816164E-02  0.1186339E+00
        -11   -1    0    0    0    0  0.00000000000E+00  0.00000000000E+00  0.45593999997E+02  0.45594000000E+02  0.51100000000E-03 0.  1.
         11   -1    0    0    0    0 -0.00000000000E+00 -0.00000000000E+00 -0.45593999997E+02  0.45594000000E+02  0.51100000000E-03 0. -1.
    9900012    2    1    2    0    0  0.95507361314E+00 -0.13989362729E+00  0.67939605112E+00  0.90007612425E+02  0.89999872109E+02 0.  0.
         12    1    1    2    0    0 -0.95507361314E+00  0.13989362729E+00 -0.67939605112E+00  0.11803875752E+01  0.00000000000E+00 0. -1.
         11    1    3    3    0    0  0.15775748129E+01 -0.88140313626E+01  0.74567828738E+01  0.11652446191E+02  0.51100000000E-03 0. -1.
        -11    1    3    3    0    0  0.31178969906E+01 -0.13544248298E+02  0.31223410252E+02  0.34177028712E+02  0.51100000000E-03 0.  1.
         12    1    3    3    0    0 -0.37403981904E+01  0.22218386033E+02 -0.38000797074E+02  0.44178137521E+02  0.00000000000E+00 0. -1.
</event>
<event>
 7    1  0.3795708E-015  0.9000764E+02  0.7816164E-02  0.1186339E+00
        -11   -1    0    0    0    0  0.00000000000E+00  0.00000000000E+00  0.45593999997E+02  0.45594000000E+02  0.51100000000E-03 0.  1.
         11   -1    0    0    0    0 -0.00000000000E+00 -0.00000000000E+00 -0.45593999997E+02  0.45594000000E+02  0.51100000000E-03 0. -1.
    9900012    2    1    2    0    0  0.10810014593E+01  0.44635254309E+00 -0.15957322975E+00  0.90007636343E+02  0.89999896342E+02 0.  0.
         12    1    1    2    0    0 -0.10810014593E+01 -0.44635254309E+00  0.15957322975E+00  0.11803636572E+01  0.00000000000E+00 0. -1.
         11    1    3    3    0    0  0.26466972758E+02 -0.13335480090E+01 -0.35247586341E+02  0.44098427868E+02  0.51100000000E-03 0. -1.
        -11    1    3    3    0    0 -0.12279179957E+01 -0.55299218361E+00 -0.14919935430E+01  0.20098825719E+01  0.51100000000E-03 0.  1.
        -12    1    3    3    0    0 -0.24158053303E+02  0.23328927357E+01  0.36580006655E+02  0.43899325903E+02  0.00000000000E+00 0.  1.
</event>
<event>
 7    1  0.3795708E-015  0.9000765E+02  0.7816164E-02  0.1186339E+00
        -11   -1    0    0    0    0  0.00000000000E+00  0.00000000000E+00  0.45593999997E+02  0.45594000000E+02  0.51100000000E-03 0.  1.
         11   -1    0    0    0    0 -0.00000000000E+00 -0.00000000000E+00 -0.45593999997E+02  0.45594000000E+02  0.51100000000E-03 0. -1.
    9900012    2    1    2    0    0 -0.67255201702E+00  0.61987119893E+00  0.74609209747E+00  0.90007652620E+02  0.89999912835E+02 0.  0.
         12    1    1    2    0    0  0.67255201702E+00 -0.61987119893E+00 -0.74609209747E+00  0.11803473797E+01  0.00000000000E+00 0. -1.
         11    1    3    3    0    0 -0.25435050497E+01  0.42795210935E+01  0.47273379562E+01  0.68652343835E+01  0.51100000000E-03 0. -1.
        -11    1    3    3    0    0 -0.12931737518E+02  0.19995364195E+01  0.36977598988E+02  0.39224619926E+02  0.51100000000E-03 0.  1.
         12    1    3    3    0    0  0.14802690550E+02 -0.56591863141E+01 -0.40958844847E+02  0.43917798311E+02  0.00000000000E+00 0. -1.
</event>
<event>
 7    1  0.3795708E-015  0.9000776E+02  0.7816164E-02  0.1186339E+00
        -11   -1    0    0    0    0  0.00000000000E+00  0.00000000000E+00  0.45593999997E+02  0.45594000000E+02  0.51100000000E-03 0.  1.
         11   -1    0    0    0    0 -0.00000000000E+00 -0.00000000000E+00 -0.45593999997E+02  0.45594000000E+02  0.51100000000E-03 0. -1.
    9900012    2    1    2    0    0 -0.25914049899E+00 -0.11494067577E+01 -0.68392077080E-01  0.90007759699E+02  0.90000021327E+02 0.  0.
         12    1    1    2    0    0  0.25914049899E+00  0.11494067577E+01  0.68392077080E-01  0.11802403014E+01  0.00000000000E+00 0. -1.
         11    1    3    3    0    0 -0.29336008422E+02  0.21081255371E+02 -0.68857467456E+01  0.36775456851E+02  0.51100000000E-03 0. -1.
        -11    1    3    3    0    0 -0.32128407151E+01  0.61632732444E+01  0.75044836219E+01  0.10228663512E+02  0.51100000000E-03 0.  1.
        -12    1    3    3    0    0  0.32289708638E+02 -0.28393935373E+02 -0.68712895342E+00  0.43003639335E+02  0.00000000000E+00 0.  1.
</event>
<event>
 7    1  0.3795708E-015  0.9000758E+02  0.7816164E-02  0.1186339E+00
        -11   -1    0    0    0    0  0.00000000000E+00  0.00000000000E+00  0.45593999997E+02  0.45594000000E+02  0.51100000000E-03 0.  1.
         11   -1    0    0    0    0 -0.00000000000E+00 -0.00000000000E+00 -0.45593999997E+02  0.45594000000E+02  0.51100000000E-03 0. -1.
    9900012    2    1    2    0    0 -0.21289405439E-01  0.10934973398E+01 -0.44408528615E+00  0.90007575749E+02  0.89999834949E+02 0.  0.
         12    1    1    2    0    0  0.21289405439E-01 -0.10934973398E+01  0.44408528615E+00  0.11804242510E+01  0.00000000000E+00 0. -1.
         11    1    3    3    0    0  0.92564713432E+01 -0.18283796842E+01  0.58632264934E+01  0.11108674951E+02  0.51100000000E-03 0. -1.
        -11    1    3    3    0    0 -0.65165423217E+01  0.37203543447E+02  0.12392778075E+02  0.39751099576E+02  0.51100000000E-03 0.  1.
         12    1    3    3    0    0 -0.27612184270E+01 -0.34281666423E+02 -0.18700089854E+02  0.39147801222E+02  0.00000000000E+00 0. -1.
</event>
<event>
 7    1  0.3795708E-015  0.9000777E+02  0.7816164E-02  0.1186339E+00
        -11   -1    0    0    0    0  0.00000000000E+00  0.00000000000E+00  0.45593999997E+02  0.45594000000E+02  0.51100000000E-03 0.  1.
         11   -1    0    0    0    0 -0.00000000000E+00 -0.00000000000E+00 -0.45593999997E+02  0.45594000000E+02  0.51100000000E-03 0. -1.
    9900012    2    1    2    0    0  0.96515028954E-01  0.10707378060E+01  0.48697519139E+00  0.90007771447E+02  0.90000033230E+02 0.  0.
         12    1    1    2    0    0 -0.96515028954E-01 -0.10707378060E+01 -0.48697519139E+00  0.11802285529E+01  0.00000000000E+00 0. -1.
         11    1    3    3    0    0  0.37119236993E+02 -0.96079163418E+01 -0.38972139065E+01  0.38540084170E+02  0.51100000000E-03 0. -1.
        -11    1    3    3    0    0  0.12427347204E+01  0.12891309511E+02  0.10495757377E+01  0.12993531467E+02  0.51100000000E-03 0.  1.
        -12    1    3    3    0    0 -0.38265456684E+02 -0.22126553632E+01  0.33346133602E+01  0.38474155810E+02  0.00000000000E+00 0.  1.
</event>
<event>
 7    1  0.3795708E-015  0.9000763E+02  0.7816164E-02  0.1186339E+00
        -11   -1    0    0    0    0  0.00000000000E+00  0.00000000000E+00  0.45593999997E+02  0.45594000000E+02  0.51100000000E-03 0.  1.
         11   -1    0    0    0    0 -0.00000000000E+00 -0.00000000000E+00 -0.45593999997E+02  0.45594000000E+02  0.51100000000E-03 0. -1.
    9900012    2    1    2    0    0 -0.97931307431E+00 -0.57530930645E+00 -0.32132507979E+00  0.90007625186E+02  0.89999885038E+02 0.  0.
         12    1    1    2    0    0  0.97931307431E+00  0.57530930645E+00  0.32132507979E+00  0.11803748144E+01  0.00000000000E+00 0. -1.
         11    1    3    3    0    0  0.12364773801E+01  0.24406684398E+01  0.76708651138E+01  0.81441949019E+01  0.51100000000E-03 0. -1.
        -11    1    3    3    0    0 -0.22635739422E+02  0.21014470665E+02  0.22331907410E+02  0.38114285581E+02  0.51100000000E-03 0.  1.
         12    1    3    3    0    0  0.20419948968E+02 -0.24030448412E+02 -0.30324097604E+02  0.43749144702E+02  0.00000000000E+00 0. -1.
</event>
<event>
 7    1  0.3795708E-015  0.9000776E+02  0.7816164E-02  0.1186339E+00
        -11   -1    0    0    0    0  0.00000000000E+00  0.00000000000E+00  0.45593999997E+02  0.45594000000E+02  0.51100000000E-03 0. -1.
         11   -1    0    0    0    0 -0.00000000000E+00 -0.00000000000E+00 -0.45593999997E+02  0.45594000000E+02  0.51100000000E-03 0.  1.
    9900012    2    1    2    0    0 -0.11011261384E+01 -0.42474693995E+00  0.90935534897E-02  0.90007757894E+02  0.90000019498E+02 0.  0.
         12    1    1    2    0    0  0.11011261384E+01  0.42474693995E+00 -0.90935534897E-02  0.11802421058E+01  0.00000000000E+00 0. -1.
         11    1    3    3    0    0 -0.35465149404E+01 -0.88106653118E+01 -0.30773563279E+01  0.99837725179E+01  0.51100000000E-03 0. -1.
        -11    1    3    3    0    0 -0.15332707225E+02  0.75807294407E+01 -0.34461136102E+02  0.38472448212E+02  0.51100000000E-03 0.  1.
         12    1    3    3    0    0  0.17778096027E+02  0.80518893114E+00  0.37547585984E+02  0.41551537165E+02  0.00000000000E+00 0. -1.
</event>
<event>
 7    1  0.3795708E-015  0.9000768E+02  0.7816164E-02  0.1186339E+00
        -11   -1    0    0    0    0  0.00000000000E+00  0.00000000000E+00  0.45593999997E+02  0.45594000000E+02  0.51100000000E-03 0.  1.
         11   -1    0    0    0    0 -0.00000000000E+00 -0.00000000000E+00 -0.45593999997E+02  0.45594000000E+02  0.51100000000E-03 0. -1.
    9900012    2    1    2    0    0 -0.40126715549E+00 -0.86607333757E+00  0.69430097990E+00  0.90007681311E+02  0.89999941905E+02 0.  0.
         12    1    1    2    0    0  0.40126715549E+00  0.86607333757E+00 -0.69430097990E+00  0.11803186887E+01  0.00000000000E+00 0. -1.
         11    1    3    3    0    0  0.63982188068E+01  0.64413477446E+01  0.54089526010E+01  0.10568109252E+02  0.51100000000E-03 0. -1.
        -11    1    3    3    0    0 -0.89160238579E+00 -0.33993433875E+02  0.22574767558E+02  0.40816279007E+02  0.51100000000E-03 0.  1.
         12    1    3    3    0    0 -0.59078835765E+01  0.26686012792E+02 -0.27289419179E+02  0.38623293052E+02  0.00000000000E+00 0. -1.
</event>
<event>
 7    1  0.3795708E-015  0.9000763E+02  0.7816164E-02  0.1186339E+00
        -11   -1    0    0    0    0  0.00000000000E+00  0.00000000000E+00  0.45593999997E+02  0.45594000000E+02  0.51100000000E-03 0.  1.
         11   -1    0    0    0    0 -0.00000000000E+00 -0.00000000000E+00 -0.45593999997E+02  0.45594000000E+02  0.51100000000E-03 0. -1.
    9900012    2    1    2    0    0 -0.10067278661E+01 -0.51720731657E+00 -0.33505581983E+00  0.90007632766E+02  0.89999892718E+02 0.  0.
         12    1    1    2    0    0  0.10067278661E+01  0.51720731657E+00  0.33505581983E+00  0.11803672340E+01  0.00000000000E+00 0. -1.
         11    1    3    3    0    0 -0.19012348498E+02 -0.28138032461E+02  0.14478854204E+02  0.36916872641E+02  0.51100000000E-03 0. -1.
        -11    1    3    3    0    0 -0.35217051500E+01 -0.13036778800E+00  0.96599904383E+01  0.10282743722E+02  0.51100000000E-03 0.  1.
        -12    1    3    3    0    0  0.21527325782E+02  0.27751192933E+02 -0.24473900463E+02  0.42808016403E+02  0.00000000000E+00 0.  1.
</event>
<event>
 7    1  0.3795708E-015  0.9000773E+02  0.7816164E-02  0.1186339E+00
        -11   -1    0    0    0    0  0.00000000000E+00  0.00000000000E+00  0.45593999997E+02  0.45594000000E+02  0.51100000000E-03 0.  1.
         11   -1    0    0    0    0 -0.00000000000E+00 -0.00000000000E+00 -0.45593999997E+02  0.45594000000E+02  0.51100000000E-03 0. -1.
    9900012    2    1    2    0    0 -0.50726294630E+00  0.10569727331E+01  0.13616440297E+00  0.90007725540E+02  0.89999986718E+02 0.  0.
         12    1    1    2    0    0  0.50726294630E+00 -0.10569727331E+01 -0.13616440297E+00  0.11802744595E+01  0.00000000000E+00 0. -1.
         11    1    3    3    0    0  0.73145442208E+01  0.43351508482E+01 -0.35845981440E+01  0.92274283606E+01  0.51100000000E-03 0. -1.
        -11    1    3    3    0    0  0.19094896699E+02  0.19997452641E+02  0.26687069769E+02  0.38428022135E+02  0.51100000000E-03 0.  1.
         12    1    3    3    0    0 -0.26916703866E+02 -0.23275630756E+02 -0.22966307222E+02  0.42352275045E+02  0.00000000000E+00 0. -1.
</event>
<event>
 7    1  0.3795708E-015  0.9000769E+02  0.7816164E-02  0.1186339E+00
        -11   -1    0    0    0    0  0.00000000000E+00  0.00000000000E+00  0.45593999997E+02  0.45594000000E+02  0.51100000000E-03 0. -1.
         11   -1    0    0    0    0 -0.00000000000E+00 -0.00000000000E+00 -0.45593999997E+02  0.45594000000E+02  0.51100000000E-03 0.  1.
    9900012    2    1    2    0    0 -0.31808928553E+00 -0.11187601146E+01  0.20079495636E+00  0.90007693429E+02  0.89999954182E+02 0.  0.
         12    1    1    2    0    0  0.31808928553E+00  0.11187601146E+01 -0.20079495636E+00  0.11803065712E+01  0.00000000000E+00 0. -1.
         11    1    3    3    0    0  0.45500322225E+01  0.25111594001E+02  0.31734692707E+02  0.40723281645E+02  0.51100000000E-03 0. -1.
        -11    1    3    3    0    0 -0.89254292025E+01 -0.83332078142E+00 -0.49967889103E+00  0.89781617956E+01  0.51100000000E-03 0.  1.
        -12    1    3    3    0    0  0.40573076945E+01 -0.25397033334E+02 -0.31034218859E+02  0.40306249988E+02  0.00000000000E+00 0.  1.
</event>
<event>
 7    1  0.3795708E-015  0.9000772E+02  0.7816164E-02  0.1186339E+00
        -11   -1    0    0    0    0  0.00000000000E+00  0.00000000000E+00  0.45593999997E+02  0.45594000000E+02  0.51100000000E-03 0.  1.
         11   -1    0    0    0    0 -0.00000000000E+00 -0.00000000000E+00 -0.45593999997E+02  0.45594000000E+02  0.51100000000E-03 0. -1.
    9900012    2    1    2    0    0  0.43322015768E+00  0.10656074928E+01  0.26432740221E+00  0.90007716979E+02  0.89999978043E+02 0.  0.
         12    1    1    2    0    0 -0.43322015768E+00 -0.10656074928E+01 -0.26432740221E+00  0.11802830209E+01  0.00000000000E+00 0. -1.
         11    1    3    3    0    0  0.15686699417E+02 -0.18368403797E+01 -0.33345343650E+02  0.36896591504E+02  0.51100000000E-03 0. -1.
        -11    1    3    3    0    0  0.64532588405E+01 -0.62469352730E+01 -0.30931723091E+01  0.94992876134E+01  0.51100000000E-03 0.  1.
        -12    1    3    3    0    0 -0.21706738100E+02  0.91493831455E+01  0.36702843362E+02  0.43611837862E+02  0.00000000000E+00 0.  1.
</event>
<event>
 7    1  0.3795708E-015  0.9000767E+02  0.7816164E-02  0.1186339E+00
        -11   -1    0    0    0    0  0.00000000000E+00  0.00000000000E+00  0.45593999997E+02  0.45594000000E+02  0.51100000000E-03 0.  1.
         11   -1    0    0    0    0 -0.00000000000E+00 -0.00000000000E+00 -0.45593999997E+02  0.45594000000E+02  0.51100000000E-03 0. -1.
    9900012    2    1    2    0    0  0.31190345678E+00 -0.11244149330E+01  0.17769194441E+00  0.90007674988E+02  0.89999935497E+02 0.  0.
         12    1    1    2    0    0 -0.31190345678E+00  0.11244149330E+01 -0.17769194441E+00  0.11803250125E+01  0.00000000000E+00 0. -1.
         11    1    3    3    0    0  0.33166090668E+02 -0.91947331048E+01 -0.21569441694E+02  0.40617403934E+02  0.51100000000E-03 0. -1.
        -11    1    3    3    0    0  0.19743056164E+01  0.77206167548E+01  0.96588627610E+01  0.12521958147E+02  0.51100000000E-03 0.  1.
        -12    1    3    3    0    0 -0.34828492828E+02  0.34970141702E+00  0.12088270878E+02  0.36868312906E+02  0.00000000000E+00 0.  1.
</event>
<event>
 7    1  0.6986588E-015  0.9000821E+02  0.7816164E-02  0.1186338E+00
        -11   -1    0    0    0    0  0.00000000000E+00  0.00000000000E+00  0.45593999997E+02  0.45594000000E+02  0.51100000000E-03 0. -1.
         11   -1    0    0    0    0 -0.00000000000E+00 -0.00000000000E+00 -0.45593999997E+02  0.45594000000E+02  0.51100000000E-03 0.  1.
    9900012    2    1    2    0    0  0.93300714783E+00 -0.70384130101E+00 -0.16126439590E+00  0.90008211409E+02  0.90000478998E+02 0.  0.
         12    1    1    2    0    0 -0.93300714783E+00  0.70384130101E+00  0.16126439590E+00  0.11797885914E+01  0.00000000000E+00 0. -1.
         11    1    3    3    0    0 -0.11371372567E+02 -0.26371419319E+02  0.27611154859E+02  0.39838872272E+02  0.51100000000E-03 0. -1.
        -11    1    3    3    0    0  0.79716578688E+01  0.19909636852E+01  0.49162132996E+01  0.95749892450E+01  0.51100000000E-03 0.  1.
        -12    1    3    3    0    0  0.43327218458E+01  0.23676614333E+02 -0.32688632554E+02  0.40594349892E+02  0.00000000000E+00 0.  1.
</event>
<event>
 7    1  0.3795708E-015  0.9000772E+02  0.7816164E-02  0.1186339E+00
        -11   -1    0    0    0    0  0.00000000000E+00  0.00000000000E+00  0.45593999997E+02  0.45594000000E+02  0.51100000000E-03 0. -1.
         11   -1    0    0    0    0 -0.00000000000E+00 -0.00000000000E+00 -0.45593999997E+02  0.45594000000E+02  0.51100000000E-03 0.  1.
    9900012    2    1    2    0    0  0.92042579278E+00 -0.73691980704E+00  0.53080055227E-01  0.90007723789E+02  0.89999984943E+02 0.  0.
         12    1    1    2    0    0 -0.92042579278E+00  0.73691980704E+00 -0.53080055227E-01  0.11802762110E+01  0.00000000000E+00 0. -1.
         11    1    3    3    0    0 -0.15685996056E+02 -0.31599756588E+02  0.99283896424E+00  0.35292787056E+02  0.51100000000E-03 0. -1.
        -11    1    3    3    0    0 -0.84392812832E+01 -0.57812195415E+01 -0.14143995098E+01  0.10326882114E+02  0.51100000000E-03 0.  1.
        -12    1    3    3    0    0  0.25045703132E+02  0.36644056323E+02  0.47464060077E+00  0.44388054619E+02  0.00000000000E+00 0.  1.
</event>
<event>
 7    1  0.3795708E-015  0.9000773E+02  0.7816164E-02  0.1186339E+00
        -11   -1    0    0    0    0  0.00000000000E+00  0.00000000000E+00  0.45593999997E+02  0.45594000000E+02  0.51100000000E-03 0.  1.
         11   -1    0    0    0    0 -0.00000000000E+00 -0.00000000000E+00 -0.45593999997E+02  0.45594000000E+02  0.51100000000E-03 0. -1.
    9900012    2    1    2    0    0 -0.87345707344E+00  0.30625933985E-01  0.79320489439E+00  0.90007729179E+02  0.89999990404E+02 0.  0.
         12    1    1    2    0    0  0.87345707344E+00 -0.30625933985E-01 -0.79320489439E+00  0.11802708212E+01  0.00000000000E+00 0. -1.
         11    1    3    3    0    0 -0.38483175214E+01  0.42561194672E+01 -0.71540630229E+01  0.91708624819E+01  0.51100000000E-03 0. -1.
        -11    1    3    3    0    0 -0.35768838129E+02 -0.17024538796E+02  0.49907077831E+01  0.39926831414E+02  0.51100000000E-03 0.  1.
         12    1    3    3    0    0  0.38743698577E+02  0.12799045263E+02  0.29565601342E+01  0.40910035283E+02  0.00000000000E+00 0. -1.
</event>
<event>
 7    1  0.3795708E-015  0.9000779E+02  0.7816164E-02  0.1186339E+00
        -11   -1    0    0    0    0  0.00000000000E+00  0.00000000000E+00  0.45593999997E+02  0.45594000000E+02  0.51100000000E-03 0.  1.
         11   -1    0    0    0    0 -0.00000000000E+00 -0.00000000000E+00 -0.45593999997E+02  0.45594000000E+02  0.51100000000E-03 0. -1.
    9900012    2    1    2    0    0  0.69314839256E+00 -0.74611526762E+00  0.59645666151E+00  0.90007786784E+02  0.90000048769E+02 0.  0.
         12    1    1    2    0    0 -0.69314839256E+00  0.74611526762E+00 -0.59645666151E+00  0.11802132162E+01  0.00000000000E+00 0. -1.
         11    1    3    3    0    0  0.91872971274E+01  0.94404996187E+01  0.23572713525E+00  0.13175167138E+02  0.51100000000E-03 0. -1.
        -11    1    3    3    0    0  0.19877546985E+02  0.10576513528E+02  0.25193780182E+02  0.33789141343E+02  0.51100000000E-03 0.  1.
         12    1    3    3    0    0 -0.28371695720E+02 -0.20763128414E+02 -0.24833050656E+02  0.43043478303E+02  0.00000000000E+00 0. -1.
</event>
<event>
 7    1  0.3795708E-015  0.9000774E+02  0.7816164E-02  0.1186339E+00
        -11   -1    0    0    0    0  0.00000000000E+00  0.00000000000E+00  0.45593999997E+02  0.45594000000E+02  0.51100000000E-03 0. -1.
         11   -1    0    0    0    0 -0.00000000000E+00 -0.00000000000E+00 -0.45593999997E+02  0.45594000000E+02  0.51100000000E-03 0.  1.
    9900012    2    1    2    0    0 -0.54077234860E+00  0.10486663921E+01  0.29458892268E-01  0.90007744197E+02  0.90000005620E+02 0.  0.
         12    1    1    2    0    0  0.54077234860E+00 -0.10486663921E+01 -0.29458892268E-01  0.11802558033E+01  0.00000000000E+00 0. -1.
         11    1    3    3    0    0 -0.13116093660E+01  0.13603828863E+02  0.38724638548E+01  0.14204944753E+02  0.51100000000E-03 0. -1.
        -11    1    3    3    0    0  0.33286587746E+02  0.11270703891E+02  0.12905262492E+01  0.35166619801E+02  0.51100000000E-03 0.  1.
         12    1    3    3    0    0 -0.32515750728E+02 -0.23825866361E+02 -0.51335312118E+01  0.40636179643E+02  0.00000000000E+00 0. -1.
</event>
<event>
 7    1  0.3795708E-015  0.9000774E+02  0.7816164E-02  0.1186339E+00
        -11   -1    0    0    0    0  0.00000000000E+00  0.00000000000E+00  0.45593999997E+02  0.45594000000E+02  0.51100000000E-03 0.  1.
         11   -1    0    0    0    0 -0.00000000000E+00 -0.00000000000E+00 -0.45593999997E+02  0.45594000000E+02  0.51100000000E-03 0. -1.
    9900012    2    1    2    0    0 -0.27526137224E-01  0.11772219061E+01 -0.80049385060E-01  0.90007738585E+02  0.89999999934E+02 0.  0.
         12    1    1    2    0    0  0.27526137224E-01 -0.11772219061E+01  0.80049385060E-01  0.11802614153E+01  0.00000000000E+00 0. -1.
         11    1    3    3    0    0  0.95748882920E+01 -0.19933488694E+02 -0.27236764933E+02  0.35083668872E+02  0.51100000000E-03 0. -1.
        -11    1    3    3    0    0  0.38546691315E+01 -0.25049731053E+01 -0.87533720166E+01  0.98871070740E+01  0.51100000000E-03 0.  1.
        -12    1    3    3    0    0 -0.13457083561E+02  0.23615683705E+02  0.35910087564E+02  0.45036962638E+02  0.00000000000E+00 0.  1.
</event>
<event>
 7    1  0.3795708E-015  0.9000789E+02  0.7816164E-02  0.1186339E+00
        -11   -1    0    0    0    0  0.00000000000E+00  0.00000000000E+00  0.45593999997E+02  0.45594000000E+02  0.51100000000E-03 0. -1.
         11   -1    0    0    0    0 -0.00000000000E+00 -0.00000000000E+00 -0.45593999997E+02  0.45594000000E+02  0.51100000000E-03 0.  1.
    9900012    2    1    2    0    0  0.11536146137E+00  0.11742856701E+01  0.20353133551E-01  0.90007885873E+02  0.90000149167E+02 0.  0.
         12    1    1    2    0    0 -0.11536146137E+00 -0.11742856701E+01 -0.20353133551E-01  0.11801141266E+01  0.00000000000E+00 0. -1.
         11    1    3    3    0    0 -0.46003972292E+01  0.48672884569E-01 -0.84822131067E+01  0.96495576668E+01  0.51100000000E-03 0. -1.
        -11    1    3    3    0    0  0.98816941120E+01  0.39325299845E+02  0.10068214421E+02  0.41779133886E+02  0.51100000000E-03 0.  1.
         12    1    3    3    0    0 -0.51659354214E+01 -0.38199687059E+02 -0.15656481812E+01  0.38579194320E+02  0.00000000000E+00 0. -1.
</event>
<event>
 7    1  0.3795708E-015  0.9000698E+02  0.7816164E-02  0.1186341E+00
        -11   -1    0    0    0    0  0.00000000000E+00  0.00000000000E+00  0.45593999997E+02  0.45594000000E+02  0.51100000000E-03 0.  1.
         11   -1    0    0    0    0 -0.00000000000E+00 -0.00000000000E+00 -0.45593999997E+02  0.45594000000E+02  0.51100000000E-03 0. -1.
    9900012    2    1    2    0    0  0.97954113251E+00 -0.17699916286E+00  0.63559537266E+00  0.90006978827E+02  0.89999230144E+02 0.  0.
         12    1    1    2    0    0 -0.97954113251E+00  0.17699916286E+00 -0.63559537266E+00  0.11810211733E+01  0.00000000000E+00 0. -1.
         11    1    3    3    0    0 -0.99180939307E+01  0.20308784058E+01  0.35552808071E+00  0.10130126100E+02  0.51100000000E-03 0. -1.
        -11    1    3    3    0    0 -0.31588368660E+02 -0.59221839548E+01  0.14029207871E+02  0.35067306300E+02  0.51100000000E-03 0.  1.
         12    1    3    3    0    0  0.42486003723E+02  0.37143063862E+01 -0.13749140579E+02  0.44809546427E+02  0.00000000000E+00 0. -1.
</event>
<event>
 7    1  0.3795708E-015  0.9000773E+02  0.7816164E-02  0.1186339E+00
        -11   -1    0    0    0    0  0.00000000000E+00  0.00000000000E+00  0.45593999997E+02  0.45594000000E+02  0.51100000000E-03 0.  1.
         11   -1    0    0    0    0 -0.00000000000E+00 -0.00000000000E+00 -0.45593999997E+02  0.45594000000E+02  0.51100000000E-03 0. -1.
    9900012    2    1    2    0    0  0.65346148771E+00 -0.51506125899E+00  0.83710152512E+00  0.90007729277E+02  0.89999990503E+02 0.  0.
         12    1    1    2    0    0 -0.65346148771E+00  0.51506125899E+00 -0.83710152512E+00  0.11802707231E+01  0.00000000000E+00 0. -1.
         11    1    3    3    0    0  0.12506155043E+02  0.35928052981E+02 -0.19061789119E+02  0.42550919022E+02  0.51100000000E-03 0. -1.
        -11    1    3    3    0    0 -0.70632471108E+01 -0.31269988454E+01  0.94673565533E+01  0.12218773338E+02  0.51100000000E-03 0.  1.
        -12    1    3    3    0    0 -0.47894464449E+01 -0.33316115394E+02  0.10431534091E+02  0.35238036916E+02  0.00000000000E+00 0.  1.
</event>
<event>
 7    1  0.3795708E-015  0.9000796E+02  0.7816164E-02  0.1186339E+00
        -11   -1    0    0    0    0  0.00000000000E+00  0.00000000000E+00  0.45593999997E+02  0.45594000000E+02  0.51100000000E-03 0.  1.
         11   -1    0    0    0    0 -0.00000000000E+00 -0.00000000000E+00 -0.45593999997E+02  0.45594000000E+02  0.51100000000E-03 0. -1.
    9900012    2    1    2    0    0 -0.96888033882E+00  0.11936215782E-01 -0.67351067211E+00  0.90007962624E+02  0.90000226930E+02 0.  0.
         12    1    1    2    0    0  0.96888033882E+00 -0.11936215782E-01  0.67351067211E+00  0.11800373764E+01  0.00000000000E+00 0. -1.
         11    1    3    3    0    0  0.49895862227E+00 -0.24247315664E+01  0.89982981941E+01  0.93326123635E+01  0.51100000000E-03 0. -1.
        -11    1    3    3    0    0  0.88367275018E+01 -0.27399562378E+02  0.21791848931E+02  0.36106903101E+02  0.51100000000E-03 0.  1.
         12    1    3    3    0    0 -0.10304566463E+02  0.29836230160E+02 -0.31463657798E+02  0.44568447159E+02  0.00000000000E+00 0. -1.
</event>
<event>
 7    1  0.3795708E-015  0.9000779E+02  0.7816164E-02  0.1186339E+00
        -11   -1    0    0    0    0  0.00000000000E+00  0.00000000000E+00  0.45593999997E+02  0.45594000000E+02  0.51100000000E-03 0. -1.
         11   -1    0    0    0    0 -0.00000000000E+00 -0.00000000000E+00 -0.45593999997E+02  0.45594000000E+02  0.51100000000E-03 0.  1.
    9900012    2    1    2    0    0  0.76424690251E-01 -0.19100331841E-01 -0.11775801104E+01  0.90007787955E+02  0.90000049956E+02 0.  0.
         12    1    1    2    0    0 -0.76424690251E-01  0.19100331841E-01  0.11775801104E+01  0.11802120455E+01  0.00000000000E+00 0. -1.
         11    1    3    3    0    0  0.80733468882E+01  0.29573633290E+02 -0.26119814171E+02  0.40274351746E+02  0.51100000000E-03 0. -1.
        -11    1    3    3    0    0 -0.66395169901E+01  0.38722382998E+01 -0.45632176719E+00  0.76997172110E+01  0.51100000000E-03 0.  1.
        -12    1    3    3    0    0 -0.13574052078E+01 -0.33464971922E+02  0.25398555828E+02  0.42033718998E+02  0.00000000000E+00 0.  1.
</event>
<event>
 7    1  0.3795708E-015  0.9000745E+02  0.7816164E-02  0.1186340E+00
        -11   -1    0    0    0    0  0.00000000000E+00  0.00000000000E+00  0.45593999997E+02  0.45594000000E+02  0.51100000000E-03 0. -1.
         11   -1    0    0    0    0 -0.00000000000E+00 -0.00000000000E+00 -0.45593999997E+02  0.45594000000E+02  0.51100000000E-03 0.  1.
    9900012    2    1    2    0    0 -0.94328672158E-01  0.11512976344E+01  0.24356024338E+00  0.90007446853E+02  0.89999704351E+02 0.  0.
         12    1    1    2    0    0  0.94328672158E-01 -0.11512976344E+01 -0.24356024338E+00  0.11805531473E+01  0.00000000000E+00 0. -1.
         11    1    3    3    0    0  0.11740925151E+02 -0.35860763850E+02  0.74447067056E+01  0.38461244982E+02  0.51100000000E-03 0. -1.
        -11    1    3    3    0    0  0.79749764237E+01  0.15432650577E+01  0.44769295494E+01  0.92749563044E+01  0.51100000000E-03 0.  1.
        -12    1    3    3    0    0 -0.19810230247E+02  0.35468796427E+02 -0.11678076012E+02  0.42271245567E+02  0.00000000000E+00 0.  1.
</event>
<event>
 7    1  0.3795708E-015  0.9000775E+02  0.7816164E-02  0.1186339E+00
        -11   -1    0    0    0    0  0.00000000000E+00  0.00000000000E+00  0.45593999997E+02  0.45594000000E+02  0.51100000000E-03 0. -1.
         11   -1    0    0    0    0 -0.00000000000E+00 -0.00000000000E+00 -0.45593999997E+02  0.45594000000E+02  0.51100000000E-03 0.  1.
    9900012    2    1    2    0    0 -0.15499074371E+00 -0.52841530457E-01 -0.11688317518E+01  0.90007753406E+02  0.90000014951E+02 0.  0.
         12    1    1    2    0    0  0.15499074371E+00  0.52841530457E-01  0.11688317518E+01  0.11802465937E+01  0.00000000000E+00 0. -1.
         11    1    3    3    0    0  0.17749238773E+02  0.93882141465E+01  0.31398404430E+02  0.37269744336E+02  0.51100000000E-03 0. -1.
        -11    1    3    3    0    0 -0.22439139055E+01 -0.52126248487E+01  0.75617876675E+01  0.94544825568E+01  0.51100000000E-03 0.  1.
        -12    1    3    3    0    0 -0.15660315612E+02 -0.42284308283E+01 -0.40129023849E+02  0.43283526513E+02  0.00000000000E+00 0.  1.
</event>
<event>
 7    1  0.3795708E-015  0.9000777E+02  0.7816164E-02  0.1186339E+00
        -11   -1    0    0    0    0  0.00000000000E+00  0.00000000000E+00  0.45593999997E+02  0.45594000000E+02  0.51100000000E-03 0.  1.
         11   -1    0    0    0    0 -0.00000000000E+00 -0.00000000000E+00 -0.45593999997E+02  0.45594000000E+02  0.51100000000E-03 0. -1.
    9900012    2    1    2    0    0 -0.10769646815E+01  0.51437481043E-01  0.48005288101E+00  0.90007767180E+02  0.90000028907E+02 0.  0.
         12    1    1    2    0    0  0.10769646815E+01 -0.51437481043E-01 -0.48005288101E+00  0.11802328195E+01  0.00000000000E+00 0. -1.
         11    1    3    3    0    0 -0.77683201091E+01  0.14925769876E+01 -0.78180024914E+01  0.11121858954E+02  0.51100000000E-03 0. -1.
        -11    1    3    3    0    0 -0.19670975758E+02  0.15510553494E+02  0.31240813171E+02  0.40043887983E+02  0.51100000000E-03 0.  1.
         12    1    3    3    0    0  0.26362331185E+02 -0.16951693001E+02 -0.22942757799E+02  0.38842020243E+02  0.00000000000E+00 0. -1.
</event>
<event>
 7    1  0.3795708E-015  0.9000822E+02  0.7816164E-02  0.1186338E+00
        -11   -1    0    0    0    0  0.00000000000E+00  0.00000000000E+00  0.45593999997E+02  0.45594000000E+02  0.51100000000E-03 0.  1.
         11   -1    0    0    0    0 -0.00000000000E+00 -0.00000000000E+00 -0.45593999997E+02  0.45594000000E+02  0.51100000000E-03 0. -1.
    9900012    2    1    2    0    0  0.60449342894E+00 -0.10053792701E+01 -0.12518805155E+00  0.90008223822E+02  0.90000491575E+02 0.  0.
         12    1    1    2    0    0 -0.60449342894E+00  0.10053792701E+01  0.12518805155E+00  0.11797761782E+01  0.00000000000E+00 0. -1.
         11    1    3    3    0    0  0.17896488163E+02 -0.31753018319E+02  0.13911656580E+02  0.39013749499E+02  0.51100000000E-03 0. -1.
        -11    1    3    3    0    0 -0.16033211577E+02  0.82420109985E+01  0.77708039756E+01  0.19631098121E+02  0.51100000000E-03 0.  1.
        -12    1    3    3    0    0 -0.12587831572E+01  0.22505628051E+02 -0.21807648607E+02  0.31363376201E+02  0.00000000000E+00 0.  1.
</event>
<event>
 7    1  0.3795708E-015  0.9000773E+02  0.7816164E-02  0.1186339E+00
        -11   -1    0    0    0    0  0.00000000000E+00  0.00000000000E+00  0.45593999997E+02  0.45594000000E+02  0.51100000000E-03 0. -1.
         11   -1    0    0    0    0 -0.00000000000E+00 -0.00000000000E+00 -0.45593999997E+02  0.45594000000E+02  0.51100000000E-03 0.  1.
    9900012    2    1    2    0    0  0.59859477723E+00 -0.80061835313E-02 -0.10171771267E+01  0.90007733457E+02  0.89999994738E+02 0.  0.
         12    1    1    2    0    0 -0.59859477723E+00  0.80061835313E-02  0.10171771267E+01  0.11802665434E+01  0.00000000000E+00 0. -1.
         11    1    3    3    0    0 -0.18342659740E+02 -0.15928572236E+02 -0.31237353985E+02  0.39572021228E+02  0.51100000000E-03 0. -1.
        -11    1    3    3    0    0  0.34019069178E+01 -0.92638953859E+01  0.32317679097E+01  0.10384462070E+02  0.51100000000E-03 0.  1.
        -12    1    3    3    0    0  0.15539347600E+02  0.25184461438E+02  0.26988408948E+02  0.40051250159E+02  0.00000000000E+00 0.  1.
</event>
<event>
 7    1  0.3795708E-015  0.9000770E+02  0.7816164E-02  0.1186339E+00
        -11   -1    0    0    0    0  0.00000000000E+00  0.00000000000E+00  0.45593999997E+02  0.45594000000E+02  0.51100000000E-03 0.  1.
         11   -1    0    0    0    0 -0.00000000000E+00 -0.00000000000E+00 -0.45593999997E+02  0.45594000000E+02  0.51100000000E-03 0. -1.
    9900012    2    1    2    0    0  0.46417840129E-02  0.11365106352E+01  0.31847717050E+00  0.90007701022E+02  0.89999961875E+02 0.  0.
         12    1    1    2    0    0 -0.46417840129E-02 -0.11365106352E+01 -0.31847717050E+00  0.11802989783E+01  0.00000000000E+00 0. -1.
         11    1    3    3    0    0  0.26824081020E+02 -0.26142658228E+02 -0.74031379139E+01  0.38180837511E+02  0.51100000000E-03 0. -1.
        -11    1    3    3    0    0  0.34365808671E+01 -0.55690667930E+01  0.26384305000E+00  0.65493668715E+01  0.51100000000E-03 0.  1.
        -12    1    3    3    0    0 -0.30256020103E+02  0.32848235656E+02  0.74577720344E+01  0.45277496639E+02  0.00000000000E+00 0.  1.
</event>
<event>
 7    1  0.3795708E-015  0.9000784E+02  0.7816164E-02  0.1186339E+00
        -11   -1    0    0    0    0  0.00000000000E+00  0.00000000000E+00  0.45593999997E+02  0.45594000000E+02  0.51100000000E-03 0.  1.
         11   -1    0    0    0    0 -0.00000000000E+00 -0.00000000000E+00 -0.45593999997E+02  0.45594000000E+02  0.51100000000E-03 0. -1.
    9900012    2    1    2    0    0 -0.56676290116E+00  0.77830820529E+00 -0.68249297045E+00  0.90007838781E+02  0.90000101453E+02 0.  0.
         12    1    1    2    0    0  0.56676290116E+00 -0.77830820529E+00  0.68249297045E+00  0.11801612192E+01  0.00000000000E+00 0. -1.
         11    1    3    3    0    0  0.34053100845E+02 -0.12966363308E+02 -0.65253726450E+01  0.37017843576E+02  0.51100000000E-03 0. -1.
        -11    1    3    3    0    0  0.11099838968E+01  0.17125426862E+01 -0.11365301365E+02  0.11547075044E+02  0.51100000000E-03 0.  1.
        -12    1    3    3    0    0 -0.35729847643E+02  0.12032128827E+02  0.17208181040E+02  0.41442920160E+02  0.00000000000E+00 0.  1.
</event>
<event>
 7    1  0.3795708E-015  0.9000780E+02  0.7816164E-02  0.1186339E+00
        -11   -1    0    0    0    0  0.00000000000E+00  0.00000000000E+00  0.45593999997E+02  0.45594000000E+02  0.51100000000E-03 0.  1.
         11   -1    0    0    0    0 -0.00000000000E+00 -0.00000000000E+00 -0.45593999997E+02  0.45594000000E+02  0.51100000000E-03 0. -1.
    9900012    2    1    2    0    0  0.40438702469E+00  0.51296238966E+00  0.98296309630E+00  0.90007798438E+02  0.90000060577E+02 0.  0.
         12    1    1    2    0    0 -0.40438702469E+00 -0.51296238966E+00 -0.98296309630E+00  0.11802015623E+01  0.00000000000E+00 0. -1.
         11    1    3    3    0    0 -0.21187165581E+01  0.93569980690E+01 -0.17853659844E+01  0.97585810790E+01  0.51100000000E-03 0. -1.
        -11    1    3    3    0    0  0.10090226189E-01  0.24489196564E+02  0.28855729345E+02  0.37846716719E+02  0.51100000000E-03 0.  1.
         12    1    3    3    0    0  0.25130133566E+01 -0.33333232243E+02 -0.26087400264E+02  0.42402500639E+02  0.00000000000E+00 0. -1.
</event>
<event>
 7    1  0.3795708E-015  0.9000785E+02  0.7816164E-02  0.1186339E+00
        -11   -1    0    0    0    0  0.00000000000E+00  0.00000000000E+00  0.45593999997E+02  0.45594000000E+02  0.51100000000E-03 0. -1.
         11   -1    0    0    0    0 -0.00000000000E+00 -0.00000000000E+00 -0.45593999997E+02  0.45594000000E+02  0.51100000000E-03 0.  1.
    9900012    2    1    2    0    0  0.83063670657E+00 -0.72694160876E+00 -0.41755472356E+00  0.90007850269E+02  0.90000113092E+02 0.  0.
         12    1    1    2    0    0 -0.83063670657E+00  0.72694160876E+00  0.41755472356E+00  0.11801497312E+01  0.00000000000E+00 0. -1.
         11    1    3    3    0    0  0.66011163755E+01  0.30839621100E+01  0.13812733365E+02  0.15616566939E+02  0.51100000000E-03 0. -1.
        -11    1    3    3    0    0  0.32925330448E+02  0.34846561543E+01 -0.10968989727E+02  0.34878918411E+02  0.51100000000E-03 0.  1.
         12    1    3    3    0    0 -0.38695810117E+02 -0.72955598731E+01 -0.32612983615E+01  0.39512364919E+02  0.00000000000E+00 0. -1.
</event>
<event>
 7    1  0.3795708E-015  0.9000869E+02  0.7816164E-02  0.1186337E+00
        -11   -1    0    0    0    0  0.00000000000E+00  0.00000000000E+00  0.45593999997E+02  0.45594000000E+02  0.51100000000E-03 0. -1.
         11   -1    0    0    0    0 -0.00000000000E+00 -0.00000000000E+00 -0.45593999997E+02  0.45594000000E+02  0.51100000000E-03 0.  1.
    9900012    2    1    2    0    0 -0.10437982072E+01  0.45877951068E+00  0.30127978590E+00  0.90008693913E+02  0.90000967868E+02 0.  0.
         12    1    1    2    0    0  0.10437982072E+01 -0.45877951068E+00 -0.30127978590E+00  0.11793060868E+01  0.00000000000E+00 0. -1.
         11    1    3    3    0    0 -0.71091631063E+01 -0.26875154064E+02  0.19582248300E+02  0.34004096147E+02  0.51100000000E-03 0. -1.
        -11    1    3    3    0    0  0.18880141527E+01 -0.69149705156E+01  0.89198570384E+01  0.11443131762E+02  0.51100000000E-03 0.  1.
        -12    1    3    3    0    0  0.41773507463E+01  0.34248904090E+02 -0.28200825552E+02  0.44561466004E+02  0.00000000000E+00 0.  1.
</event>
<event>
 7    1  0.3795708E-015  0.9000776E+02  0.7816164E-02  0.1186339E+00
        -11   -1    0    0    0    0  0.00000000000E+00  0.00000000000E+00  0.45593999997E+02  0.45594000000E+02  0.51100000000E-03 0. -1.
         11   -1    0    0    0    0 -0.00000000000E+00 -0.00000000000E+00 -0.45593999997E+02  0.45594000000E+02  0.51100000000E-03 0.  1.
    9900012    2    1    2    0    0  0.24730230604E+00 -0.10773025018E+01  0.41379264647E+00  0.90007761268E+02  0.90000022916E+02 0.  0.
         12    1    1    2    0    0 -0.24730230604E+00  0.10773025018E+01 -0.41379264647E+00  0.11802387323E+01  0.00000000000E+00 0. -1.
         11    1    3    3    0    0 -0.15121906582E+02  0.97072257903E+01  0.36135569242E+02  0.40356928227E+02  0.51100000000E-03 0. -1.
        -11    1    3    3    0    0  0.48879842905E+01 -0.13423268934E+02 -0.22303702139E+01  0.14458599201E+02  0.51100000000E-03 0.  1.
        -12    1    3    3    0    0  0.10481224597E+02  0.26387406421E+01 -0.33491406381E+02  0.35192233840E+02  0.00000000000E+00 0.  1.
</event>
<event>
 7    1  0.3795708E-015  0.9000788E+02  0.7816164E-02  0.1186339E+00
        -11   -1    0    0    0    0  0.00000000000E+00  0.00000000000E+00  0.45593999997E+02  0.45594000000E+02  0.51100000000E-03 0.  1.
         11   -1    0    0    0    0 -0.00000000000E+00 -0.00000000000E+00 -0.45593999997E+02  0.45594000000E+02  0.51100000000E-03 0. -1.
    9900012    2    1    2    0    0  0.28799574522E+00  0.75959902088E+00  0.85601294289E+00  0.90007876964E+02  0.90000140140E+02 0.  0.
         12    1    1    2    0    0 -0.28799574522E+00 -0.75959902088E+00 -0.85601294289E+00  0.11801230360E+01  0.00000000000E+00 0. -1.
         11    1    3    3    0    0  0.78593500034E+01  0.13812215481E+01  0.45618654973E+01  0.91917230440E+01  0.51100000000E-03 0. -1.
        -11    1    3    3    0    0  0.16173824501E+01 -0.11437024752E+02  0.36444645382E+02  0.38231317509E+02  0.51100000000E-03 0.  1.
         12    1    3    3    0    0 -0.91887367083E+01  0.10815402225E+02 -0.40150497937E+02  0.42584836411E+02  0.00000000000E+00 0. -1.
</event>
<event>
 7    1  0.3795708E-015  0.9000772E+02  0.7816164E-02  0.1186339E+00
        -11   -1    0    0    0    0  0.00000000000E+00  0.00000000000E+00  0.45593999997E+02  0.45594000000E+02  0.51100000000E-03 0. -1.
         11   -1    0    0    0    0 -0.00000000000E+00 -0.00000000000E+00 -0.45593999997E+02  0.45594000000E+02  0.51100000000E-03 0.  1.
    9900012    2    1    2    0    0 -0.94168369061E+00 -0.48112126433E+00  0.52422930032E+00  0.90007719439E+02  0.89999980535E+02 0.  0.
         12    1    1    2    0    0  0.94168369061E+00  0.48112126433E+00 -0.52422930032E+00  0.11802805613E+01  0.00000000000E+00 0. -1.
         11    1    3    3    0    0 -0.81809442068E+01  0.27117401012E+01 -0.49241797225E+01  0.99261739201E+01  0.51100000000E-03 0. -1.
        -11    1    3    3    0    0 -0.62224337705E+01  0.35276785030E+02 -0.88339218030E+01  0.36894558119E+02  0.51100000000E-03 0.  1.
         12    1    3    3    0    0  0.13461694287E+02 -0.38469646396E+02  0.14282330826E+02  0.43186987400E+02  0.00000000000E+00 0. -1.
</event>
<event>
 7    1  0.3795708E-015  0.9000778E+02  0.7816164E-02  0.1186339E+00
        -11   -1    0    0    0    0  0.00000000000E+00  0.00000000000E+00  0.45593999997E+02  0.45594000000E+02  0.51100000000E-03 0. -1.
         11   -1    0    0    0    0 -0.00000000000E+00 -0.00000000000E+00 -0.45593999997E+02  0.45594000000E+02  0.51100000000E-03 0.  1.
    9900012    2    1    2    0    0  0.76031040791E+00 -0.90259968120E+00 -0.12385191700E-01  0.90007783285E+02  0.90000045225E+02 0.  0.
         12    1    1    2    0    0 -0.76031040791E+00  0.90259968120E+00  0.12385191700E-01  0.11802167148E+01  0.00000000000E+00 0. -1.
         11    1    3    3    0    0 -0.48552833359E+01  0.42366955149E+01  0.88194354464E+01  0.10922719763E+02  0.51100000000E-03 0. -1.
        -11    1    3    3    0    0  0.83673896637E+01  0.36190258601E+02 -0.51584753180E+01  0.37501438576E+02  0.51100000000E-03 0.  1.
         12    1    3    3    0    0 -0.27517959199E+01 -0.41329553797E+02 -0.36733453201E+01  0.41583624947E+02  0.00000000000E+00 0. -1.
</event>
<event>
 7    1  0.3795708E-015  0.9000780E+02  0.7816164E-02  0.1186339E+00
        -11   -1    0    0    0    0  0.00000000000E+00  0.00000000000E+00  0.45593999997E+02  0.45594000000E+02  0.51100000000E-03 0. -1.
         11   -1    0    0    0    0 -0.00000000000E+00 -0.00000000000E+00 -0.45593999997E+02  0.45594000000E+02  0.51100000000E-03 0.  1.
    9900012    2    1    2    0    0 -0.71941836524E+00 -0.41565157363E+00 -0.83818128469E+00  0.90007797949E+02  0.90000060082E+02 0.  0.
         12    1    1    2    0    0  0.71941836524E+00  0.41565157363E+00  0.83818128469E+00  0.11802020509E+01  0.00000000000E+00 0. -1.
         11    1    3    3    0    0 -0.62870144644E+01 -0.34988136707E+02  0.69065624293E+00  0.35555214349E+02  0.51100000000E-03 0. -1.
        -11    1    3    3    0    0 -0.31294734829E+01 -0.44619485526E+01  0.11223713977E+02  0.12476952547E+02  0.51100000000E-03 0.  1.
        -12    1    3    3    0    0  0.86970695821E+01  0.39034433686E+02 -0.12752551504E+02  0.41975631054E+02  0.00000000000E+00 0.  1.
</event>
<event>
 7    1  0.3795708E-015  0.9000773E+02  0.7816164E-02  0.1186339E+00
        -11   -1    0    0    0    0  0.00000000000E+00  0.00000000000E+00  0.45593999997E+02  0.45594000000E+02  0.51100000000E-03 0.  1.
         11   -1    0    0    0    0 -0.00000000000E+00 -0.00000000000E+00 -0.45593999997E+02  0.45594000000E+02  0.51100000000E-03 0. -1.
    9900012    2    1    2    0    0 -0.29382923144E+00 -0.11376889120E+01  0.11124026960E+00  0.90007726271E+02  0.89999987458E+02 0.  0.
         12    1    1    2    0    0  0.29382923144E+00  0.11376889120E+01 -0.11124026960E+00  0.11802737290E+01  0.00000000000E+00 0. -1.
         11    1    3    3    0    0 -0.14022685924E+01  0.23126893373E+00  0.76700581614E+01  0.78006176028E+01  0.51100000000E-03 0. -1.
        -11    1    3    3    0    0 -0.38687327504E+02 -0.85263060315E+01  0.48502015500E+01  0.39911547944E+02  0.51100000000E-03 0.  1.
         12    1    3    3    0    0  0.39795766865E+02  0.71573481857E+01 -0.12409019442E+02  0.42295560724E+02  0.00000000000E+00 0. -1.
</event>
<event>
 7    1  0.3795708E-015  0.9000766E+02  0.7816164E-02  0.1186339E+00
        -11   -1    0    0    0    0  0.00000000000E+00  0.00000000000E+00  0.45593999997E+02  0.45594000000E+02  0.51100000000E-03 0.  1.
         11   -1    0    0    0    0 -0.00000000000E+00 -0.00000000000E+00 -0.45593999997E+02  0.45594000000E+02  0.51100000000E-03 0. -1.
    9900012    2    1    2    0    0 -0.33867007956E+00  0.11072540032E+01  0.22912502611E+00  0.90007658046E+02  0.89999918332E+02 0.  0.
         12    1    1    2    0    0  0.33867007956E+00 -0.11072540032E+01 -0.22912502611E+00  0.11803419538E+01  0.00000000000E+00 0. -1.
         11    1    3    3    0    0  0.22978212541E+02 -0.17898453049E+02 -0.20572678902E+02  0.35659332447E+02  0.51100000000E-03 0. -1.
        -11    1    3    3    0    0 -0.12215702238E+02  0.20591700911E+01 -0.11049680270E+02  0.16599969787E+02  0.51100000000E-03 0.  1.
        -12    1    3    3    0    0 -0.11101180383E+02  0.16946536961E+02  0.31851484197E+02  0.37748355811E+02  0.00000000000E+00 0.  1.
</event>
<event>
 7    1  0.4149401E-015  0.9000775E+02  0.7816164E-02  0.1186339E+00
        -11   -1    0    0    0    0  0.00000000000E+00  0.00000000000E+00  0.45593999997E+02  0.45594000000E+02  0.51100000000E-03 0.  1.
         11   -1    0    0    0    0 -0.00000000000E+00 -0.00000000000E+00 -0.45593999997E+02  0.45594000000E+02  0.51100000000E-03 0. -1.
    9900012    2    1    2    0    0 -0.19048354828E+00  0.62967536448E+00 -0.97990431927E+00  0.90007751076E+02  0.90000012591E+02 0.  0.
         12    1    1    2    0    0  0.19048354828E+00 -0.62967536448E+00  0.97990431927E+00  0.11802489236E+01  0.00000000000E+00 0. -1.
         11    1    3    3    0    0  0.76846854004E+01  0.36950264312E+02  0.63417130663E+01  0.38270011070E+02  0.51100000000E-03 0. -1.
        -11    1    3    3    0    0  0.33432243386E+01  0.45569681972E+01 -0.74466401217E+01  0.93485591132E+01  0.51100000000E-03 0.  1.
        -12    1    3    3    0    0 -0.11218393287E+02 -0.40877557145E+02  0.12502273622E+00  0.42389180893E+02  0.00000000000E+00 0.  1.
</event>
<event>
 7    1  0.3795708E-015  0.9000772E+02  0.7816164E-02  0.1186339E+00
        -11   -1    0    0    0    0  0.00000000000E+00  0.00000000000E+00  0.45593999997E+02  0.45594000000E+02  0.51100000000E-03 0. -1.
         11   -1    0    0    0    0 -0.00000000000E+00 -0.00000000000E+00 -0.45593999997E+02  0.45594000000E+02  0.51100000000E-03 0.  1.
    9900012    2    1    2    0    0  0.74343923116E+00  0.90536843558E+00 -0.14376055267E+00  0.90007719952E+02  0.89999981056E+02 0.  0.
         12    1    1    2    0    0 -0.74343923116E+00 -0.90536843558E+00  0.14376055267E+00  0.11802800477E+01  0.00000000000E+00 0. -1.
         11    1    3    3    0    0 -0.10911748877E+01  0.10873582758E+02  0.77880536900E+01  0.13419360833E+02  0.51100000000E-03 0. -1.
        -11    1    3    3    0    0 -0.35048238357E+02 -0.91125372983E+01  0.68298650541E+01  0.36851925389E+02  0.51100000000E-03 0.  1.
         12    1    3    3    0    0  0.36882852476E+02 -0.85567702415E+00 -0.14761679297E+02  0.39736433730E+02  0.00000000000E+00 0. -1.
</event>
<event>
 7    1  0.3795708E-015  0.9000774E+02  0.7816164E-02  0.1186339E+00
        -11   -1    0    0    0    0  0.00000000000E+00  0.00000000000E+00  0.45593999997E+02  0.45594000000E+02  0.51100000000E-03 0.  1.
         11   -1    0    0    0    0 -0.00000000000E+00 -0.00000000000E+00 -0.45593999997E+02  0.45594000000E+02  0.51100000000E-03 0. -1.
    9900012    2    1    2    0    0 -0.72298092473E+00  0.87573519028E+00  0.32155123776E+00  0.90007742088E+02  0.90000003483E+02 0.  0.
         12    1    1    2    0    0  0.72298092473E+00 -0.87573519028E+00 -0.32155123776E+00  0.11802579123E+01  0.00000000000E+00 0. -1.
         11    1    3    3    0    0  0.51787083268E+01  0.51596928080E+01 -0.27829627928E+01  0.78221692626E+01  0.51100000000E-03 0. -1.
        -11    1    3    3    0    0  0.31732617730E+02  0.19787264019E+02 -0.10291761766E+00  0.37396596605E+02  0.51100000000E-03 0.  1.
         12    1    3    3    0    0 -0.37634306981E+02 -0.24071221637E+02  0.32074316482E+01  0.44788976220E+02  0.00000000000E+00 0. -1.
</event>
<event>
 7    1  0.3795708E-015  0.9000779E+02  0.7816164E-02  0.1186339E+00
        -11   -1    0    0    0    0  0.00000000000E+00  0.00000000000E+00  0.45593999997E+02  0.45594000000E+02  0.51100000000E-03 0.  1.
         11   -1    0    0    0    0 -0.00000000000E+00 -0.00000000000E+00 -0.45593999997E+02  0.45594000000E+02  0.51100000000E-03 0. -1.
    9900012    2    1    2    0    0 -0.10499157898E+01 -0.27510599729E+00  0.46356775133E+00  0.90007787504E+02  0.90000049499E+02 0.  0.
         12    1    1    2    0    0  0.10499157898E+01  0.27510599729E+00 -0.46356775133E+00  0.11802124959E+01  0.00000000000E+00 0. -1.
         11    1    3    3    0    0 -0.82310116717E+01 -0.27298072318E+01  0.59404179034E+01  0.10511420731E+02  0.51100000000E-03 0. -1.
        -11    1    3    3    0    0 -0.23268080406E+02  0.28883763654E+02 -0.11266449826E+02  0.38763491336E+02  0.51100000000E-03 0.  1.
         12    1    3    3    0    0  0.30449176288E+02 -0.26429062419E+02  0.57895996735E+01  0.40732875437E+02  0.00000000000E+00 0. -1.
</event>
<event>
 7    1  0.3795708E-015  0.9000773E+02  0.7816164E-02  0.1186339E+00
        -11   -1    0    0    0    0  0.00000000000E+00  0.00000000000E+00  0.45593999997E+02  0.45594000000E+02  0.51100000000E-03 0.  1.
         11   -1    0    0    0    0 -0.00000000000E+00 -0.00000000000E+00 -0.45593999997E+02  0.45594000000E+02  0.51100000000E-03 0. -1.
    9900012    2    1    2    0    0 -0.23903247517E+00  0.93870557015E+00  0.67434343125E+00  0.90007727263E+02  0.89999988462E+02 0.  0.
         12    1    1    2    0    0  0.23903247517E+00 -0.93870557015E+00 -0.67434343125E+00  0.11802727375E+01  0.00000000000E+00 0. -1.
         11    1    3    3    0    0  0.48013464583E+01  0.48867010474E+01 -0.91450321722E+01  0.11426477525E+02  0.51100000000E-03 0. -1.
        -11    1    3    3    0    0  0.23451886577E+01  0.28942878350E+02  0.27951017549E+02  0.40304460042E+02  0.51100000000E-03 0.  1.
         12    1    3    3    0    0 -0.73855675912E+01 -0.32890873827E+02 -0.18131641945E+02  0.38276789695E+02  0.00000000000E+00 0. -1.
</event>
<event>
 7    1  0.3795708E-015  0.9000763E+02  0.7816164E-02  0.1186339E+00
        -11   -1    0    0    0    0  0.00000000000E+00  0.00000000000E+00  0.45593999997E+02  0.45594000000E+02  0.51100000000E-03 0. -1.
         11   -1    0    0    0    0 -0.00000000000E+00 -0.00000000000E+00 -0.45593999997E+02  0.45594000000E+02  0.51100000000E-03 0.  1.
    9900012    2    1    2    0    0 -0.11287862901E+01 -0.25052376801E+00 -0.23738516631E+00  0.90007630412E+02  0.89999890333E+02 0.  0.
         12    1    1    2    0    0  0.11287862901E+01  0.25052376801E+00  0.23738516631E+00  0.11803695880E+01  0.00000000000E+00 0. -1.
         11    1    3    3    0    0  0.30248563633E+02  0.12657025799E+01  0.23267857286E+02  0.38183383662E+02  0.51100000000E-03 0. -1.
        -11    1    3    3    0    0  0.43549119453E+01 -0.81640717697E+01 -0.82869729435E+01  0.12421402769E+02  0.51100000000E-03 0.  1.
        -12    1    3    3    0    0 -0.35732261869E+02  0.66478454218E+01 -0.15218269509E+02  0.39402843982E+02  0.00000000000E+00 0.  1.
</event>
<event>
 7    1  0.3795708E-015  0.9000764E+02  0.7816164E-02  0.1186339E+00
        -11   -1    0    0    0    0  0.00000000000E+00  0.00000000000E+00  0.45593999997E+02  0.45594000000E+02  0.51100000000E-03 0. -1.
         11   -1    0    0    0    0 -0.00000000000E+00 -0.00000000000E+00 -0.45593999997E+02  0.45594000000E+02  0.51100000000E-03 0.  1.
    9900012    2    1    2    0    0 -0.39851749284E+00  0.10647304594E+01  0.31746553775E+00  0.90007639245E+02  0.89999899283E+02 0.  0.
         12    1    1    2    0    0  0.39851749284E+00 -0.10647304594E+01 -0.31746553775E+00  0.11803607546E+01  0.00000000000E+00 0. -1.
         11    1    3    3    0    0  0.23203413084E+02 -0.20690129173E+02  0.24533276909E+02  0.39602544111E+02  0.51100000000E-03 0. -1.
        -11    1    3    3    0    0 -0.59348536790E+00 -0.71018194234E+01 -0.56342015949E+01  0.90847284978E+01  0.51100000000E-03 0.  1.
        -12    1    3    3    0    0 -0.23008445209E+02  0.28856679056E+02 -0.18581609777E+02  0.41320366636E+02  0.00000000000E+00 0.  1.
</event>
<event>
 7    1  0.3795708E-015  0.9000775E+02  0.7816164E-02  0.1186339E+00
        -11   -1    0    0    0    0  0.00000000000E+00  0.00000000000E+00  0.45593999997E+02  0.45594000000E+02  0.51100000000E-03 0. -1.
         11   -1    0    0    0    0 -0.00000000000E+00 -0.00000000000E+00 -0.45593999997E+02  0.45594000000E+02  0.51100000000E-03 0.  1.
    9900012    2    1    2    0    0 -0.12674586146E+00 -0.34842230767E+00 -0.11205006334E+01  0.90007752447E+02  0.90000013979E+02 0.  0.
         12    1    1    2    0    0  0.12674586146E+00  0.34842230767E+00  0.11205006334E+01  0.11802475534E+01  0.00000000000E+00 0. -1.
         11    1    3    3    0    0  0.24573423027E+01 -0.48375564184E+01 -0.84585780665E+01  0.10049279898E+02  0.51100000000E-03 0. -1.
        -11    1    3    3    0    0 -0.33972573547E+02  0.14579184388E+01 -0.18928788697E+02  0.38917352445E+02  0.51100000000E-03 0.  1.
         12    1    3    3    0    0  0.31388485383E+02  0.30312156719E+01  0.26266866130E+02  0.41041120104E+02  0.00000000000E+00 0. -1.
</event>
<event>
 7    1  0.3795708E-015  0.9000859E+02  0.7816164E-02  0.1186337E+00
        -11   -1    0    0    0    0  0.00000000000E+00  0.00000000000E+00  0.45593999997E+02  0.45594000000E+02  0.51100000000E-03 0. -1.
         11   -1    0    0    0    0 -0.00000000000E+00 -0.00000000000E+00 -0.45593999997E+02  0.45594000000E+02  0.51100000000E-03 0.  1.
    9900012    2    1    2    0    0  0.44865023932E+00 -0.10835453402E+01 -0.12513248435E+00  0.90008586722E+02  0.90000859263E+02 0.  0.
         12    1    1    2    0    0 -0.44865023932E+00  0.10835453402E+01  0.12513248435E+00  0.11794132779E+01  0.00000000000E+00 0. -1.
         11    1    3    3    0    0 -0.21725621899E+02  0.20541326861E+02  0.27063993449E+02  0.40328755223E+02  0.51100000000E-03 0. -1.
        -11    1    3    3    0    0 -0.16986397927E+01 -0.16457717998E+02 -0.68985508703E+01  0.17925731874E+02  0.51100000000E-03 0.  1.
        -12    1    3    3    0    0  0.23872911931E+02 -0.51671542037E+01 -0.20290575063E+02  0.31754099626E+02  0.00000000000E+00 0.  1.
</event>
<event>
 7    1  0.3795708E-015  0.9000771E+02  0.7816164E-02  0.1186339E+00
        -11   -1    0    0    0    0  0.00000000000E+00  0.00000000000E+00  0.45593999997E+02  0.45594000000E+02  0.51100000000E-03 0.  1.
         11   -1    0    0    0    0 -0.00000000000E+00 -0.00000000000E+00 -0.45593999997E+02  0.45594000000E+02  0.51100000000E-03 0. -1.
    9900012    2    1    2    0    0  0.11205661097E+01 -0.34068905400E+00 -0.14607707775E+00  0.90007713615E+02  0.89999974635E+02 0.  0.
         12    1    1    2    0    0 -0.11205661097E+01  0.34068905400E+00  0.14607707775E+00  0.11802863849E+01  0.00000000000E+00 0. -1.
         11    1    3    3    0    0 -0.46864184110E+01 -0.69095614727E+01 -0.44816918263E+01  0.94757648322E+01  0.51100000000E-03 0. -1.
        -11    1    3    3    0    0  0.14563558363E+02 -0.20554320841E+02  0.32058333960E+02  0.40771486531E+02  0.51100000000E-03 0.  1.
         12    1    3    3    0    0 -0.87565738421E+01  0.27123193259E+02 -0.27722719211E+02  0.39760462252E+02  0.00000000000E+00 0. -1.
</event>
<event>
 7    1  0.3795708E-015  0.9000761E+02  0.7816164E-02  0.1186339E+00
        -11   -1    0    0    0    0  0.00000000000E+00  0.00000000000E+00  0.45593999997E+02  0.45594000000E+02  0.51100000000E-03 0.  1.
         11   -1    0    0    0    0 -0.00000000000E+00 -0.00000000000E+00 -0.45593999997E+02  0.45594000000E+02  0.51100000000E-03 0. -1.
    9900012    2    1    2    0    0 -0.98196413142E+00 -0.28538696348E+00  0.58960357225E+00  0.90007605300E+02  0.89999864890E+02 0.  0.
         12    1    1    2    0    0  0.98196413142E+00  0.28538696348E+00 -0.58960357225E+00  0.11803946996E+01  0.00000000000E+00 0. -1.
         11    1    3    3    0    0 -0.39288301030E+01 -0.33031810423E+01  0.82219611386E+01  0.96926444381E+01  0.51100000000E-03 0. -1.
        -11    1    3    3    0    0  0.29095519814E+02  0.10299904581E+01  0.25053506088E+02  0.38409482177E+02  0.51100000000E-03 0.  1.
         12    1    3    3    0    0 -0.26148653842E+02  0.19878036208E+01 -0.32685863654E+02  0.41905478685E+02  0.00000000000E+00 0. -1.
</event>
<event>
 7    1  0.3795708E-015  0.9000720E+02  0.7816164E-02  0.1186340E+00
        -11   -1    0    0    0    0  0.00000000000E+00  0.00000000000E+00  0.45593999997E+02  0.45594000000E+02  0.51100000000E-03 0. -1.
         11   -1    0    0    0    0 -0.00000000000E+00 -0.00000000000E+00 -0.45593999997E+02  0.45594000000E+02  0.51100000000E-03 0.  1.
    9900012    2    1    2    0    0  0.29911193526E+00 -0.46482962690E-01 -0.11413402635E+01  0.90007201028E+02  0.89999455280E+02 0.  0.
         12    1    1    2    0    0 -0.29911193526E+00  0.46482962690E-01  0.11413402635E+01  0.11807989722E+01  0.00000000000E+00 0. -1.
         11    1    3    3    0    0 -0.29709064153E+01 -0.87600521573E+01 -0.37607384290E+01  0.99853869489E+01  0.51100000000E-03 0. -1.
        -11    1    3    3    0    0 -0.60049925440E+01 -0.23406747573E+02 -0.26372598685E+02  0.35769396543E+02  0.51100000000E-03 0.  1.
         12    1    3    3    0    0  0.92750108945E+01  0.32120316768E+02  0.28991996850E+02  0.44252417536E+02  0.00000000000E+00 0. -1.
</event>
<event>
 7    1  0.3795708E-015  0.9000785E+02  0.7816164E-02  0.1186339E+00
        -11   -1    0    0    0    0  0.00000000000E+00  0.00000000000E+00  0.45593999997E+02  0.45594000000E+02  0.51100000000E-03 0. -1.
         11   -1    0    0    0    0 -0.00000000000E+00 -0.00000000000E+00 -0.45593999997E+02  0.45594000000E+02  0.51100000000E-03 0.  1.
    9900012    2    1    2    0    0 -0.64004446977E+00 -0.79953046937E+00 -0.58639447444E+00  0.90007845614E+02  0.90000108376E+02 0.  0.
         12    1    1    2    0    0  0.64004446977E+00  0.79953046937E+00  0.58639447444E+00  0.11801543858E+01  0.00000000000E+00 0. -1.
         11    1    3    3    0    0 -0.94154737059E+01 -0.45181668024E+01  0.35662156584E+01  0.11035527660E+02  0.51100000000E-03 0. -1.
        -11    1    3    3    0    0  0.98592167555E+01  0.27005555245E+02 -0.31759770891E+02  0.42839085149E+02  0.51100000000E-03 0.  1.
         12    1    3    3    0    0 -0.10837875194E+01 -0.23286918912E+02  0.27607160758E+02  0.36133232805E+02  0.00000000000E+00 0. -1.
</event>
<event>
 8    1  0.3795708E-015  0.9000766E+02  0.7816164E-02  0.1186339E+00
        -11   -1    0    0    0    0  0.00000000000E+00  0.00000000000E+00  0.45593999997E+02  0.45594000000E+02  0.51100000000E-03 0.  1.
         11   -1    0    0    0    0 -0.00000000000E+00 -0.00000000000E+00 -0.45593999997E+02  0.45594000000E+02  0.51100000000E-03 0. -1.
    9900012    2    1    2    0    0 -0.54952464428E+00  0.52705672134E-01  0.10432825006E+01  0.90007663777E+02  0.89999924139E+02 0.  0.
         23    2    3    3    0    0  0.15956290389E+02  0.14130985341E+02 -0.13061990707E+02  0.64131060047E+02  0.59058355140E+02 0.  0.
         12    1    1    2    0    0  0.54952464428E+00 -0.52705672134E-01 -0.10432825006E+01  0.11803362227E+01  0.00000000000E+00 0. -1.
         11    1    4    4    0    0  0.12009568931E+02 -0.13643852251E+02  0.15652411142E+02  0.23987130403E+02  0.51100000000E-03 0.  1.
        -11    1    4    4    0    0  0.39467214579E+01  0.27774837592E+02 -0.28714401848E+02  0.40143929644E+02  0.51100000000E-03 0. -1.
         12    1    3    3    0    0 -0.16505815033E+02 -0.14078279669E+02  0.14105273207E+02  0.25876603730E+02  0.00000000000E+00 0. -1.
</event>
<event>
 7    1  0.3795708E-015  0.9000775E+02  0.7816164E-02  0.1186339E+00
        -11   -1    0    0    0    0  0.00000000000E+00  0.00000000000E+00  0.45593999997E+02  0.45594000000E+02  0.51100000000E-03 0.  1.
         11   -1    0    0    0    0 -0.00000000000E+00 -0.00000000000E+00 -0.45593999997E+02  0.45594000000E+02  0.51100000000E-03 0. -1.
    9900012    2    1    2    0    0 -0.19670648512E+00 -0.67615370533E+00  0.94715616797E+00  0.90007753381E+02  0.90000014926E+02 0.  0.
         12    1    1    2    0    0  0.19670648512E+00  0.67615370533E+00 -0.94715616797E+00  0.11802466187E+01  0.00000000000E+00 0. -1.
         11    1    3    3    0    0  0.34332703940E+01 -0.35102844203E+01  0.34081058429E+01  0.59770082823E+01  0.51100000000E-03 0. -1.
        -11    1    3    3    0    0 -0.52006946306E+00  0.20558509934E+02  0.36061025188E+02  0.41512893670E+02  0.51100000000E-03 0.  1.
         12    1    3    3    0    0 -0.31099074160E+01 -0.17724379220E+02 -0.38521974863E+02  0.42517851429E+02  0.00000000000E+00 0. -1.
</event>
<event>
 7    1  0.3795708E-015  0.9000772E+02  0.7816164E-02  0.1186339E+00
        -11   -1    0    0    0    0  0.00000000000E+00  0.00000000000E+00  0.45593999997E+02  0.45594000000E+02  0.51100000000E-03 0.  1.
         11   -1    0    0    0    0 -0.00000000000E+00 -0.00000000000E+00 -0.45593999997E+02  0.45594000000E+02  0.51100000000E-03 0. -1.
    9900012    2    1    2    0    0  0.70037473405E+00  0.10203140550E-01  0.94996488328E+00  0.90007719461E+02  0.89999980557E+02 0.  0.
         12    1    1    2    0    0 -0.70037473405E+00 -0.10203140550E-01 -0.94996488328E+00  0.11802805394E+01  0.00000000000E+00 0. -1.
         11    1    3    3    0    0 -0.84515805783E+01 -0.27886966224E+02  0.21024324398E+02  0.35932357508E+02  0.51100000000E-03 0. -1.
        -11    1    3    3    0    0  0.44080551114E+01 -0.90032659823E+01  0.27919322994E+01  0.10405990315E+02  0.51100000000E-03 0.  1.
        -12    1    3    3    0    0  0.47439002009E+01  0.36900435346E+02 -0.22866291814E+02  0.43669371637E+02  0.00000000000E+00 0.  1.
</event>
<event>
 7    1  0.3795708E-015  0.9000778E+02  0.7816164E-02  0.1186339E+00
        -11   -1    0    0    0    0  0.00000000000E+00  0.00000000000E+00  0.45593999997E+02  0.45594000000E+02  0.51100000000E-03 0.  1.
         11   -1    0    0    0    0 -0.00000000000E+00 -0.00000000000E+00 -0.45593999997E+02  0.45594000000E+02  0.51100000000E-03 0. -1.
    9900012    2    1    2    0    0  0.38559125089E+00  0.92556123912E+00  0.62254857060E+00  0.90007783519E+02  0.90000045461E+02 0.  0.
         12    1    1    2    0    0 -0.38559125089E+00 -0.92556123912E+00 -0.62254857060E+00  0.11802164814E+01  0.00000000000E+00 0. -1.
         11    1    3    3    0    0 -0.11861836955E+01 -0.92349083328E+01  0.94515134661E+00  0.93586257006E+01  0.51100000000E-03 0. -1.
        -11    1    3    3    0    0 -0.13681833101E+02 -0.31742641149E+02 -0.77965540212E+01  0.35434080755E+02  0.51100000000E-03 0.  1.
         12    1    3    3    0    0  0.15253608048E+02  0.41903110721E+02  0.74739512452E+01  0.45215077063E+02  0.00000000000E+00 0. -1.
</event>
<event>
 7    1  0.3795708E-015  0.9000745E+02  0.7816164E-02  0.1186340E+00
        -11   -1    0    0    0    0  0.00000000000E+00  0.00000000000E+00  0.45593999997E+02  0.45594000000E+02  0.51100000000E-03 0.  1.
         11   -1    0    0    0    0 -0.00000000000E+00 -0.00000000000E+00 -0.45593999997E+02  0.45594000000E+02  0.51100000000E-03 0. -1.
    9900012    2    1    2    0    0  0.36927718149E+00  0.24195464009E+00  0.10948981523E+01  0.90007445195E+02  0.89999702671E+02 0.  0.
         12    1    1    2    0    0 -0.36927718149E+00 -0.24195464009E+00 -0.10948981523E+01  0.11805548054E+01  0.00000000000E+00 0. -1.
         11    1    3    3    0    0 -0.14805910681E+01  0.43452536521E+02 -0.51730393691E+01  0.43784419793E+02  0.51100000000E-03 0. -1.
        -11    1    3    3    0    0  0.76146509772E+00 -0.77273629637E+01 -0.46888821589E+01  0.90706991808E+01  0.51100000000E-03 0.  1.
        -12    1    3    3    0    0  0.10884031519E+01 -0.35483218917E+02  0.10956819680E+02  0.37152326221E+02  0.00000000000E+00 0.  1.
</event>
<event>
 7    1  0.3795708E-015  0.9000780E+02  0.7816164E-02  0.1186339E+00
        -11   -1    0    0    0    0  0.00000000000E+00  0.00000000000E+00  0.45593999997E+02  0.45594000000E+02  0.51100000000E-03 0.  1.
         11   -1    0    0    0    0 -0.00000000000E+00 -0.00000000000E+00 -0.45593999997E+02  0.45594000000E+02  0.51100000000E-03 0. -1.
    9900012    2    1    2    0    0 -0.53692603216E+00  0.67496933988E+00  0.80559949487E+00  0.90007803525E+02  0.90000065731E+02 0.  0.
         12    1    1    2    0    0  0.53692603216E+00 -0.67496933988E+00 -0.80559949487E+00  0.11801964751E+01  0.00000000000E+00 0. -1.
         11    1    3    3    0    0 -0.25951464929E+02 -0.66413818980E+01 -0.21461429956E+02  0.34324618884E+02  0.51100000000E-03 0. -1.
        -11    1    3    3    0    0  0.28926609753E+00 -0.81251585308E+01 -0.93880955392E+01  0.12419267858E+02  0.51100000000E-03 0.  1.
        -12    1    3    3    0    0  0.25125272800E+02  0.15441509769E+02  0.31655124991E+02  0.43263916782E+02  0.00000000000E+00 0.  1.
</event>
<event>
 7    1  0.3795708E-015  0.9000775E+02  0.7816164E-02  0.1186339E+00
        -11   -1    0    0    0    0  0.00000000000E+00  0.00000000000E+00  0.45593999997E+02  0.45594000000E+02  0.51100000000E-03 0.  1.
         11   -1    0    0    0    0 -0.00000000000E+00 -0.00000000000E+00 -0.45593999997E+02  0.45594000000E+02  0.51100000000E-03 0. -1.
    9900012    2    1    2    0    0 -0.10645294991E+01 -0.22930538395E+00  0.45517157480E+00  0.90007752070E+02  0.90000013597E+02 0.  0.
         12    1    1    2    0    0  0.10645294991E+01  0.22930538395E+00 -0.45517157480E+00  0.11802479299E+01  0.00000000000E+00 0. -1.
         11    1    3    3    0    0 -0.22172791615E+01  0.96837348201E+01  0.16572082501E+01  0.10071612899E+02  0.51100000000E-03 0. -1.
        -11    1    3    3    0    0  0.24776323560E+02  0.16728066033E+02  0.22279811643E+02  0.37283835767E+02  0.51100000000E-03 0.  1.
         12    1    3    3    0    0 -0.23623573898E+02 -0.26641106237E+02 -0.23481848318E+02  0.42652303404E+02  0.00000000000E+00 0. -1.
</event>
<event>
 7    1  0.3795708E-015  0.9000792E+02  0.7816164E-02  0.1186339E+00
        -11   -1    0    0    0    0  0.00000000000E+00  0.00000000000E+00  0.45593999997E+02  0.45594000000E+02  0.51100000000E-03 0.  1.
         11   -1    0    0    0    0 -0.00000000000E+00 -0.00000000000E+00 -0.45593999997E+02  0.45594000000E+02  0.51100000000E-03 0. -1.
    9900012    2    1    2    0    0  0.55337342528E+00 -0.58864895872E+00  0.86014690635E+00  0.90007922695E+02  0.90000186475E+02 0.  0.
         12    1    1    2    0    0 -0.55337342528E+00  0.58864895872E+00 -0.86014690635E+00  0.11800773046E+01  0.00000000000E+00 0. -1.
         11    1    3    3    0    0 -0.26699975898E+01 -0.36129399022E+01 -0.92429641181E+01  0.10276896799E+02  0.51100000000E-03 0. -1.
        -11    1    3    3    0    0 -0.26619096071E+02 -0.24666764724E+02  0.13859572859E+02  0.38847307728E+02  0.51100000000E-03 0.  1.
         12    1    3    3    0    0  0.29842467086E+02  0.27691055667E+02 -0.37564618347E+01  0.40883718169E+02  0.00000000000E+00 0. -1.
</event>
<event>
 7    1  0.3795708E-015  0.9000763E+02  0.7816164E-02  0.1186339E+00
        -11   -1    0    0    0    0  0.00000000000E+00  0.00000000000E+00  0.45593999997E+02  0.45594000000E+02  0.51100000000E-03 0.  1.
         11   -1    0    0    0    0 -0.00000000000E+00 -0.00000000000E+00 -0.45593999997E+02  0.45594000000E+02  0.51100000000E-03 0. -1.
    9900012    2    1    2    0    0  0.46282962338E+00 -0.10858438004E+01  0.24573463570E-02  0.90007629695E+02  0.89999889607E+02 0.  0.
         12    1    1    2    0    0 -0.46282962338E+00  0.10858438004E+01 -0.24573463569E-02  0.11803703054E+01  0.00000000000E+00 0. -1.
         11    1    3    3    0    0 -0.84035673158E+01  0.11410211884E+02 -0.46636071755E+01  0.14918515711E+02  0.51100000000E-03 0. -1.
        -11    1    3    3    0    0  0.28718702127E+02 -0.17242487294E+02  0.28306629838E+02  0.43855815042E+02  0.51100000000E-03 0.  1.
         12    1    3    3    0    0 -0.19852305188E+02  0.47464316095E+01 -0.23640565316E+02  0.31233298941E+02  0.00000000000E+00 0. -1.
</event>
<event>
 7    1  0.4706525E-015  0.9000777E+02  0.7816164E-02  0.1186339E+00
        -11   -1    0    0    0    0  0.00000000000E+00  0.00000000000E+00  0.45593999997E+02  0.45594000000E+02  0.51100000000E-03 0. -1.
         11   -1    0    0    0    0 -0.00000000000E+00 -0.00000000000E+00 -0.45593999997E+02  0.45594000000E+02  0.51100000000E-03 0.  1.
    9900012    2    1    2    0    0  0.13487938071E+00 -0.92572893233E+00 -0.71956310759E+00  0.90007772238E+02  0.90000034032E+02 0.  0.
         12    1    1    2    0    0 -0.13487938071E+00  0.92572893233E+00  0.71956310759E+00  0.11802277616E+01  0.00000000000E+00 0. -1.
         11    1    3    3    0    0 -0.36442087633E+02 -0.11018380622E+02  0.16779393478E+02  0.41605029844E+02  0.51100000000E-03 0. -1.
        -11    1    3    3    0    0 -0.59950440717E+00  0.79485403259E+00 -0.91221889033E+01  0.91763570721E+01  0.51100000000E-03 0.  1.
        -12    1    3    3    0    0  0.37176471421E+02  0.92977976574E+01 -0.83767676819E+01  0.39226385322E+02  0.00000000000E+00 0.  1.
</event>
<event>
 7    1  0.3795708E-015  0.9000777E+02  0.7816164E-02  0.1186339E+00
        -11   -1    0    0    0    0  0.00000000000E+00  0.00000000000E+00  0.45593999997E+02  0.45594000000E+02  0.51100000000E-03 0.  1.
         11   -1    0    0    0    0 -0.00000000000E+00 -0.00000000000E+00 -0.45593999997E+02  0.45594000000E+02  0.51100000000E-03 0. -1.
    9900012    2    1    2    0    0  0.35288876967E+00  0.97189591034E+00 -0.56905145997E+00  0.90007774721E+02  0.90000036548E+02 0.  0.
         12    1    1    2    0    0 -0.35288876967E+00 -0.97189591034E+00  0.56905145997E+00  0.11802252787E+01  0.00000000000E+00 0. -1.
         11    1    3    3    0    0 -0.30991533127E+01  0.15792641411E+02 -0.36041351452E+02  0.39471398363E+02  0.51100000000E-03 0. -1.
        -11    1    3    3    0    0  0.21001390838E+01  0.10440520001E+02  0.93372216592E+01  0.14163288835E+02  0.51100000000E-03 0.  1.
        -12    1    3    3    0    0  0.13519029986E+01 -0.25261265502E+02  0.26135078333E+02  0.36373087523E+02  0.00000000000E+00 0.  1.
</event>
<event>
 7    1  0.3795708E-015  0.9000774E+02  0.7816164E-02  0.1186339E+00
        -11   -1    0    0    0    0  0.00000000000E+00  0.00000000000E+00  0.45593999997E+02  0.45594000000E+02  0.51100000000E-03 0.  1.
         11   -1    0    0    0    0 -0.00000000000E+00 -0.00000000000E+00 -0.45593999997E+02  0.45594000000E+02  0.51100000000E-03 0. -1.
    9900012    2    1    2    0    0  0.76531801189E+00  0.74218540029E+00  0.50643312704E+00  0.90007735055E+02  0.89999996358E+02 0.  0.
         12    1    1    2    0    0 -0.76531801189E+00 -0.74218540029E+00 -0.50643312704E+00  0.11802649448E+01  0.00000000000E+00 0. -1.
         11    1    3    3    0    0  0.47435491244E+01 -0.23637690208E+01  0.71740760736E+01  0.89194187058E+01  0.51100000000E-03 0. -1.
        -11    1    3    3    0    0 -0.26325242084E+02 -0.21498445014E+02  0.19140459672E+02  0.39007162234E+02  0.51100000000E-03 0.  1.
         12    1    3    3    0    0  0.22347010971E+02  0.24604399435E+02 -0.25808102618E+02  0.42081154116E+02  0.00000000000E+00 0. -1.
</event>
<event>
 7    1  0.3795708E-015  0.9000773E+02  0.7816164E-02  0.1186339E+00
        -11   -1    0    0    0    0  0.00000000000E+00  0.00000000000E+00  0.45593999997E+02  0.45594000000E+02  0.51100000000E-03 0. -1.
         11   -1    0    0    0    0 -0.00000000000E+00 -0.00000000000E+00 -0.45593999997E+02  0.45594000000E+02  0.51100000000E-03 0.  1.
    9900012    2    1    2    0    0  0.13399731469E+00  0.88351265153E+00 -0.77102542599E+00  0.90007733042E+02  0.89999994318E+02 0.  0.
         12    1    1    2    0    0 -0.13399731469E+00 -0.88351265153E+00  0.77102542599E+00  0.11802669585E+01  0.00000000000E+00 0. -1.
         11    1    3    3    0    0  0.41063233509E+01 -0.84029170775E+01 -0.29079415717E+01  0.97942345959E+01  0.51100000000E-03 0. -1.
        -11    1    3    3    0    0  0.30222541072E+02 -0.54481818128E+01 -0.20233252631E+02  0.36775932159E+02  0.51100000000E-03 0.  1.
         12    1    3    3    0    0 -0.34194867108E+02  0.14734611542E+02  0.22370168777E+02  0.43437566287E+02  0.00000000000E+00 0. -1.
</event>
<event>
 7    1  0.3795708E-015  0.9000774E+02  0.7816164E-02  0.1186339E+00
        -11   -1    0    0    0    0  0.00000000000E+00  0.00000000000E+00  0.45593999997E+02  0.45594000000E+02  0.51100000000E-03 0.  1.
         11   -1    0    0    0    0 -0.00000000000E+00 -0.00000000000E+00 -0.45593999997E+02  0.45594000000E+02  0.51100000000E-03 0. -1.
    9900012    2    1    2    0    0 -0.10922780056E+01  0.12814697038E+00  0.42839350149E+00  0.90007739910E+02  0.90000001277E+02 0.  0.
         12    1    1    2    0    0  0.10922780056E+01 -0.12814697038E+00 -0.42839350149E+00  0.11802600899E+01  0.00000000000E+00 0. -1.
         11    1    3    3    0    0 -0.65033300867E+01  0.10670168892E+01 -0.83216765828E+01  0.10615183873E+02  0.51100000000E-03 0. -1.
        -11    1    3    3    0    0  0.31675930644E+02  0.25319432168E+02 -0.23791612688E+01  0.40621406132E+02  0.51100000000E-03 0.  1.
         12    1    3    3    0    0 -0.26264878563E+02 -0.26258302087E+02  0.11129231353E+02  0.38771149905E+02  0.00000000000E+00 0. -1.
</event>
<event>
 7    1  0.3795708E-015  0.9000772E+02  0.7816164E-02  0.1186339E+00
        -11   -1    0    0    0    0  0.00000000000E+00  0.00000000000E+00  0.45593999997E+02  0.45594000000E+02  0.51100000000E-03 0. -1.
         11   -1    0    0    0    0 -0.00000000000E+00 -0.00000000000E+00 -0.45593999997E+02  0.45594000000E+02  0.51100000000E-03 0.  1.
    9900012    2    1    2    0    0  0.23319226966E+00 -0.26768056067E+00 -0.11256265585E+01  0.90007717548E+02  0.89999978620E+02 0.  0.
         12    1    1    2    0    0 -0.23319226966E+00  0.26768056067E+00  0.11256265585E+01  0.11802824519E+01  0.00000000000E+00 0. -1.
         11    1    3    3    0    0  0.17635883083E+01  0.89900537513E+01  0.34588993801E+01  0.97926143269E+01  0.51100000000E-03 0. -1.
        -11    1    3    3    0    0 -0.10725482598E+02  0.28734346268E+02 -0.21671510366E+02  0.37554666744E+02  0.51100000000E-03 0.  1.
         12    1    3    3    0    0  0.91950865598E+01 -0.37992080580E+02  0.17086984427E+02  0.42660436478E+02  0.00000000000E+00 0. -1.
</event>
<event>
 7    1  0.3795708E-015  0.9000779E+02  0.7816164E-02  0.1186339E+00
        -11   -1    0    0    0    0  0.00000000000E+00  0.00000000000E+00  0.45593999997E+02  0.45594000000E+02  0.51100000000E-03 0.  1.
         11   -1    0    0    0    0 -0.00000000000E+00 -0.00000000000E+00 -0.45593999997E+02  0.45594000000E+02  0.51100000000E-03 0. -1.
    9900012    2    1    2    0    0  0.65103610056E+00  0.81911479001E+00  0.54599122812E+00  0.90007786687E+02  0.90000048671E+02 0.  0.
         12    1    1    2    0    0 -0.65103610056E+00 -0.81911479001E+00 -0.54599122812E+00  0.11802133132E+01  0.00000000000E+00 0. -1.
         11    1    3    3    0    0 -0.22452822816E+01 -0.33572450316E+02 -0.53002885671E+01  0.34062351238E+02  0.51100000000E-03 0. -1.
        -11    1    3    3    0    0 -0.15834898805E+02  0.17296819479E+01  0.87638409059E+01  0.18180779067E+02  0.51100000000E-03 0.  1.
        -12    1    3    3    0    0  0.18731217187E+02  0.32661883158E+02 -0.29175611107E+01  0.37764656381E+02  0.00000000000E+00 0.  1.
</event>
<event>
 7    1  0.3795708E-015  0.9000769E+02  0.7816164E-02  0.1186339E+00
        -11   -1    0    0    0    0  0.00000000000E+00  0.00000000000E+00  0.45593999997E+02  0.45594000000E+02  0.51100000000E-03 0.  1.
         11   -1    0    0    0    0 -0.00000000000E+00 -0.00000000000E+00 -0.45593999997E+02  0.45594000000E+02  0.51100000000E-03 0. -1.
    9900012    2    1    2    0    0  0.44454107841E-01  0.36913581708E+00  0.11202185152E+01  0.90007692014E+02  0.89999952749E+02 0.  0.
         12    1    1    2    0    0 -0.44454107841E-01 -0.36913581708E+00 -0.11202185152E+01  0.11803079856E+01  0.00000000000E+00 0. -1.
         11    1    3    3    0    0  0.86683237985E+01 -0.59322153154E+01 -0.37445858604E+02  0.38891173071E+02  0.51100000000E-03 0. -1.
        -11    1    3    3    0    0 -0.72483595645E+01 -0.14808135355E+01 -0.35920950306E+01  0.82240301601E+01  0.51100000000E-03 0.  1.
        -12    1    3    3    0    0 -0.13755101261E+01  0.77821646681E+01  0.42158172149E+02  0.42892488783E+02  0.00000000000E+00 0.  1.
</event>
<event>
 7    1  0.3795708E-015  0.9000767E+02  0.7816164E-02  0.1186339E+00
        -11   -1    0    0    0    0  0.00000000000E+00  0.00000000000E+00  0.45593999997E+02  0.45594000000E+02  0.51100000000E-03 0.  1.
         11   -1    0    0    0    0 -0.00000000000E+00 -0.00000000000E+00 -0.45593999997E+02  0.45594000000E+02  0.51100000000E-03 0. -1.
    9900012    2    1    2    0    0  0.11484048832E+01  0.19628350574E+00  0.18926858435E+00  0.90007668018E+02  0.89999928436E+02 0.  0.
         12    1    1    2    0    0 -0.11484048832E+01 -0.19628350574E+00 -0.18926858435E+00  0.11803319819E+01  0.00000000000E+00 0. -1.
         11    1    3    3    0    0  0.92408400968E-01 -0.29556019716E+01 -0.10114093060E+02  0.10537504497E+02  0.51100000000E-03 0. -1.
        -11    1    3    3    0    0  0.38516862110E+02 -0.14383499361E+01 -0.47550491398E+01  0.38835911344E+02  0.51100000000E-03 0.  1.
         12    1    3    3    0    0 -0.37460865627E+02  0.45902354134E+01  0.15058410784E+02  0.40634252178E+02  0.00000000000E+00 0. -1.
</event>
<event>
 7    1  0.3795708E-015  0.9000767E+02  0.7816164E-02  0.1186339E+00
        -11   -1    0    0    0    0  0.00000000000E+00  0.00000000000E+00  0.45593999997E+02  0.45594000000E+02  0.51100000000E-03 0.  1.
         11   -1    0    0    0    0 -0.00000000000E+00 -0.00000000000E+00 -0.45593999997E+02  0.45594000000E+02  0.51100000000E-03 0. -1.
    9900012    2    1    2    0    0 -0.54978856661E+00  0.10307094620E+01 -0.16894619170E+00  0.90007672809E+02  0.89999933290E+02 0.  0.
         12    1    1    2    0    0  0.54978856661E+00 -0.10307094620E+01  0.16894619170E+00  0.11803271914E+01  0.00000000000E+00 0. -1.
         11    1    3    3    0    0  0.27641140354E+02 -0.23522813858E+02  0.11782459581E+01  0.36314510538E+02  0.51100000000E-03 0. -1.
        -11    1    3    3    0    0  0.37523506404E+01 -0.24124566396E+01 -0.10047991187E+02  0.10993735012E+02  0.51100000000E-03 0.  1.
        -12    1    3    3    0    0 -0.31943279561E+02  0.26965979959E+02  0.87007990371E+01  0.42699427258E+02  0.00000000000E+00 0.  1.
</event>
<event>
 7    1  0.3795708E-015  0.9000776E+02  0.7816164E-02  0.1186339E+00
        -11   -1    0    0    0    0  0.00000000000E+00  0.00000000000E+00  0.45593999997E+02  0.45594000000E+02  0.51100000000E-03 0. -1.
         11   -1    0    0    0    0 -0.00000000000E+00 -0.00000000000E+00 -0.45593999997E+02  0.45594000000E+02  0.51100000000E-03 0.  1.
    9900012    2    1    2    0    0 -0.62272957554E+00  0.41638378930E+00 -0.91202563546E+00  0.90007763437E+02  0.90000025115E+02 0.  0.
         12    1    1    2    0    0  0.62272957554E+00 -0.41638378930E+00  0.91202563546E+00  0.11802365627E+01  0.00000000000E+00 0. -1.
         11    1    3    3    0    0 -0.12758887999E+02  0.73065009557E+01  0.16594861010E+02  0.22171233421E+02  0.51100000000E-03 0. -1.
        -11    1    3    3    0    0 -0.43627565073E+01  0.21034461140E+02  0.11461978667E+02  0.24348699247E+02  0.51100000000E-03 0.  1.
        -12    1    3    3    0    0  0.16498914931E+02 -0.27924578307E+02 -0.28968865313E+02  0.43487830769E+02  0.00000000000E+00 0.  1.
</event>
<event>
 7    1  0.3795708E-015  0.9000771E+02  0.7816164E-02  0.1186339E+00
        -11   -1    0    0    0    0  0.00000000000E+00  0.00000000000E+00  0.45593999997E+02  0.45594000000E+02  0.51100000000E-03 0.  1.
         11   -1    0    0    0    0 -0.00000000000E+00 -0.00000000000E+00 -0.45593999997E+02  0.45594000000E+02  0.51100000000E-03 0. -1.
    9900012    2    1    2    0    0 -0.10088894499E+01 -0.28804564052E-01  0.61187925901E+00  0.90007710267E+02  0.89999971243E+02 0.  0.
         12    1    1    2    0    0  0.10088894499E+01  0.28804564052E-01 -0.61187925901E+00  0.11802897325E+01  0.00000000000E+00 0. -1.
         11    1    3    3    0    0  0.19729855783E+02  0.12191892327E+01  0.16359731200E+02  0.25659197898E+02  0.51100000000E-03 0. -1.
        -11    1    3    3    0    0 -0.23190209288E+01  0.90551646060E+01  0.20428629484E+02  0.22465590733E+02  0.51100000000E-03 0.  1.
        -12    1    3    3    0    0 -0.18419724304E+02 -0.10303158403E+02 -0.36176481425E+02  0.41882921636E+02  0.00000000000E+00 0.  1.
</event>
<event>
 7    1  0.3795708E-015  0.9000773E+02  0.7816164E-02  0.1186339E+00
        -11   -1    0    0    0    0  0.00000000000E+00  0.00000000000E+00  0.45593999997E+02  0.45594000000E+02  0.51100000000E-03 0.  1.
         11   -1    0    0    0    0 -0.00000000000E+00 -0.00000000000E+00 -0.45593999997E+02  0.45594000000E+02  0.51100000000E-03 0. -1.
    9900012    2    1    2    0    0  0.80537617032E+00 -0.86006699115E+00 -0.68417589203E-01  0.90007734364E+02  0.89999995658E+02 0.  0.
         12    1    1    2    0    0 -0.80537617032E+00  0.86006699115E+00  0.68417589203E-01  0.11802656360E+01  0.00000000000E+00 0. -1.
         11    1    3    3    0    0  0.36089975536E+02 -0.12897075785E+02  0.26305002983E+01  0.38415367108E+02  0.51100000000E-03 0. -1.
        -11    1    3    3    0    0  0.18781223648E+01  0.20541793070E+01  0.10537796594E+02  0.10899181325E+02  0.51100000000E-03 0.  1.
        -12    1    3    3    0    0 -0.37162721730E+02  0.99828294871E+01 -0.13236714481E+02  0.40693185931E+02  0.00000000000E+00 0.  1.
</event>
<event>
 7    1  0.3795708E-015  0.9000779E+02  0.7816164E-02  0.1186339E+00
        -11   -1    0    0    0    0  0.00000000000E+00  0.00000000000E+00  0.45593999997E+02  0.45594000000E+02  0.51100000000E-03 0.  1.
         11   -1    0    0    0    0 -0.00000000000E+00 -0.00000000000E+00 -0.45593999997E+02  0.45594000000E+02  0.51100000000E-03 0. -1.
    9900012    2    1    2    0    0 -0.51650837090E+00  0.10149015097E+01 -0.30998250190E+00  0.90007790221E+02  0.90000052252E+02 0.  0.
         12    1    1    2    0    0  0.51650837090E+00 -0.10149015097E+01  0.30998250190E+00  0.11802097793E+01  0.00000000000E+00 0. -1.
         11    1    3    3    0    0  0.53349881424E+01  0.67719426597E+00  0.66911509996E+01  0.85844156769E+01  0.51100000000E-03 0. -1.
        -11    1    3    3    0    0 -0.32734479993E+01 -0.33416257238E+02  0.19143807294E+02  0.38650317819E+02  0.51100000000E-03 0.  1.
         12    1    3    3    0    0 -0.25780485140E+01  0.33753964481E+02 -0.26144940796E+02  0.42773056724E+02  0.00000000000E+00 0. -1.
</event>
<event>
 7    1  0.3795708E-015  0.9000760E+02  0.7816164E-02  0.1186339E+00
        -11   -1    0    0    0    0  0.00000000000E+00  0.00000000000E+00  0.45593999997E+02  0.45594000000E+02  0.51100000000E-03 0.  1.
         11   -1    0    0    0    0 -0.00000000000E+00 -0.00000000000E+00 -0.45593999997E+02  0.45594000000E+02  0.51100000000E-03 0. -1.
    9900012    2    1    2    0    0  0.63650093164E+00 -0.10295293299E-01  0.99403109377E+00  0.90007602929E+02  0.89999862488E+02 0.  0.
         12    1    1    2    0    0 -0.63650093164E+00  0.10295293299E-01 -0.99403109377E+00  0.11803970707E+01  0.00000000000E+00 0. -1.
         11    1    3    3    0    0  0.72657717333E+01 -0.71685234756E+01  0.47866351422E+00  0.10218037322E+02  0.51100000000E-03 0. -1.
        -11    1    3    3    0    0  0.89052864329E+00  0.41330698093E+02  0.11857331706E+02  0.43007161747E+02  0.51100000000E-03 0.  1.
         12    1    3    3    0    0 -0.75197994450E+01 -0.34172469910E+02 -0.11341964126E+02  0.36782403860E+02  0.00000000000E+00 0. -1.
</event>
<event>
 7    1  0.3795708E-015  0.9000773E+02  0.7816164E-02  0.1186339E+00
        -11   -1    0    0    0    0  0.00000000000E+00  0.00000000000E+00  0.45593999997E+02  0.45594000000E+02  0.51100000000E-03 0. -1.
         11   -1    0    0    0    0 -0.00000000000E+00 -0.00000000000E+00 -0.45593999997E+02  0.45594000000E+02  0.51100000000E-03 0.  1.
    9900012    2    1    2    0    0 -0.84837090388E+00 -0.82040647544E+00 -0.15584065228E-01  0.90007727642E+02  0.89999988847E+02 0.  0.
         12    1    1    2    0    0  0.84837090388E+00  0.82040647544E+00  0.15584065228E-01  0.11802723578E+01  0.00000000000E+00 0. -1.
         11    1    3    3    0    0  0.17288074848E+01  0.38112812202E+02  0.31887040390E+01  0.38285024003E+02  0.51100000000E-03 0. -1.
        -11    1    3    3    0    0 -0.60542700048E+01  0.48149639303E+01 -0.63017343684E+00  0.77611327629E+01  0.51100000000E-03 0.  1.
        -12    1    3    3    0    0  0.34770916162E+01 -0.43748182607E+02 -0.25741146674E+01  0.43961570876E+02  0.00000000000E+00 0.  1.
</event>
<event>
 7    1  0.3795708E-015  0.9000775E+02  0.7816164E-02  0.1186339E+00
        -11   -1    0    0    0    0  0.00000000000E+00  0.00000000000E+00  0.45593999997E+02  0.45594000000E+02  0.51100000000E-03 0.  1.
         11   -1    0    0    0    0 -0.00000000000E+00 -0.00000000000E+00 -0.45593999997E+02  0.45594000000E+02  0.51100000000E-03 0. -1.
    9900012    2    1    2    0    0  0.74030528610E+00 -0.23928700198E+00  0.88751287545E+00  0.90007750327E+02  0.90000011832E+02 0.  0.
         12    1    1    2    0    0 -0.74030528610E+00  0.23928700198E+00 -0.88751287545E+00  0.11802496728E+01  0.00000000000E+00 0. -1.
         11    1    3    3    0    0 -0.56944707167E+01  0.56135622911E+01 -0.53005539460E+01  0.95934848066E+01  0.51100000000E-03 0. -1.
        -11    1    3    3    0    0 -0.17588881984E+02  0.98457079609E+01  0.34592062317E+02  0.40036452269E+02  0.51100000000E-03 0.  1.
         12    1    3    3    0    0  0.24023657987E+02 -0.15698557254E+02 -0.28403995495E+02  0.40377813252E+02  0.00000000000E+00 0. -1.
</event>
<event>
 7    1  0.3795708E-015  0.9000758E+02  0.7816164E-02  0.1186339E+00
        -11   -1    0    0    0    0  0.00000000000E+00  0.00000000000E+00  0.45593999997E+02  0.45594000000E+02  0.51100000000E-03 0.  1.
         11   -1    0    0    0    0 -0.00000000000E+00 -0.00000000000E+00 -0.45593999997E+02  0.45594000000E+02  0.51100000000E-03 0. -1.
    9900012    2    1    2    0    0 -0.11077890789E+01 -0.31442030138E+00  0.25947415925E+00  0.90007583290E+02  0.89999842590E+02 0.  0.
         12    1    1    2    0    0  0.11077890789E+01  0.31442030138E+00 -0.25947415925E+00  0.11804167097E+01  0.00000000000E+00 0. -1.
         11    1    3    3    0    0 -0.14304506856E+02 -0.17500804870E+02 -0.36052195367E+02  0.42551825796E+02  0.51100000000E-03 0. -1.
        -11    1    3    3    0    0 -0.16157052539E+01  0.11148394229E+02  0.50616647314E+01  0.12349803540E+02  0.51100000000E-03 0.  1.
        -12    1    3    3    0    0  0.14812423031E+02  0.60379903395E+01  0.31250004795E+02  0.35105953955E+02  0.00000000000E+00 0.  1.
</event>
<event>
 7    1  0.3795708E-015  0.9000776E+02  0.7816164E-02  0.1186339E+00
        -11   -1    0    0    0    0  0.00000000000E+00  0.00000000000E+00  0.45593999997E+02  0.45594000000E+02  0.51100000000E-03 0.  1.
         11   -1    0    0    0    0 -0.00000000000E+00 -0.00000000000E+00 -0.45593999997E+02  0.45594000000E+02  0.51100000000E-03 0. -1.
    9900012    2    1    2    0    0  0.23912342814E+00 -0.66868641660E+00  0.94268393517E+00  0.90007756576E+02  0.90000018163E+02 0.  0.
         12    1    1    2    0    0 -0.23912342814E+00  0.66868641660E+00 -0.94268393517E+00  0.11802434237E+01  0.00000000000E+00 0. -1.
         11    1    3    3    0    0 -0.97888683522E+01  0.30314595790E+01 -0.43452193045E+01  0.11130706261E+02  0.51100000000E-03 0. -1.
        -11    1    3    3    0    0 -0.33572122814E+02  0.51253028573E+01 -0.84690713590E+00  0.33971656003E+02  0.51100000000E-03 0.  1.
         12    1    3    3    0    0  0.43600114594E+02 -0.88254488529E+01  0.61348103756E+01  0.44905394313E+02  0.00000000000E+00 0. -1.
</event>
<event>
 7    1  0.3795708E-015  0.9000772E+02  0.7816164E-02  0.1186339E+00
        -11   -1    0    0    0    0  0.00000000000E+00  0.00000000000E+00  0.45593999997E+02  0.45594000000E+02  0.51100000000E-03 0. -1.
         11   -1    0    0    0    0 -0.00000000000E+00 -0.00000000000E+00 -0.45593999997E+02  0.45594000000E+02  0.51100000000E-03 0.  1.
    9900012    2    1    2    0    0  0.29103791838E+00  0.36257281455E+00 -0.10848471378E+01  0.90007722309E+02  0.89999983443E+02 0.  0.
         12    1    1    2    0    0 -0.29103791838E+00 -0.36257281455E+00  0.10848471378E+01  0.11802776911E+01  0.00000000000E+00 0. -1.
         11    1    3    3    0    0  0.80855310712E+01  0.45386910734E+01 -0.36124758527E+01  0.99511562851E+01  0.51100000000E-03 0. -1.
        -11    1    3    3    0    0  0.30179577805E+01  0.22630831672E+00 -0.37877743332E+02  0.37998456874E+02  0.51100000000E-03 0.  1.
         12    1    3    3    0    0 -0.10812450933E+02 -0.44024265756E+01  0.40405372047E+02  0.42058109149E+02  0.00000000000E+00 0. -1.
</event>
<event>
 7    1  0.3795708E-015  0.9000777E+02  0.7816164E-02  0.1186339E+00
        -11   -1    0    0    0    0  0.00000000000E+00  0.00000000000E+00  0.45593999997E+02  0.45594000000E+02  0.51100000000E-03 0. -1.
         11   -1    0    0    0    0 -0.00000000000E+00 -0.00000000000E+00 -0.45593999997E+02  0.45594000000E+02  0.51100000000E-03 0.  1.
    9900012    2    1    2    0    0  0.65625736477E-01 -0.11458109872E+01  0.27525018565E+00  0.90007766032E+02  0.90000027743E+02 0.  0.
         12    1    1    2    0    0 -0.65625736477E-01  0.11458109872E+01 -0.27525018565E+00  0.11802339685E+01  0.00000000000E+00 0. -1.
         11    1    3    3    0    0 -0.27287575663E+02 -0.13598630477E+02  0.20709110213E+02  0.36856502581E+02  0.51100000000E-03 0. -1.
        -11    1    3    3    0    0 -0.40501710545E+01 -0.23398501697E+01  0.73338987661E+01  0.86985548087E+01  0.51100000000E-03 0.  1.
        -12    1    3    3    0    0  0.31403372454E+02  0.14792669660E+02 -0.27767758794E+02  0.44452708642E+02  0.00000000000E+00 0.  1.
</event>
<event>
 7    1  0.3795708E-015  0.9000775E+02  0.7816164E-02  0.1186339E+00
        -11   -1    0    0    0    0  0.00000000000E+00  0.00000000000E+00  0.45593999997E+02  0.45594000000E+02  0.51100000000E-03 0. -1.
         11   -1    0    0    0    0 -0.00000000000E+00 -0.00000000000E+00 -0.45593999997E+02  0.45594000000E+02  0.51100000000E-03 0.  1.
    9900012    2    1    2    0    0 -0.10747090484E+01  0.42766501368E+00 -0.23471329630E+00  0.90007751198E+02  0.90000012714E+02 0.  0.
         12    1    1    2    0    0  0.10747090484E+01 -0.42766501368E+00  0.23471329630E+00  0.11802488018E+01  0.00000000000E+00 0. -1.
         11    1    3    3    0    0 -0.35278232557E+02 -0.14256761834E+02 -0.25960104944E+01  0.38138539839E+02  0.51100000000E-03 0. -1.
        -11    1    3    3    0    0 -0.57144545008E+01 -0.31928786451E+01 -0.39990251421E+01  0.76708321995E+01  0.51100000000E-03 0.  1.
        -12    1    3    3    0    0  0.39917978010E+02  0.17877305493E+02  0.63603223402E+01  0.44198379159E+02  0.00000000000E+00 0.  1.
</event>
<event>
 7    1  0.3795708E-015  0.9000768E+02  0.7816164E-02  0.1186339E+00
        -11   -1    0    0    0    0  0.00000000000E+00  0.00000000000E+00  0.45593999997E+02  0.45594000000E+02  0.51100000000E-03 0. -1.
         11   -1    0    0    0    0 -0.00000000000E+00 -0.00000000000E+00 -0.45593999997E+02  0.45594000000E+02  0.51100000000E-03 0.  1.
    9900012    2    1    2    0    0  0.54578502503E+00  0.10248295662E+01 -0.21214669019E+00  0.90007676675E+02  0.89999937207E+02 0.  0.
         12    1    1    2    0    0 -0.54578502503E+00 -0.10248295662E+01  0.21214669019E+00  0.11803233250E+01  0.00000000000E+00 0. -1.
         11    1    3    3    0    0 -0.95883056898E+01  0.15350517319E+02  0.27284755920E+02  0.32741898140E+02  0.51100000000E-03 0. -1.
        -11    1    3    3    0    0 -0.71814107221E+01  0.64890244699E+01  0.80449660708E+01  0.12585768863E+02  0.51100000000E-03 0.  1.
        -12    1    3    3    0    0  0.17315501437E+02 -0.20814712222E+02 -0.35541868681E+02  0.44680009672E+02  0.00000000000E+00 0.  1.
</event>
<event>
 7    1  0.3795708E-015  0.9000778E+02  0.7816164E-02  0.1186339E+00
        -11   -1    0    0    0    0  0.00000000000E+00  0.00000000000E+00  0.45593999997E+02  0.45594000000E+02  0.51100000000E-03 0.  1.
         11   -1    0    0    0    0 -0.00000000000E+00 -0.00000000000E+00 -0.45593999997E+02  0.45594000000E+02  0.51100000000E-03 0. -1.
    9900012    2    1    2    0    0 -0.91233270670E+00  0.68676092185E+00  0.29819101724E+00  0.90007784166E+02  0.90000046117E+02 0.  0.
         12    1    1    2    0    0  0.91233270670E+00 -0.68676092185E+00 -0.29819101724E+00  0.11802158338E+01  0.00000000000E+00 0. -1.
         11    1    3    3    0    0  0.23526961035E+02  0.43950357156E+01 -0.34785341818E+02  0.42223858660E+02  0.51100000000E-03 0. -1.
        -11    1    3    3    0    0  0.15743967126E+01  0.33604789948E+01  0.22460918483E+00  0.37177941888E+01  0.51100000000E-03 0.  1.
        -12    1    3    3    0    0 -0.26013690454E+02 -0.70687537886E+01  0.34858923651E+02  0.44066131317E+02  0.00000000000E+00 0.  1.
</event>
<event>
 7    1  0.3795708E-015  0.9000769E+02  0.7816164E-02  0.1186339E+00
        -11   -1    0    0    0    0  0.00000000000E+00  0.00000000000E+00  0.45593999997E+02  0.45594000000E+02  0.51100000000E-03 0.  1.
         11   -1    0    0    0    0 -0.00000000000E+00 -0.00000000000E+00 -0.45593999997E+02  0.45594000000E+02  0.51100000000E-03 0. -1.
    9900012    2    1    2    0    0  0.11486015586E+00  0.10645630507E+01  0.49663840136E+00  0.90007687734E+02  0.89999948412E+02 0.  0.
         12    1    1    2    0    0 -0.11486015586E+00 -0.10645630507E+01 -0.49663840136E+00  0.11803122663E+01  0.00000000000E+00 0. -1.
         11    1    3    3    0    0  0.99953795376E+01 -0.41236087565E+01  0.30720320111E+01  0.11240513432E+02  0.51100000000E-03 0. -1.
        -11    1    3    3    0    0  0.30983662491E+02  0.78661194839E+00  0.14553117667E+02  0.34240317373E+02  0.51100000000E-03 0.  1.
         12    1    3    3    0    0 -0.40864181873E+02  0.44015598588E+01 -0.17128511277E+02  0.44526856928E+02  0.00000000000E+00 0. -1.
</event>
<event>
 7    1  0.3795708E-015  0.9000774E+02  0.7816164E-02  0.1186339E+00
        -11   -1    0    0    0    0  0.00000000000E+00  0.00000000000E+00  0.45593999997E+02  0.45594000000E+02  0.51100000000E-03 0.  1.
         11   -1    0    0    0    0 -0.00000000000E+00 -0.00000000000E+00 -0.45593999997E+02  0.45594000000E+02  0.51100000000E-03 0. -1.
    9900012    2    1    2    0    0 -0.11708456274E+01 -0.13650708129E+00 -0.59163341901E-01  0.90007739873E+02  0.90000001239E+02 0.  0.
         12    1    1    2    0    0  0.11708456274E+01  0.13650708129E+00  0.59163341901E-01  0.11802601270E+01  0.00000000000E+00 0. -1.
         11    1    3    3    0    0  0.77353248122E+01 -0.36925434830E+02 -0.29213416651E+01  0.37839889333E+02  0.51100000000E-03 0. -1.
        -11    1    3    3    0    0 -0.17850102737E+01 -0.55835912891E+01  0.68507146469E+01  0.90163764781E+01  0.51100000000E-03 0.  1.
        -12    1    3    3    0    0 -0.71211601659E+01  0.42372519038E+02 -0.39885363237E+01  0.43151474062E+02  0.00000000000E+00 0.  1.
</event>
<event>
 7    1  0.3795708E-015  0.9000774E+02  0.7816164E-02  0.1186339E+00
        -11   -1    0    0    0    0  0.00000000000E+00  0.00000000000E+00  0.45593999997E+02  0.45594000000E+02  0.51100000000E-03 0. -1.
         11   -1    0    0    0    0 -0.00000000000E+00 -0.00000000000E+00 -0.45593999997E+02  0.45594000000E+02  0.51100000000E-03 0.  1.
    9900012    2    1    2    0    0  0.11700883123E+01  0.13619106817E+00  0.73181354148E-01  0.90007741479E+02  0.90000002867E+02 0.  0.
         12    1    1    2    0    0 -0.11700883123E+01 -0.13619106817E+00 -0.73181354148E-01  0.11802585210E+01  0.00000000000E+00 0. -1.
         11    1    3    3    0    0  0.37065293615E+02 -0.14552842726E+02  0.12965777719E+02  0.41877590837E+02  0.51100000000E-03 0. -1.
        -11    1    3    3    0    0  0.23187617098E+01  0.44338609276E+01 -0.62568107817E+01  0.80114580453E+01  0.51100000000E-03 0.  1.
        -12    1    3    3    0    0 -0.38213967013E+02  0.10255172867E+02 -0.66357855828E+01  0.40118692597E+02  0.00000000000E+00 0.  1.
</event>
<event>
 7    1  0.3795708E-015  0.9000776E+02  0.7816164E-02  0.1186339E+00
        -11   -1    0    0    0    0  0.00000000000E+00  0.00000000000E+00  0.45593999997E+02  0.45594000000E+02  0.51100000000E-03 0.  1.
         11   -1    0    0    0    0 -0.00000000000E+00 -0.00000000000E+00 -0.45593999997E+02  0.45594000000E+02  0.51100000000E-03 0. -1.
    9900012    2    1    2    0    0 -0.87217964206E+00 -0.20493807924E+00  0.76829373906E+00  0.90007757561E+02  0.90000019161E+02 0.  0.
         12    1    1    2    0    0  0.87217964206E+00  0.20493807924E+00 -0.76829373906E+00  0.11802424386E+01  0.00000000000E+00 0. -1.
         11    1    3    3    0    0  0.45379264727E+01 -0.27735444884E+01 -0.89813550035E+01  0.10437914718E+02  0.51100000000E-03 0. -1.
        -11    1    3    3    0    0  0.18135113729E+02  0.21276828524E+02 -0.22195669470E+02  0.35696407739E+02  0.51100000000E-03 0.  1.
         12    1    3    3    0    0 -0.23545219843E+02 -0.18708222115E+02  0.31945318213E+02  0.43873435104E+02  0.00000000000E+00 0. -1.
</event>
<event>
 7    1  0.3795708E-015  0.9000771E+02  0.7816164E-02  0.1186339E+00
        -11   -1    0    0    0    0  0.00000000000E+00  0.00000000000E+00  0.45593999997E+02  0.45594000000E+02  0.51100000000E-03 0.  1.
         11   -1    0    0    0    0 -0.00000000000E+00 -0.00000000000E+00 -0.45593999997E+02  0.45594000000E+02  0.51100000000E-03 0. -1.
    9900012    2    1    2    0    0 -0.28902804195E+00 -0.98676403717E+00  0.57952088903E+00  0.90007709809E+02  0.89999970778E+02 0.  0.
         12    1    1    2    0    0  0.28902804195E+00  0.98676403717E+00 -0.57952088903E+00  0.11802901910E+01  0.00000000000E+00 0. -1.
         11    1    3    3    0    0  0.38095212850E+02  0.13121879917E+02  0.78694380210E+01  0.41053100122E+02  0.51100000000E-03 0. -1.
        -11    1    3    3    0    0 -0.79316253605E+00 -0.92955460626E+01 -0.58854659162E+01  0.11030638817E+02  0.51100000000E-03 0.  1.
        -12    1    3    3    0    0 -0.37591078356E+02 -0.48130978917E+01 -0.14044512159E+01  0.37923970869E+02  0.00000000000E+00 0.  1.
</event>
<event>
 7    1  0.3795708E-015  0.9000775E+02  0.7816164E-02  0.1186339E+00
        -11   -1    0    0    0    0  0.00000000000E+00  0.00000000000E+00  0.45593999997E+02  0.45594000000E+02  0.51100000000E-03 0.  1.
         11   -1    0    0    0    0 -0.00000000000E+00 -0.00000000000E+00 -0.45593999997E+02  0.45594000000E+02  0.51100000000E-03 0. -1.
    9900012    2    1    2    0    0  0.89518574401E+00  0.19469666708E+00  0.74412090089E+00  0.90007754168E+02  0.90000015723E+02 0.  0.
         12    1    1    2    0    0 -0.89518574401E+00 -0.19469666708E+00 -0.74412090089E+00  0.11802458318E+01  0.00000000000E+00 0. -1.
         11    1    3    3    0    0 -0.15873861612E+02 -0.65879191222E+01 -0.30310587088E+02  0.34844107833E+02  0.51100000000E-03 0. -1.
        -11    1    3    3    0    0 -0.21021479812E+01 -0.61057770435E+01 -0.77758721987E+01  0.10107607439E+02  0.51100000000E-03 0.  1.
        -12    1    3    3    0    0  0.18871195337E+02  0.12888392833E+02  0.38830580187E+02  0.45056038895E+02  0.00000000000E+00 0.  1.
</event>
<event>
 7    1  0.3795708E-015  0.9000779E+02  0.7816164E-02  0.1186339E+00
        -11   -1    0    0    0    0  0.00000000000E+00  0.00000000000E+00  0.45593999997E+02  0.45594000000E+02  0.51100000000E-03 0.  1.
         11   -1    0    0    0    0 -0.00000000000E+00 -0.00000000000E+00 -0.45593999997E+02  0.45594000000E+02  0.51100000000E-03 0. -1.
    9900012    2    1    2    0    0  0.97859771604E+00  0.63918007075E+00  0.16339343639E+00  0.90007787279E+02  0.90000049271E+02 0.  0.
         12    1    1    2    0    0 -0.97859771604E+00 -0.63918007075E+00 -0.16339343639E+00  0.11802127214E+01  0.00000000000E+00 0. -1.
         11    1    3    3    0    0 -0.67336875315E+01  0.19009287333E+01  0.68829402027E+01  0.98148328521E+01  0.51100000000E-03 0. -1.
        -11    1    3    3    0    0 -0.11792264105E+02  0.16535610460E+02  0.29227200080E+02  0.35590913599E+02  0.51100000000E-03 0.  1.
         12    1    3    3    0    0  0.19504549352E+02 -0.17797359123E+02 -0.35946746846E+02  0.44602040828E+02  0.00000000000E+00 0. -1.
</event>
<event>
 7    1  0.3795708E-015  0.9000772E+02  0.7816164E-02  0.1186339E+00
        -11   -1    0    0    0    0  0.00000000000E+00  0.00000000000E+00  0.45593999997E+02  0.45594000000E+02  0.51100000000E-03 0.  1.
         11   -1    0    0    0    0 -0.00000000000E+00 -0.00000000000E+00 -0.45593999997E+02  0.45594000000E+02  0.51100000000E-03 0. -1.
    9900012    2    1    2    0    0  0.10887710515E+01  0.90643905840E-01 -0.44657752424E+00  0.90007716049E+02  0.89999977101E+02 0.  0.
         12    1    1    2    0    0 -0.10887710515E+01 -0.90643905840E-01  0.44657752424E+00  0.11802839512E+01  0.00000000000E+00 0. -1.
         11    1    3    3    0    0 -0.11602074218E-01  0.47443189964E+01  0.81676345180E+01  0.94455783956E+01  0.51100000000E-03 0. -1.
        -11    1    3    3    0    0  0.40498695750E+02 -0.32245020549E+01 -0.57828233647E+01  0.41036359698E+02  0.51100000000E-03 0.  1.
         12    1    3    3    0    0 -0.39398322624E+02 -0.14291730356E+01 -0.28313886775E+01  0.39525777955E+02  0.00000000000E+00 0. -1.
</event>
<event>
 7    1  0.3795708E-015  0.9000794E+02  0.7816164E-02  0.1186339E+00
        -11   -1    0    0    0    0  0.00000000000E+00  0.00000000000E+00  0.45593999997E+02  0.45594000000E+02  0.51100000000E-03 0. -1.
         11   -1    0    0    0    0 -0.00000000000E+00 -0.00000000000E+00 -0.45593999997E+02  0.45594000000E+02  0.51100000000E-03 0.  1.
    9900012    2    1    2    0    0 -0.60025078924E+00  0.16145911265E+00 -0.10030776875E+01  0.90007942839E+02  0.90000206885E+02 0.  0.
         12    1    1    2    0    0  0.60025078924E+00 -0.16145911265E+00  0.10030776875E+01  0.11800571605E+01  0.00000000000E+00 0. -1.
         11    1    3    3    0    0  0.80960679495E+01 -0.19389430314E+02  0.29642828932E+02  0.36334468917E+02  0.51100000000E-03 0. -1.
        -11    1    3    3    0    0 -0.71596650875E+01 -0.10338364393E+02 -0.16008204646E+02  0.20356944730E+02  0.51100000000E-03 0.  1.
        -12    1    3    3    0    0 -0.15366536512E+01  0.29889253820E+02 -0.14637701973E+02  0.33316529192E+02  0.00000000000E+00 0.  1.
</event>
<event>
 7    1  0.3795708E-015  0.9000795E+02  0.7816164E-02  0.1186339E+00
        -11   -1    0    0    0    0  0.00000000000E+00  0.00000000000E+00  0.45593999997E+02  0.45594000000E+02  0.51100000000E-03 0.  1.
         11   -1    0    0    0    0 -0.00000000000E+00 -0.00000000000E+00 -0.45593999997E+02  0.45594000000E+02  0.51100000000E-03 0. -1.
    9900012    2    1    2    0    0 -0.69619206411E+00 -0.54936680597E+00  0.77847525141E+00  0.90007952969E+02  0.90000217148E+02 0.  0.
         12    1    1    2    0    0  0.69619206411E+00  0.54936680597E+00 -0.77847525141E+00  0.11800470307E+01  0.00000000000E+00 0. -1.
         11    1    3    3    0    0  0.38329093999E+01 -0.10049418100E+02  0.10742260051E+02  0.15201254878E+02  0.51100000000E-03 0. -1.
        -11    1    3    3    0    0  0.24321201085E+02 -0.13356588207E+02 -0.22708842730E+02  0.35855415339E+02  0.51100000000E-03 0.  1.
         12    1    3    3    0    0 -0.28850302549E+02  0.22856639500E+02  0.12745057930E+02  0.38951282752E+02  0.00000000000E+00 0. -1.
</event>
<event>
 7    1  0.3795708E-015  0.9000775E+02  0.7816164E-02  0.1186339E+00
        -11   -1    0    0    0    0  0.00000000000E+00  0.00000000000E+00  0.45593999997E+02  0.45594000000E+02  0.51100000000E-03 0. -1.
         11   -1    0    0    0    0 -0.00000000000E+00 -0.00000000000E+00 -0.45593999997E+02  0.45594000000E+02  0.51100000000E-03 0.  1.
    9900012    2    1    2    0    0  0.67413003699E+00 -0.95358807800E+00  0.17092025328E+00  0.90007747797E+02  0.90000009268E+02 0.  0.
         12    1    1    2    0    0 -0.67413003699E+00  0.95358807800E+00 -0.17092025328E+00  0.11802522028E+01  0.00000000000E+00 0. -1.
         11    1    3    3    0    0 -0.13699303913E+01 -0.78367947099E-02  0.88617444361E+01  0.89670109515E+01  0.51100000000E-03 0. -1.
        -11    1    3    3    0    0  0.17256542908E+02 -0.34780048660E+02  0.91309247198E+01  0.39885007765E+02  0.51100000000E-03 0.  1.
         12    1    3    3    0    0 -0.15212482480E+02  0.33834297377E+02 -0.17821748903E+02  0.41155729080E+02  0.00000000000E+00 0. -1.
</event>
<event>
 7    1  0.3795708E-015  0.9000773E+02  0.7816164E-02  0.1186339E+00
        -11   -1    0    0    0    0  0.00000000000E+00  0.00000000000E+00  0.45593999997E+02  0.45594000000E+02  0.51100000000E-03 0. -1.
         11   -1    0    0    0    0 -0.00000000000E+00 -0.00000000000E+00 -0.45593999997E+02  0.45594000000E+02  0.51100000000E-03 0.  1.
    9900012    2    1    2    0    0 -0.39465492319E-02  0.63665448310E+00 -0.99382274510E+00  0.90007733863E+02  0.89999995150E+02 0.  0.
         12    1    1    2    0    0  0.39465492319E-02 -0.63665448310E+00  0.99382274510E+00  0.11802661373E+01  0.00000000000E+00 0. -1.
         11    1    3    3    0    0 -0.19047493659E+02  0.10796339160E+02  0.26267277133E+02  0.34195581618E+02  0.51100000000E-03 0. -1.
        -11    1    3    3    0    0 -0.51793232190E+01 -0.28322677478E+00  0.94230819574E+01  0.10756397178E+02  0.51100000000E-03 0.  1.
        -12    1    3    3    0    0  0.24222870329E+02 -0.98764579017E+01 -0.36684181836E+02  0.45055755067E+02  0.00000000000E+00 0.  1.
</event>
<event>
 7    1  0.3795708E-015  0.9000783E+02  0.7816164E-02  0.1186339E+00
        -11   -1    0    0    0    0  0.00000000000E+00  0.00000000000E+00  0.45593999997E+02  0.45594000000E+02  0.51100000000E-03 0. -1.
         11   -1    0    0    0    0 -0.00000000000E+00 -0.00000000000E+00 -0.45593999997E+02  0.45594000000E+02  0.51100000000E-03 0.  1.
    9900012    2    1    2    0    0 -0.11605423394E+01  0.15931487510E+00  0.14336081572E+00  0.90007833878E+02  0.90000096486E+02 0.  0.
         12    1    1    2    0    0  0.11605423394E+01 -0.15931487510E+00 -0.14336081572E+00  0.11801661216E+01  0.00000000000E+00 0. -1.
         11    1    3    3    0    0  0.98504411250E-01 -0.61541582950E+01 -0.69283877871E+01  0.92674659442E+01  0.51100000000E-03 0. -1.
        -11    1    3    3    0    0  0.37502924615E+02  0.57530211604E+01 -0.86374175522E+01  0.38912357798E+02  0.51100000000E-03 0.  1.
         12    1    3    3    0    0 -0.38761971366E+02  0.56045200966E+00  0.15709166155E+02  0.41828010136E+02  0.00000000000E+00 0. -1.
</event>
<event>
 7    1  0.3795708E-015  0.9000780E+02  0.7816164E-02  0.1186339E+00
        -11   -1    0    0    0    0  0.00000000000E+00  0.00000000000E+00  0.45593999997E+02  0.45594000000E+02  0.51100000000E-03 0.  1.
         11   -1    0    0    0    0 -0.00000000000E+00 -0.00000000000E+00 -0.45593999997E+02  0.45594000000E+02  0.51100000000E-03 0. -1.
    9900012    2    1    2    0    0 -0.73815498238E+00 -0.88711591769E+00 -0.24703395595E+00  0.90007799507E+02  0.90000061660E+02 0.  0.
         12    1    1    2    0    0  0.73815498238E+00  0.88711591769E+00  0.24703395595E+00  0.11802004935E+01  0.00000000000E+00 0. -1.
         11    1    3    3    0    0 -0.17981084823E+01 -0.67872784596E+01  0.42959310658E+01  0.82313648313E+01  0.51100000000E-03 0. -1.
        -11    1    3    3    0    0 -0.69897469181E+01 -0.24856804244E+02  0.26741248643E+02  0.37172727348E+02  0.51100000000E-03 0.  1.
         12    1    3    3    0    0  0.80497004179E+01  0.30756966786E+02 -0.31284213665E+02  0.44603707327E+02  0.00000000000E+00 0. -1.
</event>
<event>
 7    1  0.3795708E-015  0.9000786E+02  0.7816164E-02  0.1186339E+00
        -11   -1    0    0    0    0  0.00000000000E+00  0.00000000000E+00  0.45593999997E+02  0.45594000000E+02  0.51100000000E-03 0.  1.
         11   -1    0    0    0    0 -0.00000000000E+00 -0.00000000000E+00 -0.45593999997E+02  0.45594000000E+02  0.51100000000E-03 0. -1.
    9900012    2    1    2    0    0  0.11208141514E+00 -0.85556501943E+00  0.80509328672E+00  0.90007860624E+02  0.90000123584E+02 0.  0.
         12    1    1    2    0    0 -0.11208141514E+00  0.85556501943E+00 -0.80509328672E+00  0.11801393758E+01  0.00000000000E+00 0. -1.
         11    1    3    3    0    0 -0.21008638782E+02 -0.15874167997E+02 -0.66869615991E+01  0.27167399006E+02  0.51100000000E-03 0. -1.
        -11    1    3    3    0    0 -0.80759109751E+01 -0.16181785814E+02 -0.41440844382E+01  0.18553812716E+02  0.51100000000E-03 0.  1.
        -12    1    3    3    0    0  0.29196631172E+02  0.31200388792E+02  0.11636139324E+02  0.44286648902E+02  0.00000000000E+00 0.  1.
</event>
<event>
 7    1  0.3795708E-015  0.9000780E+02  0.7816164E-02  0.1186339E+00
        -11   -1    0    0    0    0  0.00000000000E+00  0.00000000000E+00  0.45593999997E+02  0.45594000000E+02  0.51100000000E-03 0. -1.
         11   -1    0    0    0    0 -0.00000000000E+00 -0.00000000000E+00 -0.45593999997E+02  0.45594000000E+02  0.51100000000E-03 0.  1.
    9900012    2    1    2    0    0  0.10716925106E-03  0.53590933046E+00 -0.10515113283E+01  0.90007798790E+02  0.90000060934E+02 0.  0.
         12    1    1    2    0    0 -0.10716925106E-03 -0.53590933046E+00  0.10515113283E+01  0.11802012098E+01  0.00000000000E+00 0. -1.
         11    1    3    3    0    0  0.29049267006E+02  0.58302283599E+01  0.25729481482E+02  0.39241020551E+02  0.51100000000E-03 0. -1.
        -11    1    3    3    0    0  0.60125218000E+01 -0.51082532353E+01 -0.67700665378E+01  0.10396079583E+02  0.51100000000E-03 0.  1.
        -12    1    3    3    0    0 -0.35061681637E+02 -0.18606579419E+00 -0.20010926273E+02  0.40370698656E+02  0.00000000000E+00 0.  1.
</event>
<event>
 7    1  0.3795708E-015  0.9000774E+02  0.7816164E-02  0.1186339E+00
        -11   -1    0    0    0    0  0.00000000000E+00  0.00000000000E+00  0.45593999997E+02  0.45594000000E+02  0.51100000000E-03 0. -1.
         11   -1    0    0    0    0 -0.00000000000E+00 -0.00000000000E+00 -0.45593999997E+02  0.45594000000E+02  0.51100000000E-03 0.  1.
    9900012    2    1    2    0    0  0.34468042802E+00  0.43103390312E+00 -0.10432762571E+01  0.90007737245E+02  0.89999998576E+02 0.  0.
         12    1    1    2    0    0 -0.34468042802E+00 -0.43103390312E+00  0.10432762571E+01  0.11802627554E+01  0.00000000000E+00 0. -1.
         11    1    3    3    0    0  0.56804691298E+00 -0.65568750662E+01  0.67608450264E+01  0.94352696655E+01  0.51100000000E-03 0. -1.
        -11    1    3    3    0    0 -0.31228342485E+02  0.15858582880E+02 -0.25930286179E+02  0.43578478254E+02  0.51100000000E-03 0.  1.
         12    1    3    3    0    0  0.31004976000E+02 -0.88706739107E+01  0.18126164895E+02  0.36993989325E+02  0.00000000000E+00 0. -1.
</event>
<event>
 7    1  0.3795708E-015  0.9000770E+02  0.7816164E-02  0.1186339E+00
        -11   -1    0    0    0    0  0.00000000000E+00  0.00000000000E+00  0.45593999997E+02  0.45594000000E+02  0.51100000000E-03 0. -1.
         11   -1    0    0    0    0 -0.00000000000E+00 -0.00000000000E+00 -0.45593999997E+02  0.45594000000E+02  0.51100000000E-03 0.  1.
    9900012    2    1    2    0    0 -0.28363777272E+00  0.89846378433E+00 -0.71093556990E+00  0.90007696250E+02  0.89999957040E+02 0.  0.
         12    1    1    2    0    0  0.28363777272E+00 -0.89846378433E+00  0.71093556990E+00  0.11803037501E+01  0.00000000000E+00 0. -1.
         11    1    3    3    0    0  0.68506734538E+01  0.95913902193E+01  0.14356032416E+01  0.11873813627E+02  0.51100000000E-03 0. -1.
        -11    1    3    3    0    0  0.34620537575E+02 -0.99127184889E+01 -0.45176656580E+01  0.36293979019E+02  0.51100000000E-03 0.  1.
         12    1    3    3    0    0 -0.41754848801E+02  0.12197920539E+01  0.23711268465E+01  0.41839903604E+02  0.00000000000E+00 0. -1.
</event>
<event>
 7    1  0.3795708E-015  0.9000775E+02  0.7816164E-02  0.1186339E+00
        -11   -1    0    0    0    0  0.00000000000E+00  0.00000000000E+00  0.45593999997E+02  0.45594000000E+02  0.51100000000E-03 0. -1.
         11   -1    0    0    0    0 -0.00000000000E+00 -0.00000000000E+00 -0.45593999997E+02  0.45594000000E+02  0.51100000000E-03 0.  1.
    9900012    2    1    2    0    0 -0.84034205808E+00 -0.13344910965E+00 -0.81793328852E+00  0.90007746509E+02  0.90000007963E+02 0.  0.
         12    1    1    2    0    0  0.84034205808E+00  0.13344910965E+00  0.81793328852E+00  0.11802534914E+01  0.00000000000E+00 0. -1.
         11    1    3    3    0    0 -0.27391177682E+02 -0.35016985583E+02  0.14721285773E+01  0.44481828391E+02  0.51100000000E-03 0. -1.
        -11    1    3    3    0    0  0.42998188265E+01  0.74829576705E+01 -0.52549145024E+01  0.10104317103E+02  0.51100000000E-03 0.  1.
        -12    1    3    3    0    0  0.22251016798E+02  0.27400578803E+02  0.29648526366E+01  0.35421601015E+02  0.00000000000E+00 0.  1.
</event>
<event>
 7    1  0.3795708E-015  0.9000776E+02  0.7816164E-02  0.1186339E+00
        -11   -1    0    0    0    0  0.00000000000E+00  0.00000000000E+00  0.45593999997E+02  0.45594000000E+02  0.51100000000E-03 0. -1.
         11   -1    0    0    0    0 -0.00000000000E+00 -0.00000000000E+00 -0.45593999997E+02  0.45594000000E+02  0.51100000000E-03 0.  1.
    9900012    2    1    2    0    0  0.93322038503E+00  0.69261365307E+00  0.20581869527E+00  0.90007756256E+02  0.90000017839E+02 0.  0.
         12    1    1    2    0    0 -0.93322038503E+00 -0.69261365307E+00 -0.20581869527E+00  0.11802437438E+01  0.00000000000E+00 0. -1.
         11    1    3    3    0    0 -0.26537492785E+00  0.51567102772E+01 -0.84203023956E+01  0.98774276727E+01  0.51100000000E-03 0. -1.
        -11    1    3    3    0    0  0.17866233509E+02 -0.30670212414E+02 -0.17473408018E+02  0.39562409145E+02  0.51100000000E-03 0.  1.
         12    1    3    3    0    0 -0.16667638197E+02  0.26206115790E+02  0.26099529109E+02  0.40567919438E+02  0.00000000000E+00 0. -1.
</event>
<event>
 7    1  0.3795708E-015  0.9000784E+02  0.7816164E-02  0.1186339E+00
        -11   -1    0    0    0    0  0.00000000000E+00  0.00000000000E+00  0.45593999997E+02  0.45594000000E+02  0.51100000000E-03 0.  1.
         11   -1    0    0    0    0 -0.00000000000E+00 -0.00000000000E+00 -0.45593999997E+02  0.45594000000E+02  0.51100000000E-03 0. -1.
    9900012    2    1    2    0    0 -0.22228429051E+00  0.11148526767E+01  0.31696798657E+00  0.90007840900E+02  0.90000103600E+02 0.  0.
         12    1    1    2    0    0  0.22228429051E+00 -0.11148526767E+01 -0.31696798657E+00  0.11801590999E+01  0.00000000000E+00 0. -1.
         11    1    3    3    0    0  0.72497284953E+01  0.60178792600E+01  0.16167661171E+01  0.95596739998E+01  0.51100000000E-03 0. -1.
        -11    1    3    3    0    0  0.33843762585E+02  0.46733162328E+01 -0.12835169344E+02  0.36496324786E+02  0.51100000000E-03 0.  1.
         12    1    3    3    0    0 -0.41315775371E+02 -0.95763428161E+01  0.11535371214E+02  0.43951842114E+02  0.00000000000E+00 0. -1.
</event>
<event>
 7    1  0.3795708E-015  0.9000773E+02  0.7816164E-02  0.1186339E+00
        -11   -1    0    0    0    0  0.00000000000E+00  0.00000000000E+00  0.45593999997E+02  0.45594000000E+02  0.51100000000E-03 0.  1.
         11   -1    0    0    0    0 -0.00000000000E+00 -0.00000000000E+00 -0.45593999997E+02  0.45594000000E+02  0.51100000000E-03 0. -1.
    9900012    2    1    2    0    0 -0.25790759942E+00  0.11512504150E+01  0.33703609405E-01  0.90007733174E+02  0.89999994452E+02 0.  0.
         12    1    1    2    0    0  0.25790759942E+00 -0.11512504150E+01 -0.33703609405E-01  0.11802668263E+01  0.00000000000E+00 0. -1.
         11    1    3    3    0    0 -0.85026564154E+01 -0.41493671894E+00 -0.94662162005E+01  0.12730930367E+02  0.51100000000E-03 0. -1.
        -11    1    3    3    0    0 -0.22356318441E+02 -0.24124363711E+02  0.16363415696E+02  0.36736239222E+02  0.51100000000E-03 0.  1.
         12    1    3    3    0    0  0.30601067257E+02  0.25690550845E+02 -0.68634958856E+01  0.40540563584E+02  0.00000000000E+00 0. -1.
</event>
<event>
 7    1  0.3795708E-015  0.9000748E+02  0.7816164E-02  0.1186340E+00
        -11   -1    0    0    0    0  0.00000000000E+00  0.00000000000E+00  0.45593999997E+02  0.45594000000E+02  0.51100000000E-03 0.  1.
         11   -1    0    0    0    0 -0.00000000000E+00 -0.00000000000E+00 -0.45593999997E+02  0.45594000000E+02  0.51100000000E-03 0. -1.
    9900012    2    1    2    0    0  0.76331550241E+00 -0.46169099171E+00  0.77319472662E+00  0.90007475026E+02  0.89999732896E+02 0.  0.
         12    1    1    2    0    0 -0.76331550241E+00  0.46169099171E+00 -0.77319472662E+00  0.11805249736E+01  0.00000000000E+00 0. -1.
         11    1    3    3    0    0  0.28640306934E+02 -0.21897786527E+02 -0.35946618014E+01  0.36231227274E+02  0.51100000000E-03 0. -1.
        -11    1    3    3    0    0  0.78164730726E+01 -0.41431926009E+01  0.43619584290E+01  0.98635682093E+01  0.51100000000E-03 0.  1.
        -12    1    3    3    0    0 -0.35693464504E+02  0.25579288136E+02  0.58980990000E-02  0.43912679543E+02  0.00000000000E+00 0.  1.
</event>
<event>
 7    1  0.3795708E-015  0.9000772E+02  0.7816164E-02  0.1186339E+00
        -11   -1    0    0    0    0  0.00000000000E+00  0.00000000000E+00  0.45593999997E+02  0.45594000000E+02  0.51100000000E-03 0.  1.
         11   -1    0    0    0    0 -0.00000000000E+00 -0.00000000000E+00 -0.45593999997E+02  0.45594000000E+02  0.51100000000E-03 0. -1.
    9900012    2    1    2    0    0  0.10073421956E+01  0.54241165196E+00  0.29001631622E+00  0.90007721150E+02  0.89999982270E+02 0.  0.
         12    1    1    2    0    0 -0.10073421956E+01 -0.54241165196E+00 -0.29001631622E+00  0.11802788497E+01  0.00000000000E+00 0. -1.
         11    1    3    3    0    0 -0.12446700303E+02  0.16660583671E+01 -0.19008833629E+02  0.22782270631E+02  0.51100000000E-03 0. -1.
        -11    1    3    3    0    0  0.48993226599E+01  0.23202203853E+02 -0.12077769181E+02  0.26612368080E+02  0.51100000000E-03 0.  1.
         12    1    3    3    0    0  0.85547198382E+01 -0.24325850569E+02  0.31376619127E+02  0.40613082439E+02  0.00000000000E+00 0. -1.
</event>
<event>
 7    1  0.3795708E-015  0.9000773E+02  0.7816164E-02  0.1186339E+00
        -11   -1    0    0    0    0  0.00000000000E+00  0.00000000000E+00  0.45593999997E+02  0.45594000000E+02  0.51100000000E-03 0. -1.
         11   -1    0    0    0    0 -0.00000000000E+00 -0.00000000000E+00 -0.45593999997E+02  0.45594000000E+02  0.51100000000E-03 0.  1.
    9900012    2    1    2    0    0 -0.86493730428E+00 -0.80125951954E+00  0.53916685465E-01  0.90007728689E+02  0.89999989908E+02 0.  0.
         12    1    1    2    0    0  0.86493730428E+00  0.80125951954E+00 -0.53916685465E-01  0.11802713107E+01  0.00000000000E+00 0. -1.
         11    1    3    3    0    0 -0.41326320701E+01  0.43182332245E+01 -0.89479341407E+01  0.10760637140E+02  0.51100000000E-03 0. -1.
        -11    1    3    3    0    0 -0.82705167604E+00  0.22310618307E+02 -0.26206656194E+02  0.34427264382E+02  0.51100000000E-03 0.  1.
         12    1    3    3    0    0  0.40947464418E+01 -0.27430111051E+02  0.35208507021E+02  0.44819827167E+02  0.00000000000E+00 0. -1.
</event>
<event>
 7    1  0.3795708E-015  0.9000776E+02  0.7816164E-02  0.1186339E+00
        -11   -1    0    0    0    0  0.00000000000E+00  0.00000000000E+00  0.45593999997E+02  0.45594000000E+02  0.51100000000E-03 0.  1.
         11   -1    0    0    0    0 -0.00000000000E+00 -0.00000000000E+00 -0.45593999997E+02  0.45594000000E+02  0.51100000000E-03 0. -1.
    9900012    2    1    2    0    0  0.99038545003E+00 -0.63227630339E-01  0.63883995606E+00  0.90007755296E+02  0.90000016865E+02 0.  0.
         12    1    1    2    0    0 -0.99038545003E+00  0.63227630339E-01 -0.63883995606E+00  0.11802447044E+01  0.00000000000E+00 0. -1.
         11    1    3    3    0    0 -0.32505029780E+02  0.91616097521E+01 -0.17609162160E+02  0.38086672820E+02  0.51100000000E-03 0. -1.
        -11    1    3    3    0    0 -0.51375634475E+01 -0.77803074568E+01  0.37891532682E+00  0.93312013903E+01  0.51100000000E-03 0.  1.
        -12    1    3    3    0    0  0.38632978677E+02 -0.14445299256E+01  0.17869086789E+02  0.42589881086E+02  0.00000000000E+00 0.  1.
</event>
<event>
 7    1  0.3795708E-015  0.9000772E+02  0.7816164E-02  0.1186339E+00
        -11   -1    0    0    0    0  0.00000000000E+00  0.00000000000E+00  0.45593999997E+02  0.45594000000E+02  0.51100000000E-03 0.  1.
         11   -1    0    0    0    0 -0.00000000000E+00 -0.00000000000E+00 -0.45593999997E+02  0.45594000000E+02  0.51100000000E-03 0. -1.
    9900012    2    1    2    0    0  0.44769165667E+00  0.10606068671E+01  0.26027408917E+00  0.90007721496E+02  0.89999982619E+02 0.  0.
         12    1    1    2    0    0 -0.44769165667E+00 -0.10606068671E+01 -0.26027408917E+00  0.11802785042E+01  0.00000000000E+00 0. -1.
         11    1    3    3    0    0 -0.65436129629E+01  0.31599025812E+02 -0.19675272696E+02  0.37794624735E+02  0.51100000000E-03 0. -1.
        -11    1    3    3    0    0 -0.26922416791E+01  0.60615770441E+01  0.11729116553E+02  0.13474533643E+02  0.51100000000E-03 0.  1.
        -12    1    3    3    0    0  0.96835462986E+01 -0.36599995989E+02  0.82064302328E+01  0.38738563119E+02  0.00000000000E+00 0.  1.
</event>
<event>
 7    1  0.3795708E-015  0.9000783E+02  0.7816164E-02  0.1186339E+00
        -11   -1    0    0    0    0  0.00000000000E+00  0.00000000000E+00  0.45593999997E+02  0.45594000000E+02  0.51100000000E-03 0. -1.
         11   -1    0    0    0    0 -0.00000000000E+00 -0.00000000000E+00 -0.45593999997E+02  0.45594000000E+02  0.51100000000E-03 0.  1.
    9900012    2    1    2    0    0  0.11153635644E+01  0.51231488187E-01 -0.38229699280E+00  0.90007825633E+02  0.90000088131E+02 0.  0.
         12    1    1    2    0    0 -0.11153635644E+01 -0.51231488187E-01  0.38229699280E+00  0.11801743672E+01  0.00000000000E+00 0. -1.
         11    1    3    3    0    0  0.89021077983E+01  0.29453915438E+01 -0.32533622256E+01  0.99250803841E+01  0.51100000000E-03 0. -1.
        -11    1    3    3    0    0  0.20928525948E+02  0.23109442729E+02 -0.18079950840E+02  0.36040729242E+02  0.51100000000E-03 0.  1.
         12    1    3    3    0    0 -0.28715270182E+02 -0.26003602785E+02  0.20951016073E+02  0.44042016007E+02  0.00000000000E+00 0. -1.
</event>
<event>
 7    1  0.3795708E-015  0.9000772E+02  0.7816164E-02  0.1186339E+00
        -11   -1    0    0    0    0  0.00000000000E+00  0.00000000000E+00  0.45593999997E+02  0.45594000000E+02  0.51100000000E-03 0. -1.
         11   -1    0    0    0    0 -0.00000000000E+00 -0.00000000000E+00 -0.45593999997E+02  0.45594000000E+02  0.51100000000E-03 0.  1.
    9900012    2    1    2    0    0 -0.10120677970E+01  0.51182229760E+00 -0.32681901774E+00  0.90007722931E+02  0.89999984073E+02 0.  0.
         12    1    1    2    0    0  0.10120677970E+01 -0.51182229760E+00  0.32681901774E+00  0.11802770694E+01  0.00000000000E+00 0. -1.
         11    1    3    3    0    0 -0.19098851677E+01  0.23507904645E+02  0.31245225764E+02  0.39147584542E+02  0.51100000000E-03 0. -1.
        -11    1    3    3    0    0 -0.48401050098E+01  0.70002522959E+01 -0.29590910628E+01  0.90103478785E+01  0.51100000000E-03 0.  1.
        -12    1    3    3    0    0  0.57379223804E+01 -0.29996334643E+02 -0.28612953719E+02  0.41849790511E+02  0.00000000000E+00 0.  1.
</event>
<event>
 7    1  0.3795708E-015  0.9000773E+02  0.7816164E-02  0.1186339E+00
        -11   -1    0    0    0    0  0.00000000000E+00  0.00000000000E+00  0.45593999997E+02  0.45594000000E+02  0.51100000000E-03 0. -1.
         11   -1    0    0    0    0 -0.00000000000E+00 -0.00000000000E+00 -0.45593999997E+02  0.45594000000E+02  0.51100000000E-03 0.  1.
    9900012    2    1    2    0    0 -0.18123217110E+00  0.10753283167E+01  0.45149924867E+00  0.90007734072E+02  0.89999995362E+02 0.  0.
         12    1    1    2    0    0  0.18123217110E+00 -0.10753283167E+01 -0.45149924867E+00  0.11802659277E+01  0.00000000000E+00 0. -1.
         11    1    3    3    0    0  0.30522685222E+01  0.56486865240E+01  0.87174112463E+01  0.10826692093E+02  0.51100000000E-03 0. -1.
        -11    1    3    3    0    0 -0.76542775051E+01  0.35156632373E+02  0.65062747721E+01  0.36563757679E+02  0.51100000000E-03 0.  1.
         12    1    3    3    0    0  0.44207768119E+01 -0.39729990581E+02 -0.14772186770E+02  0.42617284300E+02  0.00000000000E+00 0. -1.
</event>
<event>
 7    1  0.3795708E-015  0.9000766E+02  0.7816164E-02  0.1186339E+00
        -11   -1    0    0    0    0  0.00000000000E+00  0.00000000000E+00  0.45593999997E+02  0.45594000000E+02  0.51100000000E-03 0. -1.
         11   -1    0    0    0    0 -0.00000000000E+00 -0.00000000000E+00 -0.45593999997E+02  0.45594000000E+02  0.51100000000E-03 0.  1.
    9900012    2    1    2    0    0  0.57314742502E+00 -0.50220959680E+00 -0.90138352396E+00  0.90007659072E+02  0.89999919371E+02 0.  0.
         12    1    1    2    0    0 -0.57314742502E+00  0.50220959680E+00  0.90138352396E+00  0.11803409284E+01  0.00000000000E+00 0. -1.
         11    1    3    3    0    0  0.31544213824E+02 -0.63005059874E+01  0.17891781886E+02  0.36808282503E+02  0.51100000000E-03 0. -1.
        -11    1    3    3    0    0  0.75951696223E+01  0.33020215218E+01  0.30273157469E+01  0.88178562369E+01  0.51100000000E-03 0.  1.
        -12    1    3    3    0    0 -0.38566236021E+02  0.24962748688E+01 -0.21820481157E+02  0.44381520332E+02  0.00000000000E+00 0.  1.
</event>
<event>
 7    1  0.3795708E-015  0.9000764E+02  0.7816164E-02  0.1186339E+00
        -11   -1    0    0    0    0  0.00000000000E+00  0.00000000000E+00  0.45593999997E+02  0.45594000000E+02  0.51100000000E-03 0. -1.
         11   -1    0    0    0    0 -0.00000000000E+00 -0.00000000000E+00 -0.45593999997E+02  0.45594000000E+02  0.51100000000E-03 0.  1.
    9900012    2    1    2    0    0 -0.90743677573E+00 -0.52674312365E+00 -0.54068908467E+00  0.90007642212E+02  0.89999902290E+02 0.  0.
         12    1    1    2    0    0  0.90743677573E+00  0.52674312365E+00  0.54068908467E+00  0.11803577875E+01  0.00000000000E+00 0. -1.
         11    1    3    3    0    0  0.46993304592E+01 -0.35600948999E+02  0.10908031428E+02  0.37529940398E+02  0.51100000000E-03 0. -1.
        -11    1    3    3    0    0  0.15322541528E+02  0.98065618728E+01 -0.63814966627E+01  0.19278807913E+02  0.51100000000E-03 0.  1.
        -12    1    3    3    0    0 -0.20929308763E+02  0.25267644002E+02 -0.50672238503E+01  0.33198893901E+02  0.00000000000E+00 0.  1.
</event>
<event>
 7    1  0.3795708E-015  0.9000772E+02  0.7816164E-02  0.1186339E+00
        -11   -1    0    0    0    0  0.00000000000E+00  0.00000000000E+00  0.45593999997E+02  0.45594000000E+02  0.51100000000E-03 0.  1.
         11   -1    0    0    0    0 -0.00000000000E+00 -0.00000000000E+00 -0.45593999997E+02  0.45594000000E+02  0.51100000000E-03 0. -1.
    9900012    2    1    2    0    0 -0.55253780891E+00 -0.78530803695E+00 -0.68634112315E+00  0.90007715763E+02  0.89999976811E+02 0.  0.
         12    1    1    2    0    0  0.55253780891E+00  0.78530803695E+00  0.68634112315E+00  0.11802842372E+01  0.00000000000E+00 0. -1.
         11    1    3    3    0    0 -0.28046583410E+01 -0.81241003482E+01  0.43064715745E+01  0.96131583031E+01  0.51100000000E-03 0. -1.
        -11    1    3    3    0    0 -0.21865422193E+02 -0.25549482234E+02  0.12689292555E+02  0.35942883522E+02  0.51100000000E-03 0.  1.
         12    1    3    3    0    0  0.24117542725E+02  0.32888274546E+02 -0.17682105252E+02  0.44451673937E+02  0.00000000000E+00 0. -1.
</event>
<event>
 7    1  0.3795708E-015  0.9000768E+02  0.7816164E-02  0.1186339E+00
        -11   -1    0    0    0    0  0.00000000000E+00  0.00000000000E+00  0.45593999997E+02  0.45594000000E+02  0.51100000000E-03 0.  1.
         11   -1    0    0    0    0 -0.00000000000E+00 -0.00000000000E+00 -0.45593999997E+02  0.45594000000E+02  0.51100000000E-03 0. -1.
    9900012    2    1    2    0    0  0.75893961285E+00 -0.85826169124E+00  0.28379980866E+00  0.90007684450E+02  0.89999945085E+02 0.  0.
         12    1    1    2    0    0 -0.75893961285E+00  0.85826169124E+00 -0.28379980866E+00  0.11803155502E+01  0.00000000000E+00 0. -1.
         11    1    3    3    0    0 -0.41021328434E+02  0.63080851671E+01  0.12372749796E+01  0.41521948107E+02  0.51100000000E-03 0. -1.
        -11    1    3    3    0    0  0.32509193131E+01 -0.59542344870E+01 -0.66724492586E+01  0.95154066690E+01  0.51100000000E-03 0.  1.
        -12    1    3    3    0    0  0.38529348734E+02 -0.12121123714E+01  0.57189740876E+01  0.38970329674E+02  0.00000000000E+00 0.  1.
</event>
<event>
 7    1  0.3795708E-015  0.9000779E+02  0.7816164E-02  0.1186339E+00
        -11   -1    0    0    0    0  0.00000000000E+00  0.00000000000E+00  0.45593999997E+02  0.45594000000E+02  0.51100000000E-03 0.  1.
         11   -1    0    0    0    0 -0.00000000000E+00 -0.00000000000E+00 -0.45593999997E+02  0.45594000000E+02  0.51100000000E-03 0. -1.
    9900012    2    1    2    0    0 -0.11722887339E+01  0.10074477040E+00  0.92141440549E-01  0.90007787973E+02  0.90000049974E+02 0.  0.
         12    1    1    2    0    0  0.11722887339E+01 -0.10074477040E+00 -0.92141440549E-01  0.11802120273E+01  0.00000000000E+00 0. -1.
         11    1    3    3    0    0 -0.57048168460E+01 -0.83994698915E+01  0.14574091743E+01  0.10257683533E+02  0.51100000000E-03 0. -1.
        -11    1    3    3    0    0 -0.47275595667E+01 -0.38584563545E+01  0.37466529206E+02  0.37960220177E+02  0.51100000000E-03 0.  1.
         12    1    3    3    0    0  0.92600876788E+01  0.12358671016E+02 -0.38831796940E+02  0.41789884262E+02  0.00000000000E+00 0. -1.
</event>
<event>
 7    1  0.3795708E-015  0.9000768E+02  0.7816164E-02  0.1186339E+00
        -11   -1    0    0    0    0  0.00000000000E+00  0.00000000000E+00  0.45593999997E+02  0.45594000000E+02  0.51100000000E-03 0. -1.
         11   -1    0    0    0    0 -0.00000000000E+00 -0.00000000000E+00 -0.45593999997E+02  0.45594000000E+02  0.51100000000E-03 0.  1.
    9900012    2    1    2    0    0  0.75659226565E+00 -0.88233990403E+00  0.20541107958E+00  0.90007682554E+02  0.89999943163E+02 0.  0.
         12    1    1    2    0    0 -0.75659226565E+00  0.88233990403E+00 -0.20541107958E+00  0.11803174464E+01  0.00000000000E+00 0. -1.
         11    1    3    3    0    0  0.59325597645E+01 -0.79329060685E+01  0.36291674476E+02  0.37619302234E+02  0.51100000000E-03 0. -1.
        -11    1    3    3    0    0 -0.15406120539E+01 -0.50024713176E+01  0.62891619292E+01  0.81824056864E+01  0.51100000000E-03 0.  1.
        -12    1    3    3    0    0 -0.36353554449E+01  0.12053037482E+02 -0.42375425325E+02  0.44205974633E+02  0.00000000000E+00 0.  1.
</event>
<event>
 7    1  0.3795708E-015  0.9000822E+02  0.7816164E-02  0.1186338E+00
        -11   -1    0    0    0    0  0.00000000000E+00  0.00000000000E+00  0.45593999997E+02  0.45594000000E+02  0.51100000000E-03 0. -1.
         11   -1    0    0    0    0 -0.00000000000E+00 -0.00000000000E+00 -0.45593999997E+02  0.45594000000E+02  0.51100000000E-03 0.  1.
    9900012    2    1    2    0    0 -0.46946166057E+00 -0.62576884668E+00  0.88311774956E+00  0.90008221267E+02  0.90000488986E+02 0.  0.
         12    1    1    2    0    0  0.46946166057E+00  0.62576884668E+00 -0.88311774956E+00  0.11797787334E+01  0.00000000000E+00 0. -1.
         11    1    3    3    0    0 -0.15170753939E+02 -0.30815168951E+02 -0.87770078929E+01  0.35450843155E+02  0.51100000000E-03 0. -1.
        -11    1    3    3    0    0 -0.40006125962E+01 -0.69751365591E+01 -0.60734749022E+01  0.10076930525E+02  0.51100000000E-03 0.  1.
        -12    1    3    3    0    0  0.18701904875E+02  0.37164536664E+02  0.15733600545E+02  0.44480447586E+02  0.00000000000E+00 0.  1.
</event>
<event>
 7    1  0.3795708E-015  0.9000776E+02  0.7816164E-02  0.1186339E+00
        -11   -1    0    0    0    0  0.00000000000E+00  0.00000000000E+00  0.45593999997E+02  0.45594000000E+02  0.51100000000E-03 0.  1.
         11   -1    0    0    0    0 -0.00000000000E+00 -0.00000000000E+00 -0.45593999997E+02  0.45594000000E+02  0.51100000000E-03 0. -1.
    9900012    2    1    2    0    0  0.12673917482E+00  0.11683419839E+01 -0.10902780990E+00  0.90007757282E+02  0.90000018878E+02 0.  0.
         12    1    1    2    0    0 -0.12673917482E+00 -0.11683419839E+01  0.10902780990E+00  0.11802427179E+01  0.00000000000E+00 0. -1.
         11    1    3    3    0    0 -0.39460425307E+02  0.36320913936E+01 -0.95542789064E+01  0.40762746460E+02  0.51100000000E-03 0. -1.
        -11    1    3    3    0    0  0.15522294980E+01  0.55688648357E+01 -0.51294773617E+01  0.77287263011E+01  0.51100000000E-03 0.  1.
        -12    1    3    3    0    0  0.38034934983E+02 -0.80326142453E+01  0.14574728458E+02  0.41516284521E+02  0.00000000000E+00 0.  1.
</event>
<event>
 7    1  0.3795708E-015  0.9000771E+02  0.7816164E-02  0.1186339E+00
        -11   -1    0    0    0    0  0.00000000000E+00  0.00000000000E+00  0.45593999997E+02  0.45594000000E+02  0.51100000000E-03 0. -1.
         11   -1    0    0    0    0 -0.00000000000E+00 -0.00000000000E+00 -0.45593999997E+02  0.45594000000E+02  0.51100000000E-03 0.  1.
    9900012    2    1    2    0    0  0.51333929738E+00  0.10607802308E+01 -0.65656868692E-01  0.90007710732E+02  0.89999971713E+02 0.  0.
         12    1    1    2    0    0 -0.51333929738E+00 -0.10607802308E+01  0.65656868692E-01  0.11802892683E+01  0.00000000000E+00 0. -1.
         11    1    3    3    0    0 -0.69631211459E+01 -0.54789039999E+00 -0.30252460169E+01  0.76116590640E+01  0.51100000000E-03 0. -1.
        -11    1    3    3    0    0 -0.61172072132E+01  0.25210450347E+02 -0.29985652419E+02  0.39650048954E+02  0.51100000000E-03 0.  1.
         12    1    3    3    0    0  0.13593667656E+02 -0.23601779716E+02  0.32945241567E+02  0.42746002714E+02  0.00000000000E+00 0. -1.
</event>
<event>
 7    1  0.3795708E-015  0.9000772E+02  0.7816164E-02  0.1186339E+00
        -11   -1    0    0    0    0  0.00000000000E+00  0.00000000000E+00  0.45593999997E+02  0.45594000000E+02  0.51100000000E-03 0. -1.
         11   -1    0    0    0    0 -0.00000000000E+00 -0.00000000000E+00 -0.45593999997E+02  0.45594000000E+02  0.51100000000E-03 0.  1.
    9900012    2    1    2    0    0  0.71579272285E+00  0.93502168295E+00 -0.80296885595E-01  0.90007715136E+02  0.89999976176E+02 0.  0.
         12    1    1    2    0    0 -0.71579272285E+00 -0.93502168295E+00  0.80296885595E-01  0.11802848637E+01  0.00000000000E+00 0. -1.
         11    1    3    3    0    0  0.16178693712E+02 -0.28546096772E+02 -0.23934037655E+02  0.40613642165E+02  0.51100000000E-03 0. -1.
        -11    1    3    3    0    0 -0.84256264400E+01  0.16306671764E+01 -0.39221050283E+01  0.94357386812E+01  0.51100000000E-03 0.  1.
        -12    1    3    3    0    0 -0.70372745489E+01  0.27850451279E+02  0.27775845797E+02  0.39958334291E+02  0.00000000000E+00 0.  1.
</event>
<event>
 7    1  0.3795708E-015  0.9000772E+02  0.7816164E-02  0.1186339E+00
        -11   -1    0    0    0    0  0.00000000000E+00  0.00000000000E+00  0.45593999997E+02  0.45594000000E+02  0.51100000000E-03 0.  1.
         11   -1    0    0    0    0 -0.00000000000E+00 -0.00000000000E+00 -0.45593999997E+02  0.45594000000E+02  0.51100000000E-03 0. -1.
    9900012    2    1    2    0    0  0.55933294590E-01 -0.11261074300E+01  0.34902974485E+00  0.90007716881E+02  0.89999977944E+02 0.  0.
         12    1    1    2    0    0 -0.55933294590E-01  0.11261074300E+01 -0.34902974485E+00  0.11802831187E+01  0.00000000000E+00 0. -1.
         11    1    3    3    0    0 -0.90223222177E+01  0.24187178517E+01 -0.26900188169E+01  0.97205296020E+01  0.51100000000E-03 0. -1.
        -11    1    3    3    0    0  0.11200734085E+02 -0.23342872766E+02  0.34451386390E+02  0.43095755910E+02  0.51100000000E-03 0.  1.
         12    1    3    3    0    0 -0.21224785731E+01  0.19798047484E+02 -0.31412337828E+02  0.37191431369E+02  0.00000000000E+00 0. -1.
</event>
<event>
 7    1  0.3795708E-015  0.9000777E+02  0.7816164E-02  0.1186339E+00
        -11   -1    0    0    0    0  0.00000000000E+00  0.00000000000E+00  0.45593999997E+02  0.45594000000E+02  0.51100000000E-03 0. -1.
         11   -1    0    0    0    0 -0.00000000000E+00 -0.00000000000E+00 -0.45593999997E+02  0.45594000000E+02  0.51100000000E-03 0.  1.
    9900012    2    1    2    0    0 -0.14416819458E+00 -0.11413179066E+01  0.26372954440E+00  0.90007769385E+02  0.90000031141E+02 0.  0.
         12    1    1    2    0    0  0.14416819458E+00  0.11413179066E+01 -0.26372954440E+00  0.11802306151E+01  0.00000000000E+00 0. -1.
         11    1    3    3    0    0  0.72477705508E+01  0.15434949595E+02  0.34871778524E+02  0.38817634970E+02  0.51100000000E-03 0. -1.
        -11    1    3    3    0    0 -0.54101262480E+01  0.80160515042E+01 -0.13271578860E+01  0.97615519284E+01  0.51100000000E-03 0.  1.
        -12    1    3    3    0    0 -0.19818124974E+01 -0.24592319006E+02 -0.33280891094E+02  0.41428582487E+02  0.00000000000E+00 0.  1.
</event>
<event>
 7    1  0.3795708E-015  0.9000774E+02  0.7816164E-02  0.1186339E+00
        -11   -1    0    0    0    0  0.00000000000E+00  0.00000000000E+00  0.45593999997E+02  0.45594000000E+02  0.51100000000E-03 0. -1.
         11   -1    0    0    0    0 -0.00000000000E+00 -0.00000000000E+00 -0.45593999997E+02  0.45594000000E+02  0.51100000000E-03 0.  1.
    9900012    2    1    2    0    0  0.92133023367E+00 -0.71653762584E+00  0.17529488332E+00  0.90007744153E+02  0.90000005576E+02 0.  0.
         12    1    1    2    0    0 -0.92133023367E+00  0.71653762584E+00 -0.17529488332E+00  0.11802558472E+01  0.00000000000E+00 0. -1.
         11    1    3    3    0    0 -0.74317048382E+01  0.25835814391E+02  0.19823339335E+02  0.33401861096E+02  0.51100000000E-03 0. -1.
        -11    1    3    3    0    0 -0.69574323174E+01  0.10704709317E+02 -0.38054785997E+01  0.13322099446E+02  0.51100000000E-03 0.  1.
        -12    1    3    3    0    0  0.15310467389E+02 -0.37257061333E+02 -0.15842565852E+02  0.43283783611E+02  0.00000000000E+00 0.  1.
</event>
<event>
 7    1  0.3795708E-015  0.9000732E+02  0.7816164E-02  0.1186340E+00
        -11   -1    0    0    0    0  0.00000000000E+00  0.00000000000E+00  0.45593999997E+02  0.45594000000E+02  0.51100000000E-03 0.  1.
         11   -1    0    0    0    0 -0.00000000000E+00 -0.00000000000E+00 -0.45593999997E+02  0.45594000000E+02  0.51100000000E-03 0. -1.
    9900012    2    1    2    0    0  0.43653033292E+00 -0.76287585287E+00  0.78833691948E+00  0.90007316555E+02  0.89999572333E+02 0.  0.
         12    1    1    2    0    0 -0.43653033292E+00  0.76287585287E+00 -0.78833691948E+00  0.11806834449E+01  0.00000000000E+00 0. -1.
         11    1    3    3    0    0 -0.13374093409E+01  0.93729033769E+01 -0.15579505829E+01  0.95951650188E+01  0.51100000000E-03 0. -1.
        -11    1    3    3    0    0  0.20309342383E+02  0.26925482701E+02  0.15247109869E+02  0.37012502837E+02  0.51100000000E-03 0.  1.
         12    1    3    3    0    0 -0.18535402709E+02 -0.37061261931E+02 -0.12900822366E+02  0.43399648699E+02  0.00000000000E+00 0. -1.
</event>
<event>
 7    1  0.3795708E-015  0.9000776E+02  0.7816164E-02  0.1186339E+00
        -11   -1    0    0    0    0  0.00000000000E+00  0.00000000000E+00  0.45593999997E+02  0.45594000000E+02  0.51100000000E-03 0.  1.
         11   -1    0    0    0    0 -0.00000000000E+00 -0.00000000000E+00 -0.45593999997E+02  0.45594000000E+02  0.51100000000E-03 0. -1.
    9900012    2    1    2    0    0 -0.54961767967E+00  0.97288376065E+00  0.37997050216E+00  0.90007762741E+02  0.90000024409E+02 0.  0.
         12    1    1    2    0    0  0.54961767967E+00 -0.97288376065E+00 -0.37997050216E+00  0.11802372592E+01  0.00000000000E+00 0. -1.
         11    1    3    3    0    0  0.78474257235E+01  0.51024842865E+01 -0.32505978300E+00  0.93660610986E+01  0.51100000000E-03 0. -1.
        -11    1    3    3    0    0 -0.42354386151E+01 -0.27366857831E+02 -0.30705770074E+02  0.41348859282E+02  0.51100000000E-03 0.  1.
         12    1    3    3    0    0 -0.41616047881E+01  0.23237257305E+02  0.31410800360E+02  0.39292842360E+02  0.00000000000E+00 0. -1.
</event>
<event>
 7    1  0.7171085E-015  0.9000783E+02  0.7816164E-02  0.1186339E+00
        -11   -1    0    0    0    0  0.00000000000E+00  0.00000000000E+00  0.45593999997E+02  0.45594000000E+02  0.51100000000E-03 0. -1.
         11   -1    0    0    0    0 -0.00000000000E+00 -0.00000000000E+00 -0.45593999997E+02  0.45594000000E+02  0.51100000000E-03 0.  1.
    9900012    2    1    2    0    0 -0.98051573162E-01 -0.59182891299E+00 -0.10163326927E+01  0.90007827252E+02  0.90000089772E+02 0.  0.
         12    1    1    2    0    0  0.98051573162E-01  0.59182891299E+00  0.10163326927E+01  0.11801727481E+01  0.00000000000E+00 0. -1.
         11    1    3    3    0    0  0.26755938428E+02 -0.23796219375E+02  0.12673848486E+02  0.37983769342E+02  0.51100000000E-03 0. -1.
        -11    1    3    3    0    0 -0.11010807714E+01 -0.87930885010E+01 -0.44824028682E+01  0.99308972397E+01  0.51100000000E-03 0.  1.
        -12    1    3    3    0    0 -0.25752909230E+02  0.31997478963E+02 -0.92077783107E+01  0.42093160670E+02  0.00000000000E+00 0.  1.
</event>
<event>
 7    1  0.3795708E-015  0.9000772E+02  0.7816164E-02  0.1186339E+00
        -11   -1    0    0    0    0  0.00000000000E+00  0.00000000000E+00  0.45593999997E+02  0.45594000000E+02  0.51100000000E-03 0. -1.
         11   -1    0    0    0    0 -0.00000000000E+00 -0.00000000000E+00 -0.45593999997E+02  0.45594000000E+02  0.51100000000E-03 0.  1.
    9900012    2    1    2    0    0  0.18890362239E+00  0.36038993563E+00 -0.11079292350E+01  0.90007715003E+02  0.89999976041E+02 0.  0.
         12    1    1    2    0    0 -0.18890362239E+00 -0.36038993563E+00  0.11079292350E+01  0.11802849970E+01  0.00000000000E+00 0. -1.
         11    1    3    3    0    0 -0.34181970218E+01  0.71816892706E+01 -0.35422590951E+01  0.87067980003E+01  0.51100000000E-03 0. -1.
        -11    1    3    3    0    0 -0.30380033586E+02 -0.11368054306E+02  0.24390296103E+02  0.40584056520E+02  0.51100000000E-03 0.  1.
         12    1    3    3    0    0  0.33987134230E+02  0.45467549706E+01 -0.21955966243E+02  0.40716860483E+02  0.00000000000E+00 0. -1.
</event>
<event>
 7    1  0.3795708E-015  0.9000760E+02  0.7816164E-02  0.1186339E+00
        -11   -1    0    0    0    0  0.00000000000E+00  0.00000000000E+00  0.45593999997E+02  0.45594000000E+02  0.51100000000E-03 0.  1.
         11   -1    0    0    0    0 -0.00000000000E+00 -0.00000000000E+00 -0.45593999997E+02  0.45594000000E+02  0.51100000000E-03 0. -1.
    9900012    2    1    2    0    0 -0.36599168412E+00  0.58884955922E+00  0.95532507273E+00  0.90007601885E+02  0.89999861429E+02 0.  0.
         12    1    1    2    0    0  0.36599168412E+00 -0.58884955922E+00 -0.95532507273E+00  0.11803981154E+01  0.00000000000E+00 0. -1.
         11    1    3    3    0    0 -0.42991714775E-01  0.17263564983E+02 -0.29755385037E+02  0.34400806141E+02  0.51100000000E-03 0. -1.
        -11    1    3    3    0    0 -0.40233144934E+01 -0.11929773724E+01 -0.10565108200E+02  0.11368015045E+02  0.51100000000E-03 0.  1.
        -12    1    3    3    0    0  0.37003145240E+01 -0.15481738051E+02  0.41275818309E+02  0.44238780699E+02  0.00000000000E+00 0.  1.
</event>
<event>
 7    1  0.3795708E-015  0.9000768E+02  0.7816164E-02  0.1186339E+00
        -11   -1    0    0    0    0  0.00000000000E+00  0.00000000000E+00  0.45593999997E+02  0.45594000000E+02  0.51100000000E-03 0. -1.
         11   -1    0    0    0    0 -0.00000000000E+00 -0.00000000000E+00 -0.45593999997E+02  0.45594000000E+02  0.51100000000E-03 0.  1.
    9900012    2    1    2    0    0 -0.39956125107E+00  0.66561535601E+00 -0.88907764039E+00  0.90007681379E+02  0.89999941974E+02 0.  0.
         12    1    1    2    0    0  0.39956125107E+00 -0.66561535601E+00  0.88907764039E+00  0.11803186206E+01  0.00000000000E+00 0. -1.
         11    1    3    3    0    0  0.20608917827E+01 -0.68750563663E+01  0.17277326548E+01  0.73823258779E+01  0.51100000000E-03 0. -1.
        -11    1    3    3    0    0 -0.38886420950E+02 -0.63048372265E+01  0.11723974341E+02  0.41101779540E+02  0.51100000000E-03 0.  1.
         12    1    3    3    0    0  0.36425967916E+02  0.13845508949E+02 -0.14340784636E+02  0.41523575962E+02  0.00000000000E+00 0. -1.
</event>
<event>
 7    1  0.3795708E-015  0.9000773E+02  0.7816164E-02  0.1186339E+00
        -11   -1    0    0    0    0  0.00000000000E+00  0.00000000000E+00  0.45593999997E+02  0.45594000000E+02  0.51100000000E-03 0. -1.
         11   -1    0    0    0    0 -0.00000000000E+00 -0.00000000000E+00 -0.45593999997E+02  0.45594000000E+02  0.51100000000E-03 0.  1.
    9900012    2    1    2    0    0  0.12331397935E+00 -0.96603461640E+00 -0.66678836658E+00  0.90007730563E+02  0.89999991807E+02 0.  0.
         12    1    1    2    0    0 -0.12331397935E+00  0.96603461640E+00  0.66678836658E+00  0.11802694368E+01  0.00000000000E+00 0. -1.
         11    1    3    3    0    0  0.30797067842E+01 -0.43182710439E+01 -0.66085905902E+01  0.84738142849E+01  0.51100000000E-03 0. -1.
        -11    1    3    3    0    0 -0.63216454890E+01 -0.23498422418E+02 -0.28666496539E+02  0.37601955825E+02  0.51100000000E-03 0.  1.
         12    1    3    3    0    0  0.33652526841E+01  0.26850658845E+02  0.34608298762E+02  0.43931960453E+02  0.00000000000E+00 0. -1.
</event>
<event>
 7    1  0.3795708E-015  0.9000776E+02  0.7816164E-02  0.1186339E+00
        -11   -1    0    0    0    0  0.00000000000E+00  0.00000000000E+00  0.45593999997E+02  0.45594000000E+02  0.51100000000E-03 0.  1.
         11   -1    0    0    0    0 -0.00000000000E+00 -0.00000000000E+00 -0.45593999997E+02  0.45594000000E+02  0.51100000000E-03 0. -1.
    9900012    2    1    2    0    0  0.75626754913E+00  0.81031466228E+00 -0.40547991461E+00  0.90007760864E+02  0.90000022507E+02 0.  0.
         12    1    1    2    0    0 -0.75626754913E+00 -0.81031466228E+00  0.40547991461E+00  0.11802391363E+01  0.00000000000E+00 0. -1.
         11    1    3    3    0    0 -0.26016970958E+02  0.19235434186E+02 -0.19288177817E+02  0.37668534746E+02  0.51100000000E-03 0. -1.
        -11    1    3    3    0    0 -0.62693352119E+01  0.51310790099E+01  0.46196191014E+01  0.93259539302E+01  0.51100000000E-03 0.  1.
        -12    1    3    3    0    0  0.33042573719E+02 -0.23556198534E+02  0.14263078801E+02  0.43013272187E+02  0.00000000000E+00 0.  1.
</event>
<event>
 7    1  0.3795708E-015  0.9000774E+02  0.7816164E-02  0.1186339E+00
        -11   -1    0    0    0    0  0.00000000000E+00  0.00000000000E+00  0.45593999997E+02  0.45594000000E+02  0.51100000000E-03 0.  1.
         11   -1    0    0    0    0 -0.00000000000E+00 -0.00000000000E+00 -0.45593999997E+02  0.45594000000E+02  0.51100000000E-03 0. -1.
    9900012    2    1    2    0    0  0.11547092329E+01 -0.11461590418E+00  0.21568554364E+00  0.90007741354E+02  0.90000002740E+02 0.  0.
         12    1    1    2    0    0 -0.11547092329E+01  0.11461590418E+00 -0.21568554364E+00  0.11802586462E+01  0.00000000000E+00 0. -1.
         11    1    3    3    0    0 -0.25744703691E+02 -0.22712745853E+02 -0.20798464952E+02  0.40140188551E+02  0.51100000000E-03 0. -1.
        -11    1    3    3    0    0  0.10266089830E+02 -0.50681386370E+01  0.18672593353E+00  0.11450480186E+02  0.51100000000E-03 0.  1.
        -12    1    3    3    0    0  0.16633323093E+02  0.27666268586E+02  0.20827424562E+02  0.38417072617E+02  0.00000000000E+00 0.  1.
</event>
<event>
 7    1  0.3795708E-015  0.9000779E+02  0.7816164E-02  0.1186339E+00
        -11   -1    0    0    0    0  0.00000000000E+00  0.00000000000E+00  0.45593999997E+02  0.45594000000E+02  0.51100000000E-03 0.  1.
         11   -1    0    0    0    0 -0.00000000000E+00 -0.00000000000E+00 -0.45593999997E+02  0.45594000000E+02  0.51100000000E-03 0. -1.
    9900012    2    1    2    0    0 -0.35693846769E+00  0.37022253041E+00  0.10622778616E+01  0.90007786440E+02  0.90000048421E+02 0.  0.
         12    1    1    2    0    0  0.35693846769E+00 -0.37022253041E+00 -0.10622778616E+01  0.11802135599E+01  0.00000000000E+00 0. -1.
         11    1    3    3    0    0 -0.53630397989E+00  0.62252899666E+01 -0.47189786181E+01  0.78301096153E+01  0.51100000000E-03 0. -1.
        -11    1    3    3    0    0 -0.13349270605E+02  0.16820864924E+02  0.36080401828E+02  0.41987378089E+02  0.51100000000E-03 0.  1.
         12    1    3    3    0    0  0.13528636118E+02 -0.22675932360E+02 -0.30299145348E+02  0.40190298735E+02  0.00000000000E+00 0. -1.
</event>
<event>
 7    1  0.3795708E-015  0.9000783E+02  0.7816164E-02  0.1186339E+00
        -11   -1    0    0    0    0  0.00000000000E+00  0.00000000000E+00  0.45593999997E+02  0.45594000000E+02  0.51100000000E-03 0. -1.
         11   -1    0    0    0    0 -0.00000000000E+00 -0.00000000000E+00 -0.45593999997E+02  0.45594000000E+02  0.51100000000E-03 0.  1.
    9900012    2    1    2    0    0  0.96040358448E+00 -0.39153621351E+00 -0.56314793211E+00  0.90007825756E+02  0.90000088256E+02 0.  0.
         12    1    1    2    0    0 -0.96040358448E+00  0.39153621351E+00  0.56314793211E+00  0.11801742435E+01  0.00000000000E+00 0. -1.
         11    1    3    3    0    0  0.14272915318E+01 -0.99547461261E+01  0.17315533307E+01  0.10204528835E+02  0.51100000000E-03 0. -1.
        -11    1    3    3    0    0  0.34666357094E+02 -0.14083070518E+02 -0.14159508807E+01  0.37444547087E+02  0.51100000000E-03 0.  1.
         12    1    3    3    0    0 -0.35133245041E+02  0.23646280431E+02 -0.87875038212E+00  0.42358749835E+02  0.00000000000E+00 0. -1.
</event>
<event>
 7    1  0.3795708E-015  0.9000773E+02  0.7816164E-02  0.1186339E+00
        -11   -1    0    0    0    0  0.00000000000E+00  0.00000000000E+00  0.45593999997E+02  0.45594000000E+02  0.51100000000E-03 0. -1.
         11   -1    0    0    0    0 -0.00000000000E+00 -0.00000000000E+00 -0.45593999997E+02  0.45594000000E+02  0.51100000000E-03 0.  1.
    9900012    2    1    2    0    0  0.12877727822E+00 -0.22112887417E+00 -0.11521956548E+01  0.90007730373E+02  0.89999991613E+02 0.  0.
         12    1    1    2    0    0 -0.12877727822E+00  0.22112887417E+00  0.11521956548E+01  0.11802696274E+01  0.00000000000E+00 0. -1.
         11    1    3    3    0    0 -0.96436913013E+01 -0.22438735384E+02 -0.11142724725E+02  0.26845072958E+02  0.51100000000E-03 0. -1.
        -11    1    3    3    0    0  0.10352978983E+02 -0.15367794405E+02 -0.94968354788E+01  0.20821699332E+02  0.51100000000E-03 0.  1.
         12    1    3    3    0    0 -0.58051040372E+00  0.37585400915E+02  0.19487364549E+02  0.42340958083E+02  0.00000000000E+00 0. -1.
</event>
<event>
 7    1  0.3795708E-015  0.9000784E+02  0.7816164E-02  0.1186339E+00
        -11   -1    0    0    0    0  0.00000000000E+00  0.00000000000E+00  0.45593999997E+02  0.45594000000E+02  0.51100000000E-03 0.  1.
         11   -1    0    0    0    0 -0.00000000000E+00 -0.00000000000E+00 -0.45593999997E+02  0.45594000000E+02  0.51100000000E-03 0. -1.
    9900012    2    1    2    0    0 -0.54606634950E+00 -0.28331788139E+00 -0.10071323706E+01  0.90007841921E+02  0.90000104634E+02 0.  0.
         12    1    1    2    0    0  0.54606634950E+00  0.28331788139E+00  0.10071323706E+01  0.11801580792E+01  0.00000000000E+00 0. -1.
         11    1    3    3    0    0 -0.62940438486E+01  0.42803514658E+00 -0.30394870135E+01  0.70026197684E+01  0.51100000000E-03 0. -1.
        -11    1    3    3    0    0  0.10176566422E+02 -0.25341098656E+02  0.33229910125E+02  0.43011169624E+02  0.51100000000E-03 0.  1.
         12    1    3    3    0    0 -0.44285889226E+01  0.24629745628E+02 -0.31197555482E+02  0.39994052528E+02  0.00000000000E+00 0. -1.
</event>
<event>
 7    1  0.3795708E-015  0.9000775E+02  0.7816164E-02  0.1186339E+00
        -11   -1    0    0    0    0  0.00000000000E+00  0.00000000000E+00  0.45593999997E+02  0.45594000000E+02  0.51100000000E-03 0.  1.
         11   -1    0    0    0    0 -0.00000000000E+00 -0.00000000000E+00 -0.45593999997E+02  0.45594000000E+02  0.51100000000E-03 0. -1.
    9900012    2    1    2    0    0 -0.19758861050E+00 -0.48111575441E+00 -0.10594748247E+01  0.90007745565E+02  0.90000007006E+02 0.  0.
         12    1    1    2    0    0  0.19758861050E+00  0.48111575441E+00  0.10594748247E+01  0.11802544354E+01  0.00000000000E+00 0. -1.
         11    1    3    3    0    0 -0.50839553759E+01 -0.64615446062E+00 -0.78179877624E+01  0.93479971527E+01  0.51100000000E-03 0. -1.
        -11    1    3    3    0    0 -0.22270768878E+02  0.43403263198E+01  0.34707947676E+02  0.41466458869E+02  0.51100000000E-03 0.  1.
         12    1    3    3    0    0  0.27157135644E+02 -0.41752876135E+01 -0.27949434738E+02  0.39193289543E+02  0.00000000000E+00 0. -1.
</event>
<event>
 7    1  0.3795708E-015  0.9000802E+02  0.7816164E-02  0.1186338E+00
        -11   -1    0    0    0    0  0.00000000000E+00  0.00000000000E+00  0.45593999997E+02  0.45594000000E+02  0.51100000000E-03 0.  1.
         11   -1    0    0    0    0 -0.00000000000E+00 -0.00000000000E+00 -0.45593999997E+02  0.45594000000E+02  0.51100000000E-03 0. -1.
    9900012    2    1    2    0    0  0.77615136743E+00  0.87836860400E+00  0.13568334015E+00  0.90008020204E+02  0.90000285270E+02 0.  0.
         12    1    1    2    0    0 -0.77615136743E+00 -0.87836860400E+00 -0.13568334015E+00  0.11799797958E+01  0.00000000000E+00 0. -1.
         11    1    3    3    0    0 -0.22940598038E+02  0.15407926503E+02  0.28214072955E+02  0.39493153209E+02  0.51100000000E-03 0. -1.
        -11    1    3    3    0    0  0.17198074435E+01  0.75834412581E+01  0.10395049003E+01  0.78451825763E+01  0.51100000000E-03 0.  1.
        -12    1    3    3    0    0  0.21996941962E+02 -0.22112999157E+02 -0.29117894515E+02  0.42669684419E+02  0.00000000000E+00 0.  1.
</event>
<event>
 7    1  0.3795708E-015  0.9000777E+02  0.7816164E-02  0.1186339E+00
        -11   -1    0    0    0    0  0.00000000000E+00  0.00000000000E+00  0.45593999997E+02  0.45594000000E+02  0.51100000000E-03 0.  1.
         11   -1    0    0    0    0 -0.00000000000E+00 -0.00000000000E+00 -0.45593999997E+02  0.45594000000E+02  0.51100000000E-03 0. -1.
    9900012    2    1    2    0    0  0.11438720200E+01  0.49591986305E-01 -0.28642273581E+00  0.90007770977E+02  0.90000032754E+02 0.  0.
         12    1    1    2    0    0 -0.11438720200E+01 -0.49591986305E-01  0.28642273581E+00  0.11802290231E+01  0.00000000000E+00 0. -1.
         11    1    3    3    0    0 -0.33327723383E+00 -0.42326553396E+01 -0.16687990600E+02  0.17219624719E+02  0.51100000000E-03 0. -1.
        -11    1    3    3    0    0 -0.10191975566E+02 -0.28247120424E+02  0.22720302546E+02  0.37656185763E+02  0.51100000000E-03 0.  1.
         12    1    3    3    0    0  0.11669124820E+02  0.32529367750E+02 -0.63187346816E+01  0.35131960495E+02  0.00000000000E+00 0. -1.
</event>
<event>
 7    1  0.3795708E-015  0.9000768E+02  0.7816164E-02  0.1186339E+00
        -11   -1    0    0    0    0  0.00000000000E+00  0.00000000000E+00  0.45593999997E+02  0.45594000000E+02  0.51100000000E-03 0.  1.
         11   -1    0    0    0    0 -0.00000000000E+00 -0.00000000000E+00 -0.45593999997E+02  0.45594000000E+02  0.51100000000E-03 0. -1.
    9900012    2    1    2    0    0 -0.96689756957E+00 -0.31573706780E+00 -0.59880569125E+00  0.90007682644E+02  0.89999943254E+02 0.  0.
         12    1    1    2    0    0  0.96689756957E+00  0.31573706780E+00  0.59880569125E+00  0.11803173564E+01  0.00000000000E+00 0. -1.
         11    1    3    3    0    0  0.21043391393E+00 -0.21127593857E+02 -0.29565316996E+02  0.36339062645E+02  0.51100000000E-03 0. -1.
        -11    1    3    3    0    0  0.35874382344E+01 -0.22679861798E+01 -0.84459575635E+01  0.94523898472E+01  0.51100000000E-03 0.  1.
        -12    1    3    3    0    0 -0.47647697179E+01  0.23079842969E+02  0.37412468868E+02  0.44216230151E+02  0.00000000000E+00 0.  1.
</event>
<event>
 7    1  0.3795708E-015  0.9000771E+02  0.7816164E-02  0.1186339E+00
        -11   -1    0    0    0    0  0.00000000000E+00  0.00000000000E+00  0.45593999997E+02  0.45594000000E+02  0.51100000000E-03 0. -1.
         11   -1    0    0    0    0 -0.00000000000E+00 -0.00000000000E+00 -0.45593999997E+02  0.45594000000E+02  0.51100000000E-03 0.  1.
    9900012    2    1    2    0    0 -0.83096132330E+00 -0.10848588515E+00 -0.83115981675E+00  0.90007706583E+02  0.89999967510E+02 0.  0.
         12    1    1    2    0    0  0.83096132330E+00  0.10848588515E+00  0.83115981675E+00  0.11802934165E+01  0.00000000000E+00 0. -1.
         11    1    3    3    0    0 -0.57482844576E+01 -0.22920612165E+01  0.56950586471E+01  0.84101136782E+01  0.51100000000E-03 0. -1.
        -11    1    3    3    0    0  0.35114509578E+02 -0.55289816236E+01 -0.26712185967E+02  0.44465034578E+02  0.51100000000E-03 0.  1.
         12    1    3    3    0    0 -0.30197186443E+02  0.77125569549E+01  0.20185967503E+02  0.37132558327E+02  0.00000000000E+00 0. -1.
</event>
<event>
 7    1  0.3795708E-015  0.9000768E+02  0.7816164E-02  0.1186339E+00
        -11   -1    0    0    0    0  0.00000000000E+00  0.00000000000E+00  0.45593999997E+02  0.45594000000E+02  0.51100000000E-03 0. -1.
         11   -1    0    0    0    0 -0.00000000000E+00 -0.00000000000E+00 -0.45593999997E+02  0.45594000000E+02  0.51100000000E-03 0.  1.
    9900012    2    1    2    0    0 -0.16623529294E+00  0.52464338665E+00 -0.10441655517E+01  0.90007675233E+02  0.89999935746E+02 0.  0.
         12    1    1    2    0    0  0.16623529294E+00 -0.52464338665E+00  0.10441655517E+01  0.11803247668E+01  0.00000000000E+00 0. -1.
         11    1    3    3    0    0 -0.66999039511E+00 -0.78271166294E+01  0.32686161237E+02  0.33616926964E+02  0.51100000000E-03 0. -1.
        -11    1    3    3    0    0 -0.25732329423E+00 -0.77863145655E+01  0.82872509162E+01  0.11374156575E+02  0.51100000000E-03 0.  1.
        -12    1    3    3    0    0  0.76107839640E+00  0.16138074582E+02 -0.42017577705E+02  0.45016591694E+02  0.00000000000E+00 0.  1.
</event>
<event>
 7    1  0.3795708E-015  0.9000778E+02  0.7816164E-02  0.1186339E+00
        -11   -1    0    0    0    0  0.00000000000E+00  0.00000000000E+00  0.45593999997E+02  0.45594000000E+02  0.51100000000E-03 0.  1.
         11   -1    0    0    0    0 -0.00000000000E+00 -0.00000000000E+00 -0.45593999997E+02  0.45594000000E+02  0.51100000000E-03 0. -1.
    9900012    2    1    2    0    0 -0.80077606048E+00 -0.77860031135E+00  0.38140527990E+00  0.90007775135E+02  0.90000036967E+02 0.  0.
         12    1    1    2    0    0  0.80077606048E+00  0.77860031135E+00 -0.38140527990E+00  0.11802248648E+01  0.00000000000E+00 0. -1.
         11    1    3    3    0    0 -0.18547040144E+02  0.22293851492E+01  0.69862538879E+01  0.19944187121E+02  0.51100000000E-03 0. -1.
        -11    1    3    3    0    0  0.53339954547E+01  0.21546451394E+02  0.21380071415E+02  0.30818963791E+02  0.51100000000E-03 0.  1.
         12    1    3    3    0    0  0.12412268629E+02 -0.24554436854E+02 -0.27984920023E+02  0.39244624224E+02  0.00000000000E+00 0. -1.
</event>
<event>
 7    1  0.3795708E-015  0.9000772E+02  0.7816164E-02  0.1186339E+00
        -11   -1    0    0    0    0  0.00000000000E+00  0.00000000000E+00  0.45593999997E+02  0.45594000000E+02  0.51100000000E-03 0.  1.
         11   -1    0    0    0    0 -0.00000000000E+00 -0.00000000000E+00 -0.45593999997E+02  0.45594000000E+02  0.51100000000E-03 0. -1.
    9900012    2    1    2    0    0  0.92788134010E+00  0.10107394430E-01  0.72938416767E+00  0.90007717320E+02  0.89999978389E+02 0.  0.
         12    1    1    2    0    0 -0.92788134010E+00 -0.10107394430E-01 -0.72938416767E+00  0.11802826800E+01  0.00000000000E+00 0. -1.
         11    1    3    3    0    0 -0.93202417543E+01 -0.41239786249E+01  0.11536481502E+02  0.15393651671E+02  0.51100000000E-03 0. -1.
        -11    1    3    3    0    0  0.39904387048E+02  0.27959554477E+00 -0.18120926387E+02  0.43827003693E+02  0.51100000000E-03 0.  1.
         12    1    3    3    0    0 -0.29656263953E+02  0.38544904746E+01  0.73138290528E+01  0.30787061956E+02  0.00000000000E+00 0. -1.
</event>
<event>
 7    1  0.7181189E-015  0.9000784E+02  0.7816164E-02  0.1186339E+00
        -11   -1    0    0    0    0  0.00000000000E+00  0.00000000000E+00  0.45593999997E+02  0.45594000000E+02  0.51100000000E-03 0.  1.
         11   -1    0    0    0    0 -0.00000000000E+00 -0.00000000000E+00 -0.45593999997E+02  0.45594000000E+02  0.51100000000E-03 0. -1.
    9900012    2    1    2    0    0  0.10302268783E+01  0.26624609934E+00  0.51042190101E+00  0.90007836908E+02  0.90000099555E+02 0.  0.
         12    1    1    2    0    0 -0.10302268783E+01 -0.26624609934E+00 -0.51042190101E+00  0.11801630918E+01  0.00000000000E+00 0. -1.
         11    1    3    3    0    0 -0.80924642863E+01 -0.15494702082E+02 -0.33730242447E+02  0.37990828191E+02  0.51100000000E-03 0. -1.
        -11    1    3    3    0    0 -0.42659264970E+01 -0.81904647179E+01  0.15955738738E+01  0.93716432614E+01  0.51100000000E-03 0.  1.
        -12    1    3    3    0    0  0.13388617662E+02  0.23951412899E+02  0.32645090474E+02  0.42645365456E+02  0.00000000000E+00 0.  1.
</event>
<event>
 7    1  0.3795708E-015  0.9000767E+02  0.7816164E-02  0.1186339E+00
        -11   -1    0    0    0    0  0.00000000000E+00  0.00000000000E+00  0.45593999997E+02  0.45594000000E+02  0.51100000000E-03 0.  1.
         11   -1    0    0    0    0 -0.00000000000E+00 -0.00000000000E+00 -0.45593999997E+02  0.45594000000E+02  0.51100000000E-03 0. -1.
    9900012    2    1    2    0    0  0.42113974025E+00 -0.10515624078E+01  0.33171242144E+00  0.90007671525E+02  0.89999931989E+02 0.  0.
         12    1    1    2    0    0 -0.42113974025E+00  0.10515624078E+01 -0.33171242144E+00  0.11803284750E+01  0.00000000000E+00 0. -1.
         11    1    3    3    0    0 -0.70925980927E+01  0.26258910568E+01  0.37378552253E+01  0.84363388679E+01  0.51100000000E-03 0. -1.
        -11    1    3    3    0    0 -0.34697468537E+02  0.73053764006E+01  0.82886865696E+01  0.36414079318E+02  0.51100000000E-03 0.  1.
         12    1    3    3    0    0  0.42211206370E+02 -0.10982829865E+02 -0.11694829374E+02  0.45157253339E+02  0.00000000000E+00 0. -1.
</event>
<event>
 7    1  0.3795708E-015  0.9000775E+02  0.7816164E-02  0.1186339E+00
        -11   -1    0    0    0    0  0.00000000000E+00  0.00000000000E+00  0.45593999997E+02  0.45594000000E+02  0.51100000000E-03 0.  1.
         11   -1    0    0    0    0 -0.00000000000E+00 -0.00000000000E+00 -0.45593999997E+02  0.45594000000E+02  0.51100000000E-03 0. -1.
    9900012    2    1    2    0    0  0.66975900890E+00 -0.97098428141E+00  0.40077906246E-01  0.90007748398E+02  0.90000009877E+02 0.  0.
         12    1    1    2    0    0 -0.66975900890E+00  0.97098428141E+00 -0.40077906246E-01  0.11802516017E+01  0.00000000000E+00 0. -1.
         11    1    3    3    0    0  0.79622895522E+01 -0.55865895146E+01  0.14931879120E+01  0.98406121618E+01  0.51100000000E-03 0. -1.
        -11    1    3    3    0    0 -0.91910631191E+01  0.82452672564E+01  0.38280680902E+02  0.40222762262E+02  0.51100000000E-03 0.  1.
         12    1    3    3    0    0  0.18985325758E+01 -0.36296620232E+01 -0.39733790908E+02  0.39944373975E+02  0.00000000000E+00 0. -1.
</event>
<event>
 7    1  0.3795708E-015  0.9000773E+02  0.7816164E-02  0.1186339E+00
        -11   -1    0    0    0    0  0.00000000000E+00  0.00000000000E+00  0.45593999997E+02  0.45594000000E+02  0.51100000000E-03 0. -1.
         11   -1    0    0    0    0 -0.00000000000E+00 -0.00000000000E+00 -0.45593999997E+02  0.45594000000E+02  0.51100000000E-03 0.  1.
    9900012    2    1    2    0    0  0.34806917911E+00  0.11273186222E+01  0.32217613494E-01  0.90007729944E+02  0.89999991180E+02 0.  0.
         12    1    1    2    0    0 -0.34806917911E+00 -0.11273186222E+01 -0.32217613494E-01  0.11802700556E+01  0.00000000000E+00 0. -1.
         11    1    3    3    0    0  0.11865899656E+02  0.33683005121E+02  0.12908551871E+02  0.37973347499E+02  0.51100000000E-03 0. -1.
        -11    1    3    3    0    0 -0.43219417207E+01  0.77843651239E+01  0.53212310955E+00  0.89195670233E+01  0.51100000000E-03 0.  1.
        -12    1    3    3    0    0 -0.71958887563E+01 -0.40340051622E+02 -0.13408457367E+02  0.43114815422E+02  0.00000000000E+00 0.  1.
</event>
<event>
 7    1  0.3795708E-015  0.9000768E+02  0.7816164E-02  0.1186339E+00
        -11   -1    0    0    0    0  0.00000000000E+00  0.00000000000E+00  0.45593999997E+02  0.45594000000E+02  0.51100000000E-03 0.  1.
         11   -1    0    0    0    0 -0.00000000000E+00 -0.00000000000E+00 -0.45593999997E+02  0.45594000000E+02  0.51100000000E-03 0. -1.
    9900012    2    1    2    0    0  0.11628856231E+01  0.20038639116E+00 -0.26614550501E-01  0.90007675463E+02  0.89999935979E+02 0.  0.
         12    1    1    2    0    0 -0.11628856231E+01 -0.20038639116E+00  0.26614550501E-01  0.11803245369E+01  0.00000000000E+00 0. -1.
         11    1    3    3    0    0  0.57563083509E+01  0.39021710459E+01 -0.98004561372E+01  0.12017111361E+02  0.51100000000E-03 0. -1.
        -11    1    3    3    0    0  0.20349386042E+02  0.18403915288E+02  0.28665383319E+02  0.39680042985E+02  0.51100000000E-03 0.  1.
         12    1    3    3    0    0 -0.24942808770E+02 -0.22105699942E+02 -0.18891541732E+02  0.38310521117E+02  0.00000000000E+00 0. -1.
</event>
<event>
 7    1  0.3795708E-015  0.9000783E+02  0.7816164E-02  0.1186339E+00
        -11   -1    0    0    0    0  0.00000000000E+00  0.00000000000E+00  0.45593999997E+02  0.45594000000E+02  0.51100000000E-03 0. -1.
         11   -1    0    0    0    0 -0.00000000000E+00 -0.00000000000E+00 -0.45593999997E+02  0.45594000000E+02  0.51100000000E-03 0.  1.
    9900012    2    1    2    0    0  0.94824552101E+00  0.21468649801E+00 -0.66899107137E+00  0.90007826744E+02  0.90000089257E+02 0.  0.
         12    1    1    2    0    0 -0.94824552101E+00 -0.21468649801E+00  0.66899107137E+00  0.11801732560E+01  0.00000000000E+00 0. -1.
         11    1    3    3    0    0 -0.80603977449E+00 -0.61709197115E+01  0.15388222583E+02  0.16599016379E+02  0.51100000000E-03 0. -1.
        -11    1    3    3    0    0  0.35370173455E+02  0.12368419514E+02 -0.91918275436E+01  0.38581299426E+02  0.51100000000E-03 0.  1.
         12    1    3    3    0    0 -0.33615888160E+02 -0.59828133040E+01 -0.68653861111E+01  0.34827510940E+02  0.00000000000E+00 0. -1.
</event>
<event>
 7    1  0.3795708E-015  0.9000789E+02  0.7816164E-02  0.1186339E+00
        -11   -1    0    0    0    0  0.00000000000E+00  0.00000000000E+00  0.45593999997E+02  0.45594000000E+02  0.51100000000E-03 0.  1.
         11   -1    0    0    0    0 -0.00000000000E+00 -0.00000000000E+00 -0.45593999997E+02  0.45594000000E+02  0.51100000000E-03 0. -1.
    9900012    2    1    2    0    0 -0.45774449596E+00 -0.10876116524E+01 -0.15208106567E-01  0.90007889659E+02  0.90000153003E+02 0.  0.
         12    1    1    2    0    0  0.45774449596E+00  0.10876116524E+01  0.15208106567E-01  0.11801103408E+01  0.00000000000E+00 0. -1.
         11    1    3    3    0    0  0.43249743148E+01 -0.30809421998E+01  0.52451104472E+01  0.74638322280E+01  0.51100000000E-03 0. -1.
        -11    1    3    3    0    0  0.27894806537E+02  0.48796930020E+01  0.25103851007E+02  0.37843559177E+02  0.51100000000E-03 0.  1.
         12    1    3    3    0    0 -0.32677525348E+02 -0.28863624546E+01 -0.30364169561E+02  0.44700498254E+02  0.00000000000E+00 0. -1.
</event>
<event>
 7    1  0.3795708E-015  0.9000776E+02  0.7816164E-02  0.1186339E+00
        -11   -1    0    0    0    0  0.00000000000E+00  0.00000000000E+00  0.45593999997E+02  0.45594000000E+02  0.51100000000E-03 0.  1.
         11   -1    0    0    0    0 -0.00000000000E+00 -0.00000000000E+00 -0.45593999997E+02  0.45594000000E+02  0.51100000000E-03 0. -1.
    9900012    2    1    2    0    0  0.55568037383E-01  0.68812161896E-01  0.11769238998E+01  0.90007757319E+02  0.90000018916E+02 0.  0.
         12    1    1    2    0    0 -0.55568037383E-01 -0.68812161896E-01 -0.11769238998E+01  0.11802426811E+01  0.00000000000E+00 0. -1.
         11    1    3    3    0    0  0.33725733540E+02  0.15539211665E+02 -0.11431960159E+02  0.38853338535E+02  0.51100000000E-03 0. -1.
        -11    1    3    3    0    0 -0.28783737292E+01  0.49411590125E+01 -0.72329305445E+01  0.92203780960E+01  0.51100000000E-03 0.  1.
        -12    1    3    3    0    0 -0.30791791774E+02 -0.20411558515E+02  0.19841814603E+02  0.41934040688E+02  0.00000000000E+00 0.  1.
</event>
<event>
 7    1  0.3795708E-015  0.9000800E+02  0.7816164E-02  0.1186339E+00
        -11   -1    0    0    0    0  0.00000000000E+00  0.00000000000E+00  0.45593999997E+02  0.45594000000E+02  0.51100000000E-03 0.  1.
         11   -1    0    0    0    0 -0.00000000000E+00 -0.00000000000E+00 -0.45593999997E+02  0.45594000000E+02  0.51100000000E-03 0. -1.
    9900012    2    1    2    0    0  0.13561670122E-01  0.45222632550E+00  0.10898147827E+01  0.90008004734E+02  0.90000269596E+02 0.  0.
         12    1    1    2    0    0 -0.13561670122E-01 -0.45222632550E+00 -0.10898147827E+01  0.11799952665E+01  0.00000000000E+00 0. -1.
         11    1    3    3    0    0 -0.67847487924E+00 -0.66042684101E+01  0.72123763461E+01  0.98028088940E+01  0.51100000000E-03 0. -1.
        -11    1    3    3    0    0  0.28838433839E+02  0.17547855264E+02  0.20981145410E+02  0.39746584175E+02  0.51100000000E-03 0.  1.
         12    1    3    3    0    0 -0.28146397289E+02 -0.10491360529E+02 -0.27103706973E+02  0.40458611664E+02  0.00000000000E+00 0. -1.
</event>
<event>
 7    1  0.3795708E-015  0.9000776E+02  0.7816164E-02  0.1186339E+00
        -11   -1    0    0    0    0  0.00000000000E+00  0.00000000000E+00  0.45593999997E+02  0.45594000000E+02  0.51100000000E-03 0.  1.
         11   -1    0    0    0    0 -0.00000000000E+00 -0.00000000000E+00 -0.45593999997E+02  0.45594000000E+02  0.51100000000E-03 0. -1.
    9900012    2    1    2    0    0  0.35165930823E+00  0.95012193660E+00  0.60544107107E+00  0.90007764916E+02  0.90000026613E+02 0.  0.
         12    1    1    2    0    0 -0.35165930823E+00 -0.95012193660E+00 -0.60544107107E+00  0.11802350842E+01  0.00000000000E+00 0. -1.
         11    1    3    3    0    0  0.50532059047E+01  0.15232496595E+01  0.60039446751E+01  0.79939058891E+01  0.51100000000E-03 0. -1.
        -11    1    3    3    0    0  0.22177414162E+02  0.23454626368E+02  0.19945336051E+02  0.37944349084E+02  0.51100000000E-03 0.  1.
         12    1    3    3    0    0 -0.26878960759E+02 -0.24027754091E+02 -0.25343839655E+02  0.44069509942E+02  0.00000000000E+00 0. -1.
</event>
<event>
 7    1  0.3795708E-015  0.9000771E+02  0.7816164E-02  0.1186339E+00
        -11   -1    0    0    0    0  0.00000000000E+00  0.00000000000E+00  0.45593999997E+02  0.45594000000E+02  0.51100000000E-03 0. -1.
         11   -1    0    0    0    0 -0.00000000000E+00 -0.00000000000E+00 -0.45593999997E+02  0.45594000000E+02  0.51100000000E-03 0.  1.
    9900012    2    1    2    0    0  0.24886287681E+00  0.93110957210E+00 -0.68131236092E+00  0.90007710078E+02  0.89999971051E+02 0.  0.
         12    1    1    2    0    0 -0.24886287681E+00 -0.93110957210E+00  0.68131236092E+00  0.11802899219E+01  0.00000000000E+00 0. -1.
         11    1    3    3    0    0 -0.32862105419E+02  0.20424077709E+02 -0.40338688422E+01  0.38901581214E+02  0.51100000000E-03 0. -1.
        -11    1    3    3    0    0 -0.69875223511E+01 -0.36065955600E+01  0.35976193229E+00  0.78716217548E+01  0.51100000000E-03 0.  1.
        -12    1    3    3    0    0  0.40098490647E+02 -0.15886372577E+02  0.29927945490E+01  0.43234507110E+02  0.00000000000E+00 0.  1.
</event>
<event>
 7    1  0.3795708E-015  0.9000773E+02  0.7816164E-02  0.1186339E+00
        -11   -1    0    0    0    0  0.00000000000E+00  0.00000000000E+00  0.45593999997E+02  0.45594000000E+02  0.51100000000E-03 0.  1.
         11   -1    0    0    0    0 -0.00000000000E+00 -0.00000000000E+00 -0.45593999997E+02  0.45594000000E+02  0.51100000000E-03 0. -1.
    9900012    2    1    2    0    0  0.41689200069E+00 -0.32086639778E+00  0.10565437017E+01  0.90007729362E+02  0.89999990590E+02 0.  0.
         12    1    1    2    0    0 -0.41689200069E+00  0.32086639778E+00 -0.10565437017E+01  0.11802706380E+01  0.00000000000E+00 0. -1.
         11    1    3    3    0    0 -0.18261743360E+02  0.27962994917E+02 -0.14097970013E+02  0.36251525678E+02  0.51100000000E-03 0. -1.
        -11    1    3    3    0    0  0.13059724535E+02  0.67598585690E+00  0.19965045846E+02  0.23866638173E+02  0.51100000000E-03 0.  1.
        -12    1    3    3    0    0  0.56189108256E+01 -0.28959847171E+02 -0.48105321313E+01  0.29889565511E+02  0.00000000000E+00 0.  1.
</event>
<event>
 7    1  0.3795708E-015  0.9000762E+02  0.7816164E-02  0.1186339E+00
        -11   -1    0    0    0    0  0.00000000000E+00  0.00000000000E+00  0.45593999997E+02  0.45594000000E+02  0.51100000000E-03 0.  1.
         11   -1    0    0    0    0 -0.00000000000E+00 -0.00000000000E+00 -0.45593999997E+02  0.45594000000E+02  0.51100000000E-03 0. -1.
    9900012    2    1    2    0    0 -0.11785815489E-01 -0.52972645367E+00  0.10547707059E+01  0.90007622830E+02  0.89999882651E+02 0.  0.
         12    1    1    2    0    0  0.11785815489E-01  0.52972645367E+00 -0.10547707059E+01  0.11803771699E+01  0.00000000000E+00 0. -1.
         11    1    3    3    0    0 -0.47453773484E+01  0.37639468687E+01  0.97324370089E+01  0.11463255759E+02  0.51100000000E-03 0. -1.
        -11    1    3    3    0    0 -0.36570144434E+02 -0.35351528743E+01 -0.33911622320E+01  0.36896785108E+02  0.51100000000E-03 0.  1.
         12    1    3    3    0    0  0.41303735967E+02 -0.75852044807E+00 -0.52865040709E+01  0.41647581963E+02  0.00000000000E+00 0. -1.
</event>
<event>
 7    1  0.3795708E-015  0.9000728E+02  0.7816164E-02  0.1186340E+00
        -11   -1    0    0    0    0  0.00000000000E+00  0.00000000000E+00  0.45593999997E+02  0.45594000000E+02  0.51100000000E-03 0.  1.
         11   -1    0    0    0    0 -0.00000000000E+00 -0.00000000000E+00 -0.45593999997E+02  0.45594000000E+02  0.51100000000E-03 0. -1.
    9900012    2    1    2    0    0  0.37886878846E+00  0.97771143945E+00  0.54280175151E+00  0.90007282015E+02  0.89999537337E+02 0.  0.
         12    1    1    2    0    0 -0.37886878846E+00 -0.97771143945E+00 -0.54280175151E+00  0.11807179846E+01  0.00000000000E+00 0. -1.
         11    1    3    3    0    0  0.97487360339E+01 -0.15434462931E+01 -0.42862696436E+01  0.10760677880E+02  0.51100000000E-03 0. -1.
        -11    1    3    3    0    0 -0.15844830042E+02 -0.25529776889E+02  0.28923195632E+02  0.41705867607E+02  0.51100000000E-03 0.  1.
         12    1    3    3    0    0  0.64749627966E+01  0.28050934621E+02 -0.24094124237E+02  0.37540736528E+02  0.00000000000E+00 0. -1.
</event>
<event>
 7    1  0.3795708E-015  0.9000775E+02  0.7816164E-02  0.1186339E+00
        -11   -1    0    0    0    0  0.00000000000E+00  0.00000000000E+00  0.45593999997E+02  0.45594000000E+02  0.51100000000E-03 0.  1.
         11   -1    0    0    0    0 -0.00000000000E+00 -0.00000000000E+00 -0.45593999997E+02  0.45594000000E+02  0.51100000000E-03 0. -1.
    9900012    2    1    2    0    0 -0.55848438371E+00 -0.12778271909E-01  0.10396761283E+01  0.90007748102E+02  0.90000009577E+02 0.  0.
         12    1    1    2    0    0  0.55848438371E+00  0.12778271909E-01 -0.10396761283E+01  0.11802518980E+01  0.00000000000E+00 0. -1.
         11    1    3    3    0    0  0.10841449180E+02 -0.27041521862E+02  0.14322239348E+02  0.32463940999E+02  0.51100000000E-03 0. -1.
        -11    1    3    3    0    0  0.94739274914E+01 -0.73601004716E+01  0.54393285138E+01  0.13172421038E+02  0.51100000000E-03 0.  1.
        -12    1    3    3    0    0 -0.20873861055E+02  0.34388844062E+02 -0.18721891734E+02  0.44371386065E+02  0.00000000000E+00 0.  1.
</event>
<event>
 7    1  0.3795708E-015  0.9000770E+02  0.7816164E-02  0.1186339E+00
        -11   -1    0    0    0    0  0.00000000000E+00  0.00000000000E+00  0.45593999997E+02  0.45594000000E+02  0.51100000000E-03 0. -1.
         11   -1    0    0    0    0 -0.00000000000E+00 -0.00000000000E+00 -0.45593999997E+02  0.45594000000E+02  0.51100000000E-03 0.  1.
    9900012    2    1    2    0    0  0.52485803610E+00 -0.85617240568E+00 -0.62016347703E+00  0.90007699240E+02  0.89999960070E+02 0.  0.
         12    1    1    2    0    0 -0.52485803610E+00  0.85617240568E+00  0.62016347703E+00  0.11803007602E+01  0.00000000000E+00 0. -1.
         11    1    3    3    0    0  0.62845487516E+01 -0.12938738857E+01 -0.84201048502E+01  0.10586209359E+02  0.51100000000E-03 0. -1.
        -11    1    3    3    0    0 -0.41228456459E+02  0.12415909786E+01  0.13686509621E+02  0.43458574712E+02  0.51100000000E-03 0.  1.
         12    1    3    3    0    0  0.35468765743E+02 -0.80388949860E+00 -0.58865682483E+01  0.35962915169E+02  0.00000000000E+00 0. -1.
</event>
<event>
 7    1  0.3795708E-015  0.9000773E+02  0.7816164E-02  0.1186339E+00
        -11   -1    0    0    0    0  0.00000000000E+00  0.00000000000E+00  0.45593999997E+02  0.45594000000E+02  0.51100000000E-03 0.  1.
         11   -1    0    0    0    0 -0.00000000000E+00 -0.00000000000E+00 -0.45593999997E+02  0.45594000000E+02  0.51100000000E-03 0. -1.
    9900012    2    1    2    0    0  0.64022841493E+00  0.41295806693E+00  0.90144867987E+00  0.90007730323E+02  0.89999991563E+02 0.  0.
         12    1    1    2    0    0 -0.64022841493E+00 -0.41295806693E+00 -0.90144867987E+00  0.11802696771E+01  0.00000000000E+00 0. -1.
         11    1    3    3    0    0 -0.21440000621E+02  0.24657545699E+02 -0.17252765793E+02  0.36950319542E+02  0.51100000000E-03 0. -1.
        -11    1    3    3    0    0 -0.71305007037E+01  0.39884395092E+01 -0.83679748120E+00  0.82129118033E+01  0.51100000000E-03 0.  1.
        -12    1    3    3    0    0  0.29210729739E+02 -0.28233027141E+02  0.18991011954E+02  0.44844498977E+02  0.00000000000E+00 0.  1.
</event>
<event>
 7    1  0.3795708E-015  0.9000769E+02  0.7816164E-02  0.1186339E+00
        -11   -1    0    0    0    0  0.00000000000E+00  0.00000000000E+00  0.45593999997E+02  0.45594000000E+02  0.51100000000E-03 0.  1.
         11   -1    0    0    0    0 -0.00000000000E+00 -0.00000000000E+00 -0.45593999997E+02  0.45594000000E+02  0.51100000000E-03 0. -1.
    9900012    2    1    2    0    0  0.54097983182E+00  0.37404528699E+00  0.98008815958E+00  0.90007685696E+02  0.89999946347E+02 0.  0.
         12    1    1    2    0    0 -0.54097983182E+00 -0.37404528699E+00 -0.98008815958E+00  0.11803143038E+01  0.00000000000E+00 0. -1.
         11    1    3    3    0    0  0.19931040237E+01 -0.13308191289E+01 -0.39583007232E+02  0.39655491486E+02  0.51100000000E-03 0. -1.
        -11    1    3    3    0    0 -0.50687712635E+01 -0.69074979644E+01 -0.16232862755E+00  0.85692660768E+01  0.51100000000E-03 0.  1.
        -12    1    3    3    0    0  0.36166470716E+01  0.86123623804E+01  0.40725424019E+02  0.41782928133E+02  0.00000000000E+00 0.  1.
</event>
<event>
 7    1  0.3795708E-015  0.9000763E+02  0.7816164E-02  0.1186339E+00
        -11   -1    0    0    0    0  0.00000000000E+00  0.00000000000E+00  0.45593999997E+02  0.45594000000E+02  0.51100000000E-03 0.  1.
         11   -1    0    0    0    0 -0.00000000000E+00 -0.00000000000E+00 -0.45593999997E+02  0.45594000000E+02  0.51100000000E-03 0. -1.
    9900012    2    1    2    0    0 -0.71408286245E+00  0.26421311293E+00  0.90196542203E+00  0.90007633732E+02  0.89999893697E+02 0.  0.
         12    1    1    2    0    0  0.71408286245E+00 -0.26421311293E+00 -0.90196542203E+00  0.11803662677E+01  0.00000000000E+00 0. -1.
         11    1    3    3    0    0  0.12662542511E+02 -0.23022762150E+01 -0.53344007334E+01  0.13931844460E+02  0.51100000000E-03 0. -1.
        -11    1    3    3    0    0 -0.35269918162E+02 -0.13931328729E+02  0.22604466893E+02  0.44147604364E+02  0.51100000000E-03 0.  1.
         12    1    3    3    0    0  0.21893292789E+02  0.16497818057E+02 -0.16368100737E+02  0.31928184908E+02  0.00000000000E+00 0. -1.
</event>
<event>
 7    1  0.3795708E-015  0.9000770E+02  0.7816164E-02  0.1186339E+00
        -11   -1    0    0    0    0  0.00000000000E+00  0.00000000000E+00  0.45593999997E+02  0.45594000000E+02  0.51100000000E-03 0.  1.
         11   -1    0    0    0    0 -0.00000000000E+00 -0.00000000000E+00 -0.45593999997E+02  0.45594000000E+02  0.51100000000E-03 0. -1.
    9900012    2    1    2    0    0 -0.93043209046E+00 -0.41944756699E+00  0.59284372659E+00  0.90007701809E+02  0.89999962672E+02 0.  0.
         12    1    1    2    0    0  0.93043209046E+00  0.41944756699E+00 -0.59284372659E+00  0.11802981914E+01  0.00000000000E+00 0. -1.
         11    1    3    3    0    0 -0.10416821417E+01  0.84744654297E+01  0.41083268907E+01  0.94752317178E+01  0.51100000000E-03 0. -1.
        -11    1    3    3    0    0 -0.32593846430E+02 -0.23162314154E+02 -0.15509994547E+02  0.42888361512E+02  0.51100000000E-03 0.  1.
         12    1    3    3    0    0  0.32705096481E+02  0.14268401157E+02  0.11994511383E+02  0.37644108579E+02  0.00000000000E+00 0. -1.
</event>
<event>
 7    1  0.3795708E-015  0.9000773E+02  0.7816164E-02  0.1186339E+00
        -11   -1    0    0    0    0  0.00000000000E+00  0.00000000000E+00  0.45593999997E+02  0.45594000000E+02  0.51100000000E-03 0. -1.
         11   -1    0    0    0    0 -0.00000000000E+00 -0.00000000000E+00 -0.45593999997E+02  0.45594000000E+02  0.51100000000E-03 0.  1.
    9900012    2    1    2    0    0 -0.38311540205E+00 -0.85570051259E+00 -0.71695684656E+00  0.90007733971E+02  0.89999995260E+02 0.  0.
         12    1    1    2    0    0  0.38311540205E+00  0.85570051259E+00  0.71695684656E+00  0.11802660286E+01  0.00000000000E+00 0. -1.
         11    1    3    3    0    0  0.38234258205E+02 -0.43899095361E+01 -0.12763044932E+02  0.40546579664E+02  0.51100000000E-03 0. -1.
        -11    1    3    3    0    0 -0.14858271006E+01  0.98210789507E+01  0.37520536000E-01  0.99329090392E+01  0.51100000000E-03 0.  1.
        -12    1    3    3    0    0 -0.37131546506E+02 -0.62868699272E+01  0.12008567550E+02  0.39528245269E+02  0.00000000000E+00 0.  1.
</event>
<event>
 7    1  0.3795708E-015  0.9000791E+02  0.7816164E-02  0.1186339E+00
        -11   -1    0    0    0    0  0.00000000000E+00  0.00000000000E+00  0.45593999997E+02  0.45594000000E+02  0.51100000000E-03 0. -1.
         11   -1    0    0    0    0 -0.00000000000E+00 -0.00000000000E+00 -0.45593999997E+02  0.45594000000E+02  0.51100000000E-03 0.  1.
    9900012    2    1    2    0    0 -0.71803797573E+00  0.83452712040E+00 -0.42496417153E+00  0.90007911615E+02  0.90000175248E+02 0.  0.
         12    1    1    2    0    0  0.71803797573E+00 -0.83452712040E+00  0.42496417153E+00  0.11800883850E+01  0.00000000000E+00 0. -1.
         11    1    3    3    0    0 -0.18745368687E+00 -0.79038226046E+01 -0.29929243191E+01  0.84535878117E+01  0.51100000000E-03 0. -1.
        -11    1    3    3    0    0  0.35736227718E+02 -0.31852680254E+00  0.19281566300E+02  0.40607366698E+02  0.51100000000E-03 0.  1.
         12    1    3    3    0    0 -0.36266812007E+02  0.90568765275E+01 -0.16713606152E+02  0.40946957106E+02  0.00000000000E+00 0. -1.
</event>
<event>
 7    1  0.3795708E-015  0.9000783E+02  0.7816164E-02  0.1186339E+00
        -11   -1    0    0    0    0  0.00000000000E+00  0.00000000000E+00  0.45593999997E+02  0.45594000000E+02  0.51100000000E-03 0. -1.
         11   -1    0    0    0    0 -0.00000000000E+00 -0.00000000000E+00 -0.45593999997E+02  0.45594000000E+02  0.51100000000E-03 0.  1.
    9900012    2    1    2    0    0 -0.10445285685E+01 -0.52362328960E+00  0.16603921189E+00  0.90007834630E+02  0.90000097247E+02 0.  0.
         12    1    1    2    0    0  0.10445285685E+01  0.52362328960E+00 -0.16603921189E+00  0.11801653696E+01  0.00000000000E+00 0. -1.
         11    1    3    3    0    0 -0.22457906309E+01  0.42018688310E+01  0.67406758438E+01  0.82544526362E+01  0.51100000000E-03 0. -1.
        -11    1    3    3    0    0 -0.10872542316E+02 -0.39071187227E+02 -0.16862383282E+02  0.43921632687E+02  0.51100000000E-03 0.  1.
         12    1    3    3    0    0  0.12073804378E+02  0.34345695106E+02  0.10287746650E+02  0.37831749307E+02  0.00000000000E+00 0. -1.
</event>
<event>
 7    1  0.3795708E-015  0.9000771E+02  0.7816164E-02  0.1186339E+00
        -11   -1    0    0    0    0  0.00000000000E+00  0.00000000000E+00  0.45593999997E+02  0.45594000000E+02  0.51100000000E-03 0.  1.
         11   -1    0    0    0    0 -0.00000000000E+00 -0.00000000000E+00 -0.45593999997E+02  0.45594000000E+02  0.51100000000E-03 0. -1.
    9900012    2    1    2    0    0  0.95860268655E+00 -0.67822607583E+00  0.11903880381E+00  0.90007711918E+02  0.89999972915E+02 0.  0.
         12    1    1    2    0    0 -0.95860268655E+00  0.67822607583E+00 -0.11903880381E+00  0.11802880824E+01  0.00000000000E+00 0. -1.
         11    1    3    3    0    0 -0.39379647424E+02  0.16913144690E+02 -0.53569750576E+01  0.43191530149E+02  0.51100000000E-03 0. -1.
        -11    1    3    3    0    0  0.90367837220E+01  0.16026708439E+01  0.41554079822E+01  0.10074692533E+02  0.51100000000E-03 0.  1.
        -12    1    3    3    0    0  0.31301466388E+02 -0.19194041610E+02  0.13206058792E+01  0.36741489236E+02  0.00000000000E+00 0.  1.
</event>
<event>
 7    1  0.3795708E-015  0.9000773E+02  0.7816164E-02  0.1186339E+00
        -11   -1    0    0    0    0  0.00000000000E+00  0.00000000000E+00  0.45593999997E+02  0.45594000000E+02  0.51100000000E-03 0.  1.
         11   -1    0    0    0    0 -0.00000000000E+00 -0.00000000000E+00 -0.45593999997E+02  0.45594000000E+02  0.51100000000E-03 0. -1.
    9900012    2    1    2    0    0 -0.19671468684E+00 -0.72828341922E+00  0.90771922037E+00  0.90007725629E+02  0.89999986808E+02 0.  0.
         12    1    1    2    0    0  0.19671468684E+00  0.72828341922E+00 -0.90771922037E+00  0.11802743705E+01  0.00000000000E+00 0. -1.
         11    1    3    3    0    0 -0.27119012797E+02  0.19792719108E+02 -0.57342912860E+01  0.34059869078E+02  0.51100000000E-03 0. -1.
        -11    1    3    3    0    0 -0.10965318224E+02  0.94373548835E+00 -0.28736658182E+01  0.11374831688E+02  0.51100000000E-03 0.  1.
        -12    1    3    3    0    0  0.37887616335E+02 -0.21464738015E+02  0.95156763246E+01  0.44573024864E+02  0.00000000000E+00 0.  1.
</event>
<event>
 7    1  0.3795708E-015  0.9000775E+02  0.7816164E-02  0.1186339E+00
        -11   -1    0    0    0    0  0.00000000000E+00  0.00000000000E+00  0.45593999997E+02  0.45594000000E+02  0.51100000000E-03 0.  1.
         11   -1    0    0    0    0 -0.00000000000E+00 -0.00000000000E+00 -0.45593999997E+02  0.45594000000E+02  0.51100000000E-03 0. -1.
    9900012    2    1    2    0    0 -0.29456412452E+00 -0.48618157970E+00  0.10343363070E+01  0.90007749117E+02  0.90000010605E+02 0.  0.
         12    1    1    2    0    0  0.29456412452E+00  0.48618157970E+00 -0.10343363070E+01  0.11802508834E+01  0.00000000000E+00 0. -1.
         11    1    3    3    0    0 -0.19369391895E+01 -0.93263527877E+01 -0.89238894658E+00  0.95670762533E+01  0.51100000000E-03 0. -1.
        -11    1    3    3    0    0  0.76200584329E+01 -0.31116320150E+02 -0.16500538141E+02  0.36035516222E+02  0.51100000000E-03 0.  1.
         12    1    3    3    0    0 -0.59776833680E+01  0.39956491358E+02  0.18427263395E+02  0.44405156641E+02  0.00000000000E+00 0. -1.
</event>
<event>
 7    1  0.3795708E-015  0.9000778E+02  0.7816164E-02  0.1186339E+00
        -11   -1    0    0    0    0  0.00000000000E+00  0.00000000000E+00  0.45593999997E+02  0.45594000000E+02  0.51100000000E-03 0. -1.
         11   -1    0    0    0    0 -0.00000000000E+00 -0.00000000000E+00 -0.45593999997E+02  0.45594000000E+02  0.51100000000E-03 0.  1.
    9900012    2    1    2    0    0  0.29701022203E-01 -0.11363918210E+01 -0.31727141694E+00  0.90007775583E+02  0.90000037421E+02 0.  0.
         12    1    1    2    0    0 -0.29701022203E-01  0.11363918210E+01  0.31727141694E+00  0.11802244166E+01  0.00000000000E+00 0. -1.
         11    1    3    3    0    0 -0.10232133022E+02  0.12044296333E+02 -0.64938400361E+01  0.17086005356E+02  0.51100000000E-03 0. -1.
        -11    1    3    3    0    0 -0.30133361745E+01 -0.35873917892E+01 -0.31496120963E+02  0.31842663374E+02  0.51100000000E-03 0.  1.
         12    1    3    3    0    0  0.13275170219E+02 -0.95932963652E+01  0.37672689583E+02  0.41079106853E+02  0.00000000000E+00 0. -1.
</event>
<event>
 7    1  0.3795708E-015  0.9000775E+02  0.7816164E-02  0.1186339E+00
        -11   -1    0    0    0    0  0.00000000000E+00  0.00000000000E+00  0.45593999997E+02  0.45594000000E+02  0.51100000000E-03 0.  1.
         11   -1    0    0    0    0 -0.00000000000E+00 -0.00000000000E+00 -0.45593999997E+02  0.45594000000E+02  0.51100000000E-03 0. -1.
    9900012    2    1    2    0    0 -0.36684653413E+00 -0.63937466254E+00  0.92174976784E+00  0.90007746225E+02  0.90000007675E+02 0.  0.
         12    1    1    2    0    0  0.36684653413E+00  0.63937466254E+00 -0.92174976784E+00  0.11802537749E+01  0.00000000000E+00 0. -1.
         11    1    3    3    0    0 -0.78247103914E+01  0.37007996027E+02  0.63172566945E+01  0.38350040353E+02  0.51100000000E-03 0. -1.
        -11    1    3    3    0    0  0.24777811639E+01  0.13056179252E+00  0.10190766579E+02  0.10488477945E+02  0.51100000000E-03 0.  1.
        -12    1    3    3    0    0  0.49800826934E+01 -0.37777932483E+02 -0.15586273506E+02  0.41169227927E+02  0.00000000000E+00 0.  1.
</event>
<event>
 7    1  0.3795708E-015  0.9000763E+02  0.7816164E-02  0.1186339E+00
        -11   -1    0    0    0    0  0.00000000000E+00  0.00000000000E+00  0.45593999997E+02  0.45594000000E+02  0.51100000000E-03 0.  1.
         11   -1    0    0    0    0 -0.00000000000E+00 -0.00000000000E+00 -0.45593999997E+02  0.45594000000E+02  0.51100000000E-03 0. -1.
    9900012    2    1    2    0    0  0.27985828648E+00  0.13553568447E+00  0.11386757668E+01  0.90007630107E+02  0.89999890024E+02 0.  0.
         12    1    1    2    0    0 -0.27985828648E+00 -0.13553568447E+00 -0.11386757668E+01  0.11803698930E+01  0.00000000000E+00 0. -1.
         11    1    3    3    0    0 -0.29420159861E+02 -0.12479196550E+02 -0.19889080178E+02  0.37641090093E+02  0.51100000000E-03 0. -1.
        -11    1    3    3    0    0 -0.49550444279E+01  0.34396423384E+01 -0.51868120365E+01  0.79552890621E+01  0.51100000000E-03 0.  1.
        -12    1    3    3    0    0  0.34655062575E+02  0.91750898961E+01  0.26214567981E+02  0.44411250952E+02  0.00000000000E+00 0.  1.
</event>
<event>
 7    1  0.3795708E-015  0.9000764E+02  0.7816164E-02  0.1186339E+00
        -11   -1    0    0    0    0  0.00000000000E+00  0.00000000000E+00  0.45593999997E+02  0.45594000000E+02  0.51100000000E-03 0.  1.
         11   -1    0    0    0    0 -0.00000000000E+00 -0.00000000000E+00 -0.45593999997E+02  0.45594000000E+02  0.51100000000E-03 0. -1.
    9900012    2    1    2    0    0 -0.78388898239E+00 -0.88234644177E+00 -0.15083810335E-01  0.90007642130E+02  0.89999902206E+02 0.  0.
         12    1    1    2    0    0  0.78388898239E+00  0.88234644177E+00  0.15083810335E-01  0.11803578700E+01  0.00000000000E+00 0. -1.
         11    1    3    3    0    0  0.36770930805E+02 -0.23452893000E+00 -0.22430079848E+01  0.36840024988E+02  0.51100000000E-03 0. -1.
        -11    1    3    3    0    0  0.68893892710E+01  0.32946446864E+01 -0.30798271287E+01  0.82343004281E+01  0.51100000000E-03 0.  1.
        -12    1    3    3    0    0 -0.44444209058E+02 -0.39424621982E+01  0.53077513031E+01  0.44933316714E+02  0.00000000000E+00 0.  1.
</event>
<event>
 7    1  0.3795708E-015  0.9000657E+02  0.7816164E-02  0.1186341E+00
        -11   -1    0    0    0    0  0.00000000000E+00  0.00000000000E+00  0.45593999997E+02  0.45594000000E+02  0.51100000000E-03 0.  1.
         11   -1    0    0    0    0 -0.00000000000E+00 -0.00000000000E+00 -0.45593999997E+02  0.45594000000E+02  0.51100000000E-03 0. -1.
    9900012    2    1    2    0    0 -0.58641334797E-01 -0.30961064247E+00  0.11386312843E+01  0.90006569191E+02  0.89998815096E+02 0.  0.
         12    1    1    2    0    0  0.58641334797E-01  0.30961064247E+00 -0.11386312843E+01  0.11814308095E+01  0.00000000000E+00 0. -1.
         11    1    3    3    0    0 -0.15225541712E+01  0.11431774922E+02 -0.39759281239E+02  0.41398117034E+02  0.51100000000E-03 0. -1.
        -11    1    3    3    0    0 -0.81978057259E+01  0.22253972193E+01  0.84319966162E+01  0.11968917190E+02  0.51100000000E-03 0.  1.
        -12    1    3    3    0    0  0.96617185624E+01 -0.13966782784E+02  0.32465915907E+02  0.36639534967E+02  0.00000000000E+00 0.  1.
</event>
<event>
 7    1  0.3795708E-015  0.9000780E+02  0.7816164E-02  0.1186339E+00
        -11   -1    0    0    0    0  0.00000000000E+00  0.00000000000E+00  0.45593999997E+02  0.45594000000E+02  0.51100000000E-03 0.  1.
         11   -1    0    0    0    0 -0.00000000000E+00 -0.00000000000E+00 -0.45593999997E+02  0.45594000000E+02  0.51100000000E-03 0. -1.
    9900012    2    1    2    0    0  0.93768301726E+00 -0.18208553992E-01  0.71644514613E+00  0.90007798899E+02  0.90000061044E+02 0.  0.
         12    1    1    2    0    0 -0.93768301726E+00  0.18208553992E-01 -0.71644514613E+00  0.11802011014E+01  0.00000000000E+00 0. -1.
         11    1    3    3    0    0 -0.18244883860E+00 -0.32462875515E+02  0.24442441871E+02  0.40636246617E+02  0.51100000000E-03 0. -1.
        -11    1    3    3    0    0  0.52738349546E+01 -0.39702948816E+01 -0.44446891347E+01  0.79581303294E+01  0.51100000000E-03 0.  1.
        -12    1    3    3    0    0 -0.41537030987E+01  0.36414961842E+02 -0.19281307590E+02  0.41413421952E+02  0.00000000000E+00 0.  1.
</event>
<event>
 7    1  0.3795708E-015  0.9000769E+02  0.7816164E-02  0.1186339E+00
        -11   -1    0    0    0    0  0.00000000000E+00  0.00000000000E+00  0.45593999997E+02  0.45594000000E+02  0.51100000000E-03 0.  1.
         11   -1    0    0    0    0 -0.00000000000E+00 -0.00000000000E+00 -0.45593999997E+02  0.45594000000E+02  0.51100000000E-03 0. -1.
    9900012    2    1    2    0    0 -0.98162500230E+00  0.62541795123E+00  0.19595897313E+00  0.90007688525E+02  0.89999949214E+02 0.  0.
         12    1    1    2    0    0  0.98162500230E+00 -0.62541795123E+00 -0.19595897313E+00  0.11803114750E+01  0.00000000000E+00 0. -1.
         11    1    3    3    0    0 -0.71319873800E+01 -0.55519738484E+01 -0.46184753085E+01  0.10149875469E+02  0.51100000000E-03 0. -1.
        -11    1    3    3    0    0 -0.64151065595E+01 -0.11081769187E+02  0.38167062992E+02  0.40257718492E+02  0.51100000000E-03 0.  1.
         12    1    3    3    0    0  0.12565468937E+02  0.17259160987E+02 -0.33352628710E+02  0.39600094564E+02  0.00000000000E+00 0. -1.
</event>
<event>
 7    1  0.3795708E-015  0.9000898E+02  0.7816164E-02  0.1186337E+00
        -11   -1    0    0    0    0  0.00000000000E+00  0.00000000000E+00  0.45593999997E+02  0.45594000000E+02  0.51100000000E-03 0.  1.
         11   -1    0    0    0    0 -0.00000000000E+00 -0.00000000000E+00 -0.45593999997E+02  0.45594000000E+02  0.51100000000E-03 0. -1.
    9900012    2    1    2    0    0 -0.11594502384E+01  0.21589526397E-02 -0.21391210455E+00  0.90008980108E+02  0.90001257837E+02 0.  0.
         12    1    1    2    0    0  0.11594502384E+01 -0.21589526397E-02  0.21391210455E+00  0.11790198917E+01  0.00000000000E+00 0. -1.
         11    1    3    3    0    0 -0.28982576607E+02 -0.21333226729E+02  0.81507029954E+01  0.36898919619E+02  0.51100000000E-03 0. -1.
        -11    1    3    3    0    0 -0.32267904869E+01 -0.21024624954E+01  0.95375581545E+01  0.10285793173E+02  0.51100000000E-03 0.  1.
        -12    1    3    3    0    0  0.31049916856E+02  0.23437848177E+02 -0.17902173254E+02  0.42824267316E+02  0.00000000000E+00 0.  1.
</event>
<event>
 7    1  0.3795708E-015  0.9000746E+02  0.7816164E-02  0.1186340E+00
        -11   -1    0    0    0    0  0.00000000000E+00  0.00000000000E+00  0.45593999997E+02  0.45594000000E+02  0.51100000000E-03 0. -1.
         11   -1    0    0    0    0 -0.00000000000E+00 -0.00000000000E+00 -0.45593999997E+02  0.45594000000E+02  0.51100000000E-03 0.  1.
    9900012    2    1    2    0    0 -0.40736235850E+00  0.88741152349E+00 -0.66350596618E+00  0.90007456282E+02  0.89999713904E+02 0.  0.
         12    1    1    2    0    0  0.40736235850E+00 -0.88741152349E+00  0.66350596618E+00  0.11805437181E+01  0.00000000000E+00 0. -1.
         11    1    3    3    0    0 -0.13399675761E+01  0.74992912969E+01  0.50024624790E+01  0.91136992586E+01  0.51100000000E-03 0. -1.
        -11    1    3    3    0    0  0.29425683466E+02  0.24402078519E+02  0.10730444322E+01  0.38242433344E+02  0.51100000000E-03 0.  1.
         12    1    3    3    0    0 -0.28493078248E+02 -0.31013958292E+02 -0.67390128774E+01  0.42651323679E+02  0.00000000000E+00 0. -1.
</event>
<event>
 7    1  0.3795708E-015  0.9000790E+02  0.7816164E-02  0.1186339E+00
        -11   -1    0    0    0    0  0.00000000000E+00  0.00000000000E+00  0.45593999997E+02  0.45594000000E+02  0.51100000000E-03 0.  1.
         11   -1    0    0    0    0 -0.00000000000E+00 -0.00000000000E+00 -0.45593999997E+02  0.45594000000E+02  0.51100000000E-03 0. -1.
    9900012    2    1    2    0    0  0.14788376796E+00  0.98845136186E+00  0.62747475066E+00  0.90007902434E+02  0.90000165946E+02 0.  0.
         12    1    1    2    0    0 -0.14788376796E+00 -0.98845136186E+00 -0.62747475066E+00  0.11800975664E+01  0.00000000000E+00 0. -1.
         11    1    3    3    0    0 -0.29895904145E+01  0.15721839438E+02  0.67021669888E+01  0.17350300538E+02  0.51100000000E-03 0. -1.
        -11    1    3    3    0    0 -0.28749399145E+02 -0.18114353093E+02  0.11770115138E+02  0.35960997620E+02  0.51100000000E-03 0.  1.
         12    1    3    3    0    0  0.31886873328E+02  0.33809650174E+01 -0.17844807376E+02  0.36696604276E+02  0.00000000000E+00 0. -1.
</event>
<event>
 7    1  0.3795708E-015  0.9000773E+02  0.7816164E-02  0.1186339E+00
        -11   -1    0    0    0    0  0.00000000000E+00  0.00000000000E+00  0.45593999997E+02  0.45594000000E+02  0.51100000000E-03 0. -1.
         11   -1    0    0    0    0 -0.00000000000E+00 -0.00000000000E+00 -0.45593999997E+02  0.45594000000E+02  0.51100000000E-03 0.  1.
    9900012    2    1    2    0    0 -0.79253804233E+00  0.86127990572E+00 -0.15207444019E+00  0.90007726193E+02  0.89999987379E+02 0.  0.
         12    1    1    2    0    0  0.79253804233E+00 -0.86127990572E+00  0.15207444019E+00  0.11802738072E+01  0.00000000000E+00 0. -1.
         11    1    3    3    0    0 -0.86719170136E+01 -0.31452423191E+02  0.10775272031E+02  0.34359329983E+02  0.51100000000E-03 0. -1.
        -11    1    3    3    0    0  0.26377594914E+01 -0.93445303855E+01  0.47765856298E+01  0.10820988578E+02  0.51100000000E-03 0.  1.
        -12    1    3    3    0    0  0.52416194799E+01  0.41658233482E+02 -0.15703932101E+02  0.44827407632E+02  0.00000000000E+00 0.  1.
</event>
<event>
 7    1  0.3795708E-015  0.9000777E+02  0.7816164E-02  0.1186339E+00
        -11   -1    0    0    0    0  0.00000000000E+00  0.00000000000E+00  0.45593999997E+02  0.45594000000E+02  0.51100000000E-03 0.  1.
         11   -1    0    0    0    0 -0.00000000000E+00 -0.00000000000E+00 -0.45593999997E+02  0.45594000000E+02  0.51100000000E-03 0. -1.
    9900012    2    1    2    0    0  0.14429954098E+00 -0.11711496804E+01  0.22763506863E-01  0.90007774552E+02  0.90000036376E+02 0.  0.
         12    1    1    2    0    0 -0.14429954098E+00  0.11711496804E+01 -0.22763506863E-01  0.11802254482E+01  0.00000000000E+00 0. -1.
         11    1    3    3    0    0 -0.38040214400E+01 -0.80730656271E+01 -0.55979414903E+00  0.89419426014E+01  0.51100000000E-03 0. -1.
        -11    1    3    3    0    0  0.26296798108E+02 -0.17273931641E+02  0.24909902633E+02  0.40129958317E+02  0.51100000000E-03 0.  1.
         12    1    3    3    0    0 -0.22348477127E+02  0.24175847587E+02 -0.24327344977E+02  0.40935873633E+02  0.00000000000E+00 0. -1.
</event>
<event>
 7    1  0.3795708E-015  0.9000770E+02  0.7816164E-02  0.1186339E+00
        -11   -1    0    0    0    0  0.00000000000E+00  0.00000000000E+00  0.45593999997E+02  0.45594000000E+02  0.51100000000E-03 0. -1.
         11   -1    0    0    0    0 -0.00000000000E+00 -0.00000000000E+00 -0.45593999997E+02  0.45594000000E+02  0.51100000000E-03 0.  1.
    9900012    2    1    2    0    0 -0.57622399104E+00  0.10296861251E+01  0.28530295867E-01  0.90007702757E+02  0.89999963633E+02 0.  0.
         12    1    1    2    0    0  0.57622399104E+00 -0.10296861251E+01 -0.28530295867E-01  0.11802972430E+01  0.00000000000E+00 0. -1.
         11    1    3    3    0    0  0.81942763279E+01  0.41192134317E-01 -0.14401133438E+01  0.83199632231E+01  0.51100000000E-03 0. -1.
        -11    1    3    3    0    0  0.27564624548E+01  0.40449198864E+02  0.16705539747E+01  0.40577413974E+02  0.51100000000E-03 0.  1.
         12    1    3    3    0    0 -0.11526962774E+02 -0.39460704873E+02 -0.20191033495E+00  0.41110325560E+02  0.00000000000E+00 0. -1.
</event>
<event>
 7    1  0.3795708E-015  0.9000773E+02  0.7816164E-02  0.1186339E+00
        -11   -1    0    0    0    0  0.00000000000E+00  0.00000000000E+00  0.45593999997E+02  0.45594000000E+02  0.51100000000E-03 0.  1.
         11   -1    0    0    0    0 -0.00000000000E+00 -0.00000000000E+00 -0.45593999997E+02  0.45594000000E+02  0.51100000000E-03 0. -1.
    9900012    2    1    2    0    0  0.81308826706E+00 -0.85389638111E+00  0.52862555362E-01  0.90007726299E+02  0.89999987486E+02 0.  0.
         12    1    1    2    0    0 -0.81308826706E+00  0.85389638111E+00 -0.52862555362E-01  0.11802737011E+01  0.00000000000E+00 0. -1.
         11    1    3    3    0    0 -0.20182814640E+02  0.23076764139E+02 -0.62498192229E-01  0.30657575837E+02  0.51100000000E-03 0. -1.
        -11    1    3    3    0    0  0.42483526643E+01 -0.29361382376E+01  0.23303341793E+02  0.23868706439E+02  0.51100000000E-03 0.  1.
         12    1    3    3    0    0  0.16747550243E+02 -0.20994522282E+02 -0.23187981045E+02  0.35481444023E+02  0.00000000000E+00 0. -1.
</event>
<event>
 7    1  0.3795708E-015  0.9000767E+02  0.7816164E-02  0.1186339E+00
        -11   -1    0    0    0    0  0.00000000000E+00  0.00000000000E+00  0.45593999997E+02  0.45594000000E+02  0.51100000000E-03 0. -1.
         11   -1    0    0    0    0 -0.00000000000E+00 -0.00000000000E+00 -0.45593999997E+02  0.45594000000E+02  0.51100000000E-03 0.  1.
    9900012    2    1    2    0    0  0.98667869431E+00 -0.43215228636E+00  0.48257374366E+00  0.90007674679E+02  0.89999935185E+02 0.  0.
         12    1    1    2    0    0 -0.98667869431E+00  0.43215228636E+00 -0.48257374366E+00  0.11803253206E+01  0.00000000000E+00 0. -1.
         11    1    3    3    0    0 -0.29395307396E+02 -0.11077523469E+02  0.29516014573E+02  0.43104416707E+02  0.51100000000E-03 0. -1.
        -11    1    3    3    0    0  0.30060668673E+01 -0.14595925954E+01 -0.12014336277E+02  0.12470409977E+02  0.51100000000E-03 0.  1.
        -12    1    3    3    0    0  0.27375919223E+02  0.12104963778E+02 -0.17019104552E+02  0.34432847996E+02  0.00000000000E+00 0.  1.
</event>
<event>
 7    1  0.3795708E-015  0.9000772E+02  0.7816164E-02  0.1186339E+00
        -11   -1    0    0    0    0  0.00000000000E+00  0.00000000000E+00  0.45593999997E+02  0.45594000000E+02  0.51100000000E-03 0.  1.
         11   -1    0    0    0    0 -0.00000000000E+00 -0.00000000000E+00 -0.45593999997E+02  0.45594000000E+02  0.51100000000E-03 0. -1.
    9900012    2    1    2    0    0  0.44106698117E-02  0.30505307782E+00  0.11401666408E+01  0.90007721726E+02  0.89999982853E+02 0.  0.
         12    1    1    2    0    0 -0.44106698117E-02 -0.30505307782E+00 -0.11401666408E+01  0.11802782736E+01  0.00000000000E+00 0. -1.
         11    1    3    3    0    0  0.33278316823E+02 -0.62825047623E+01 -0.17781451541E+02  0.38250441250E+02  0.51100000000E-03 0. -1.
        -11    1    3    3    0    0  0.29514807118E+01 -0.84414845079E+01  0.39787786663E+01  0.97877770217E+01  0.51100000000E-03 0.  1.
        -12    1    3    3    0    0 -0.36225386865E+02  0.15029042348E+02  0.14942839515E+02  0.41969503455E+02  0.00000000000E+00 0.  1.
</event>
<event>
 7    1  0.3795708E-015  0.9000772E+02  0.7816164E-02  0.1186339E+00
        -11   -1    0    0    0    0  0.00000000000E+00  0.00000000000E+00  0.45593999997E+02  0.45594000000E+02  0.51100000000E-03 0. -1.
         11   -1    0    0    0    0 -0.00000000000E+00 -0.00000000000E+00 -0.45593999997E+02  0.45594000000E+02  0.51100000000E-03 0.  1.
    9900012    2    1    2    0    0  0.10445849112E+01 -0.12255610375E+00  0.53560534993E+00  0.90007724301E+02  0.89999985462E+02 0.  0.
         12    1    1    2    0    0 -0.10445849112E+01  0.12255610375E+00 -0.53560534993E+00  0.11802756992E+01  0.00000000000E+00 0. -1.
         11    1    3    3    0    0  0.29299473239E+01 -0.49296722362E+01  0.40868320044E+02  0.41268702950E+02  0.51100000000E-03 0. -1.
        -11    1    3    3    0    0 -0.62677467246E+01  0.76736854203E+01 -0.20730295004E+01  0.10122625574E+02  0.51100000000E-03 0.  1.
        -12    1    3    3    0    0  0.43823843119E+01 -0.28665692878E+01 -0.38259685194E+02  0.38616395778E+02  0.00000000000E+00 0.  1.
</event>
<event>
 7    1  0.3795708E-015  0.9000774E+02  0.7816164E-02  0.1186339E+00
        -11   -1    0    0    0    0  0.00000000000E+00  0.00000000000E+00  0.45593999997E+02  0.45594000000E+02  0.51100000000E-03 0.  1.
         11   -1    0    0    0    0 -0.00000000000E+00 -0.00000000000E+00 -0.45593999997E+02  0.45594000000E+02  0.51100000000E-03 0. -1.
    9900012    2    1    2    0    0  0.52524958177E+00  0.10502861345E+01  0.11838154283E+00  0.90007744825E+02  0.90000006257E+02 0.  0.
         12    1    1    2    0    0 -0.52524958177E+00 -0.10502861345E+01 -0.11838154283E+00  0.11802551746E+01  0.00000000000E+00 0. -1.
         11    1    3    3    0    0  0.59634367720E+01 -0.44480450449E+01 -0.37179282181E+01  0.83168908464E+01  0.51100000000E-03 0. -1.
        -11    1    3    3    0    0  0.35671457128E+02 -0.99142579194E+01 -0.34596867292E+01  0.37184873218E+02  0.51100000000E-03 0.  1.
         12    1    3    3    0    0 -0.41109644318E+02  0.15412589099E+02  0.72959964901E+01  0.44505980761E+02  0.00000000000E+00 0. -1.
</event>
<event>
 7    1  0.3795708E-015  0.9000780E+02  0.7816164E-02  0.1186339E+00
        -11   -1    0    0    0    0  0.00000000000E+00  0.00000000000E+00  0.45593999997E+02  0.45594000000E+02  0.51100000000E-03 0.  1.
         11   -1    0    0    0    0 -0.00000000000E+00 -0.00000000000E+00 -0.45593999997E+02  0.45594000000E+02  0.51100000000E-03 0. -1.
    9900012    2    1    2    0    0 -0.96226517723E+00 -0.20182065759E+00  0.65282738905E+00  0.90007801098E+02  0.90000063272E+02 0.  0.
         12    1    1    2    0    0  0.96226517723E+00  0.20182065759E+00 -0.65282738905E+00  0.11801989023E+01  0.00000000000E+00 0. -1.
         11    1    3    3    0    0  0.19003152576E+02  0.90482291863E+01 -0.18136562162E+02  0.27783540929E+02  0.51100000000E-03 0. -1.
        -11    1    3    3    0    0  0.74333696753E+01  0.12471656429E+02 -0.94129819515E+01  0.17303220171E+02  0.51100000000E-03 0.  1.
        -12    1    3    3    0    0 -0.27398787429E+02 -0.21721706273E+02  0.28202371503E+02  0.44921039997E+02  0.00000000000E+00 0.  1.
</event>
<event>
 7    1  0.3795708E-015  0.9000773E+02  0.7816164E-02  0.1186339E+00
        -11   -1    0    0    0    0  0.00000000000E+00  0.00000000000E+00  0.45593999997E+02  0.45594000000E+02  0.51100000000E-03 0.  1.
         11   -1    0    0    0    0 -0.00000000000E+00 -0.00000000000E+00 -0.45593999997E+02  0.45594000000E+02  0.51100000000E-03 0. -1.
    9900012    2    1    2    0    0 -0.71812784072E-02  0.90737661929E-01  0.11767555627E+01  0.90007729460E+02  0.89999990689E+02 0.  0.
         12    1    1    2    0    0  0.71812784072E-02 -0.90737661929E-01 -0.11767555627E+01  0.11802705403E+01  0.00000000000E+00 0. -1.
         11    1    3    3    0    0 -0.10187515684E+02 -0.97213829799E+00 -0.33630783837E+02  0.35153380356E+02  0.51100000000E-03 0. -1.
        -11    1    3    3    0    0 -0.80845368216E-01 -0.32890102547E+01 -0.90359623535E+01  0.96162747644E+01  0.51100000000E-03 0.  1.
        -12    1    3    3    0    0  0.10261179774E+02  0.43518862146E+01  0.43843501753E+02  0.45238074340E+02  0.00000000000E+00 0.  1.
</event>
<event>
 7    1  0.3795708E-015  0.9000772E+02  0.7816164E-02  0.1186339E+00
        -11   -1    0    0    0    0  0.00000000000E+00  0.00000000000E+00  0.45593999997E+02  0.45594000000E+02  0.51100000000E-03 0.  1.
         11   -1    0    0    0    0 -0.00000000000E+00 -0.00000000000E+00 -0.45593999997E+02  0.45594000000E+02  0.51100000000E-03 0. -1.
    9900012    2    1    2    0    0 -0.72841815658E+00  0.25486550100E+00  0.89303260288E+00  0.90007721785E+02  0.89999982913E+02 0.  0.
         12    1    1    2    0    0  0.72841815658E+00 -0.25486550100E+00 -0.89303260288E+00  0.11802782148E+01  0.00000000000E+00 0. -1.
         11    1    3    3    0    0  0.26285115592E+02 -0.33117157648E+02 -0.59604905182E+01  0.42698722227E+02  0.51100000000E-03 0. -1.
        -11    1    3    3    0    0 -0.21924796852E+01  0.81251183865E+01 -0.52189724268E+01  0.99026354783E+01  0.51100000000E-03 0.  1.
        -12    1    3    3    0    0 -0.24821054063E+02  0.25246904762E+02  0.12072495548E+02  0.37406364080E+02  0.00000000000E+00 0.  1.
</event>
<event>
 7    1  0.3795708E-015  0.9000775E+02  0.7816164E-02  0.1186339E+00
        -11   -1    0    0    0    0  0.00000000000E+00  0.00000000000E+00  0.45593999997E+02  0.45594000000E+02  0.51100000000E-03 0. -1.
         11   -1    0    0    0    0 -0.00000000000E+00 -0.00000000000E+00 -0.45593999997E+02  0.45594000000E+02  0.51100000000E-03 0.  1.
    9900012    2    1    2    0    0  0.94790905921E+00 -0.22862168749E+00 -0.66497303751E+00  0.90007750619E+02  0.90000012127E+02 0.  0.
         12    1    1    2    0    0 -0.94790905921E+00  0.22862168749E+00  0.66497303751E+00  0.11802493809E+01  0.00000000000E+00 0. -1.
         11    1    3    3    0    0  0.16789823606E+02  0.23350595115E+02  0.25055156240E+02  0.38143273633E+02  0.51100000000E-03 0. -1.
        -11    1    3    3    0    0  0.45422603078E+01 -0.52458870541E+01  0.65352090931E+01  0.95320731135E+01  0.51100000000E-03 0.  1.
        -12    1    3    3    0    0 -0.20384174855E+02 -0.18333329749E+02 -0.32255338371E+02  0.42332403872E+02  0.00000000000E+00 0.  1.
</event>
<event>
 7    1  0.3795708E-015  0.9000860E+02  0.7816164E-02  0.1186337E+00
        -11   -1    0    0    0    0  0.00000000000E+00  0.00000000000E+00  0.45593999997E+02  0.45594000000E+02  0.51100000000E-03 0. -1.
         11   -1    0    0    0    0 -0.00000000000E+00 -0.00000000000E+00 -0.45593999997E+02  0.45594000000E+02  0.51100000000E-03 0.  1.
    9900012    2    1    2    0    0  0.97855725694E+00 -0.21813135006E+00  0.62114958442E+00  0.90008600832E+02  0.90000873559E+02 0.  0.
         12    1    1    2    0    0 -0.97855725694E+00  0.21813135006E+00 -0.62114958442E+00  0.11793991679E+01  0.00000000000E+00 0. -1.
         11    1    3    3    0    0 -0.56150140319E+01 -0.13795027949E+01 -0.26847416925E+01  0.63748920583E+01  0.51100000000E-03 0. -1.
        -11    1    3    3    0    0 -0.33729922166E+02 -0.18625002855E+02 -0.72014417868E+00  0.38537215631E+02  0.51100000000E-03 0.  1.
         12    1    3    3    0    0  0.40323493454E+02  0.19786374300E+02  0.40260354556E+01  0.45096493143E+02  0.00000000000E+00 0. -1.
</event>
<event>
 7    1  0.3795708E-015  0.9000780E+02  0.7816164E-02  0.1186339E+00
        -11   -1    0    0    0    0  0.00000000000E+00  0.00000000000E+00  0.45593999997E+02  0.45594000000E+02  0.51100000000E-03 0.  1.
         11   -1    0    0    0    0 -0.00000000000E+00 -0.00000000000E+00 -0.45593999997E+02  0.45594000000E+02  0.51100000000E-03 0. -1.
    9900012    2    1    2    0    0  0.19845678265E-01  0.11777699149E+01 -0.73047237301E-01  0.90007800135E+02  0.90000062296E+02 0.  0.
         12    1    1    2    0    0 -0.19845678265E-01 -0.11777699149E+01  0.73047237301E-01  0.11801998654E+01  0.00000000000E+00 0. -1.
         11    1    3    3    0    0  0.82649558441E+01  0.49547123600E+01  0.68900664694E+01  0.11846167561E+02  0.51100000000E-03 0. -1.
        -11    1    3    3    0    0 -0.11231416801E+02  0.32604025048E+02  0.12639725498E+02  0.36727780134E+02  0.51100000000E-03 0.  1.
         12    1    3    3    0    0  0.29863066355E+01 -0.36380967493E+02 -0.19602839205E+02  0.41433852439E+02  0.00000000000E+00 0. -1.
</event>
<event>
 7    1  0.3795708E-015  0.9000771E+02  0.7816164E-02  0.1186339E+00
        -11   -1    0    0    0    0  0.00000000000E+00  0.00000000000E+00  0.45593999997E+02  0.45594000000E+02  0.51100000000E-03 0.  1.
         11   -1    0    0    0    0 -0.00000000000E+00 -0.00000000000E+00 -0.45593999997E+02  0.45594000000E+02  0.51100000000E-03 0. -1.
    9900012    2    1    2    0    0 -0.89398960246E+00  0.77061706697E+00  0.33769243179E-02  0.90007712121E+02  0.89999973121E+02 0.  0.
         12    1    1    2    0    0  0.89398960246E+00 -0.77061706697E+00 -0.33769243179E-02  0.11802878788E+01  0.00000000000E+00 0. -1.
         11    1    3    3    0    0  0.29832638206E+02 -0.19948973638E+02  0.73638483566E+01  0.36635694540E+02  0.51100000000E-03 0. -1.
        -11    1    3    3    0    0  0.85869098668E+01  0.29266737057E+01 -0.44948426645E+01  0.10124428422E+02  0.51100000000E-03 0.  1.
        -12    1    3    3    0    0 -0.39313537675E+02  0.17792916999E+02 -0.28656287678E+01  0.43247589159E+02  0.00000000000E+00 0.  1.
</event>
<event>
 7    1  0.3795708E-015  0.9000787E+02  0.7816164E-02  0.1186339E+00
        -11   -1    0    0    0    0  0.00000000000E+00  0.00000000000E+00  0.45593999997E+02  0.45594000000E+02  0.51100000000E-03 0.  1.
         11   -1    0    0    0    0 -0.00000000000E+00 -0.00000000000E+00 -0.45593999997E+02  0.45594000000E+02  0.51100000000E-03 0. -1.
    9900012    2    1    2    0    0 -0.74335230121E+00  0.36610265466E+00  0.84029271007E+00  0.90007874737E+02  0.90000137884E+02 0.  0.
         12    1    1    2    0    0  0.74335230121E+00 -0.36610265466E+00 -0.84029271007E+00  0.11801252629E+01  0.00000000000E+00 0. -1.
         11    1    3    3    0    0 -0.88470778893E+01  0.16976852612E+01 -0.15066052720E+01  0.91336072902E+01  0.51100000000E-03 0. -1.
        -11    1    3    3    0    0  0.75508631502E+01 -0.34174748719E+01  0.41167596981E+02  0.41993638926E+02  0.51100000000E-03 0.  1.
         12    1    3    3    0    0  0.55286243785E+00  0.20858922654E+01 -0.38820698999E+02  0.38880628521E+02  0.00000000000E+00 0. -1.
</event>
<event>
 7    1  0.3795708E-015  0.9000769E+02  0.7816164E-02  0.1186339E+00
        -11   -1    0    0    0    0  0.00000000000E+00  0.00000000000E+00  0.45593999997E+02  0.45594000000E+02  0.51100000000E-03 0.  1.
         11   -1    0    0    0    0 -0.00000000000E+00 -0.00000000000E+00 -0.45593999997E+02  0.45594000000E+02  0.51100000000E-03 0. -1.
    9900012    2    1    2    0    0 -0.31506300890E+00 -0.10761602521E+01  0.36842644549E+00  0.90007693415E+02  0.89999954168E+02 0.  0.
         12    1    1    2    0    0  0.31506300890E+00  0.10761602521E+01 -0.36842644549E+00  0.11803065846E+01  0.00000000000E+00 0. -1.
         11    1    3    3    0    0 -0.17605369320E+01 -0.59210464543E+01 -0.69790780225E+01  0.93201830297E+01  0.51100000000E-03 0. -1.
        -11    1    3    3    0    0 -0.37246531795E+02 -0.10463422925E+02  0.50134164582E+01  0.39011814811E+02  0.51100000000E-03 0.  1.
         12    1    3    3    0    0  0.38692005718E+02  0.15308309127E+02  0.23340880098E+01  0.41675695574E+02  0.00000000000E+00 0. -1.
</event>
<event>
 7    1  0.3795708E-015  0.9000758E+02  0.7816164E-02  0.1186339E+00
        -11   -1    0    0    0    0  0.00000000000E+00  0.00000000000E+00  0.45593999997E+02  0.45594000000E+02  0.51100000000E-03 0.  1.
         11   -1    0    0    0    0 -0.00000000000E+00 -0.00000000000E+00 -0.45593999997E+02  0.45594000000E+02  0.51100000000E-03 0. -1.
    9900012    2    1    2    0    0 -0.84522933097E+00  0.32017444165E+00  0.75925370589E+00  0.90007580378E+02  0.89999839638E+02 0.  0.
         12    1    1    2    0    0  0.84522933097E+00 -0.32017444165E+00 -0.75925370589E+00  0.11804196224E+01  0.00000000000E+00 0. -1.
         11    1    3    3    0    0 -0.36822988473E+02  0.69463169689E+01 -0.18531153650E+01  0.37518233385E+02  0.51100000000E-03 0. -1.
        -11    1    3    3    0    0 -0.47712601007E+01  0.46042001139E+01 -0.64614034136E+01  0.92581486255E+01  0.51100000000E-03 0.  1.
        -12    1    3    3    0    0  0.40749019243E+02 -0.11230342641E+02  0.90737724845E+01  0.43231198367E+02  0.00000000000E+00 0.  1.
</event>
<event>
 7    1  0.3795708E-015  0.9000775E+02  0.7816164E-02  0.1186339E+00
        -11   -1    0    0    0    0  0.00000000000E+00  0.00000000000E+00  0.45593999997E+02  0.45594000000E+02  0.51100000000E-03 0.  1.
         11   -1    0    0    0    0 -0.00000000000E+00 -0.00000000000E+00 -0.45593999997E+02  0.45594000000E+02  0.51100000000E-03 0. -1.
    9900012    2    1    2    0    0 -0.79257939335E+00  0.87381738854E+00  0.35502574453E-01  0.90007746063E+02  0.90000007511E+02 0.  0.
         12    1    1    2    0    0  0.79257939335E+00 -0.87381738854E+00 -0.35502574453E-01  0.11802539371E+01  0.00000000000E+00 0. -1.
         11    1    3    3    0    0 -0.91477640559E+01  0.61625213335E+01 -0.97526992542E+00  0.11072913262E+02  0.51100000000E-03 0. -1.
        -11    1    3    3    0    0 -0.33179356596E+02  0.96488165033E+01  0.34684599997E+01  0.34727504647E+02  0.51100000000E-03 0.  1.
         12    1    3    3    0    0  0.41534541258E+02 -0.14937520448E+02 -0.24576874998E+01  0.44207328154E+02  0.00000000000E+00 0. -1.
</event>
<event>
 8    1  0.3795708E-015  0.9000776E+02  0.7816164E-02  0.1186339E+00
        -11   -1    0    0    0    0  0.00000000000E+00  0.00000000000E+00  0.45593999997E+02  0.45594000000E+02  0.51100000000E-03 0. -1.
         11   -1    0    0    0    0 -0.00000000000E+00 -0.00000000000E+00 -0.45593999997E+02  0.45594000000E+02  0.51100000000E-03 0.  1.
    9900012    2    1    2    0    0  0.38290646381E+00  0.36537630989E+00 -0.10549159183E+01  0.90007760701E+02  0.90000022342E+02 0.  0.
         23    2    3    3    0    0 -0.20678669780E+02  0.77009959465E+01 -0.17898751545E+01  0.67693158433E+02  0.63970675493E+02 0.  0.
         12    1    1    2    0    0 -0.38290646381E+00 -0.36537630989E+00  0.10549159183E+01  0.11802392989E+01  0.00000000000E+00 0. -1.
         11    1    4    4    0    0 -0.17890607153E+02 -0.13037332596E+02  0.25199774256E+02  0.33542130051E+02  0.51100000000E-03 0. -1.
        -11    1    4    4    0    0 -0.27880626270E+01  0.20738328543E+02 -0.26989649411E+02  0.34151028382E+02  0.51100000000E-03 0.  1.
        -12    1    3    3    0    0  0.21061576244E+02 -0.73356196366E+01  0.73495923618E+00  0.22314602269E+02  0.00000000000E+00 0.  1.
</event>
<event>
 7    1  0.3795708E-015  0.9000774E+02  0.7816164E-02  0.1186339E+00
        -11   -1    0    0    0    0  0.00000000000E+00  0.00000000000E+00  0.45593999997E+02  0.45594000000E+02  0.51100000000E-03 0.  1.
         11   -1    0    0    0    0 -0.00000000000E+00 -0.00000000000E+00 -0.45593999997E+02  0.45594000000E+02  0.51100000000E-03 0. -1.
    9900012    2    1    2    0    0 -0.84491157588E+00 -0.82854687979E-01 -0.81992633753E+00  0.90007737457E+02  0.89999998792E+02 0.  0.
         12    1    1    2    0    0  0.84491157588E+00  0.82854687979E-01  0.81992633753E+00  0.11802625425E+01  0.00000000000E+00 0. -1.
         11    1    3    3    0    0 -0.15819659391E+02  0.18286544512E+02 -0.36562041363E+02  0.43834258318E+02  0.51100000000E-03 0. -1.
        -11    1    3    3    0    0 -0.34061603805E+01 -0.24141256614E+01  0.95243458617E+01  0.10399187257E+02  0.51100000000E-03 0.  1.
        -12    1    3    3    0    0  0.18380908196E+02 -0.15955273538E+02  0.26217769164E+02  0.35774291883E+02  0.00000000000E+00 0.  1.
</event>
<event>
 7    1  0.3795708E-015  0.9000750E+02  0.7816164E-02  0.1186340E+00
        -11   -1    0    0    0    0  0.00000000000E+00  0.00000000000E+00  0.45593999997E+02  0.45594000000E+02  0.51100000000E-03 0. -1.
         11   -1    0    0    0    0 -0.00000000000E+00 -0.00000000000E+00 -0.45593999997E+02  0.45594000000E+02  0.51100000000E-03 0.  1.
    9900012    2    1    2    0    0 -0.90999648471E+00  0.42872692696E-01 -0.75075873113E+00  0.90007504196E+02  0.89999762451E+02 0.  0.
         12    1    1    2    0    0  0.90999648471E+00 -0.42872692696E-01  0.75075873113E+00  0.11804958036E+01  0.00000000000E+00 0. -1.
         11    1    3    3    0    0  0.50547889988E+01  0.77516083965E+01 -0.56326016601E+01  0.10833490955E+02  0.51100000000E-03 0. -1.
        -11    1    3    3    0    0 -0.29098939233E+02  0.64804730463E+01  0.29929005097E+02  0.42243225986E+02  0.51100000000E-03 0.  1.
         12    1    3    3    0    0  0.23134153749E+02 -0.14189208750E+02 -0.25047162168E+02  0.36930787255E+02  0.00000000000E+00 0. -1.
</event>
<event>
 7    1  0.3795708E-015  0.9000767E+02  0.7816164E-02  0.1186339E+00
        -11   -1    0    0    0    0  0.00000000000E+00  0.00000000000E+00  0.45593999997E+02  0.45594000000E+02  0.51100000000E-03 0.  1.
         11   -1    0    0    0    0 -0.00000000000E+00 -0.00000000000E+00 -0.45593999997E+02  0.45594000000E+02  0.51100000000E-03 0. -1.
    9900012    2    1    2    0    0 -0.10936289739E+01 -0.44091265998E+00 -0.52473056555E-01  0.90007668806E+02  0.89999929234E+02 0.  0.
         12    1    1    2    0    0  0.10936289739E+01  0.44091265998E+00  0.52473056555E-01  0.11803311941E+01  0.00000000000E+00 0. -1.
         11    1    3    3    0    0 -0.14422722434E+01 -0.92074485751E+01 -0.29598246845E-01  0.93197711777E+01  0.51100000000E-03 0. -1.
        -11    1    3    3    0    0 -0.31940413230E+01  0.80328776286E+01  0.39786333083E+02  0.40714632792E+02  0.51100000000E-03 0.  1.
         12    1    3    3    0    0  0.35426845926E+01  0.73365828651E+00 -0.39809207893E+02  0.39973264836E+02  0.00000000000E+00 0. -1.
</event>
<event>
 7    1  0.3795708E-015  0.9000822E+02  0.7816164E-02  0.1186338E+00
        -11   -1    0    0    0    0  0.00000000000E+00  0.00000000000E+00  0.45593999997E+02  0.45594000000E+02  0.51100000000E-03 0. -1.
         11   -1    0    0    0    0 -0.00000000000E+00 -0.00000000000E+00 -0.45593999997E+02  0.45594000000E+02  0.51100000000E-03 0.  1.
    9900012    2    1    2    0    0  0.88410221131E+00  0.39354689675E+00  0.67479970967E+00  0.90008224374E+02  0.90000492134E+02 0.  0.
         12    1    1    2    0    0 -0.88410221131E+00 -0.39354689675E+00 -0.67479970967E+00  0.11797756262E+01  0.00000000000E+00 0. -1.
         11    1    3    3    0    0  0.33757562220E+02  0.22053024324E+02 -0.32581048014E+00  0.40323876818E+02  0.51100000000E-03 0. -1.
        -11    1    3    3    0    0 -0.30941301095E+01  0.73691264560E+01 -0.96886671076E+00  0.80508613715E+01  0.51100000000E-03 0.  1.
        -12    1    3    3    0    0 -0.29779329899E+02 -0.29028603883E+02  0.19694769006E+01  0.41633486185E+02  0.00000000000E+00 0.  1.
</event>
<event>
 7    1  0.3795708E-015  0.9000792E+02  0.7816164E-02  0.1186339E+00
        -11   -1    0    0    0    0  0.00000000000E+00  0.00000000000E+00  0.45593999997E+02  0.45594000000E+02  0.51100000000E-03 0.  1.
         11   -1    0    0    0    0 -0.00000000000E+00 -0.00000000000E+00 -0.45593999997E+02  0.45594000000E+02  0.51100000000E-03 0. -1.
    9900012    2    1    2    0    0  0.84552622547E+00  0.71390150377E+00  0.40990002873E+00  0.90007920346E+02  0.90000184095E+02 0.  0.
         12    1    1    2    0    0 -0.84552622547E+00 -0.71390150377E+00 -0.40990002873E+00  0.11800796535E+01  0.00000000000E+00 0. -1.
         11    1    3    3    0    0 -0.57764436781E+01 -0.92682426469E+01 -0.15611686866E+01  0.11031993077E+02  0.51100000000E-03 0. -1.
        -11    1    3    3    0    0 -0.13311449683E+02 -0.30055108797E+02  0.80428822468E+01  0.33840688713E+02  0.51100000000E-03 0.  1.
         12    1    3    3    0    0  0.19933419587E+02  0.40037252947E+02 -0.60718135315E+01  0.45135238557E+02  0.00000000000E+00 0. -1.
</event>
<event>
 7    1  0.3795708E-015  0.9000778E+02  0.7816164E-02  0.1186339E+00
        -11   -1    0    0    0    0  0.00000000000E+00  0.00000000000E+00  0.45593999997E+02  0.45594000000E+02  0.51100000000E-03 0.  1.
         11   -1    0    0    0    0 -0.00000000000E+00 -0.00000000000E+00 -0.45593999997E+02  0.45594000000E+02  0.51100000000E-03 0. -1.
    9900012    2    1    2    0    0 -0.75831537902E+00  0.69958708416E+00  0.57311328925E+00  0.90007778349E+02  0.90000040224E+02 0.  0.
         12    1    1    2    0    0  0.75831537902E+00 -0.69958708416E+00 -0.57311328925E+00  0.11802216507E+01  0.00000000000E+00 0. -1.
         11    1    3    3    0    0  0.19220047544E+02 -0.28892164082E+02 -0.95275032732E+01  0.35985284379E+02  0.51100000000E-03 0. -1.
        -11    1    3    3    0    0 -0.34673727755E+01 -0.67168304416E+01  0.11897408896E+02  0.14095631374E+02  0.51100000000E-03 0.  1.
        -12    1    3    3    0    0 -0.16510990148E+02  0.36308581608E+02 -0.17967923334E+01  0.39926862596E+02  0.00000000000E+00 0.  1.
</event>
<event>
 7    1  0.3795708E-015  0.9000780E+02  0.7816164E-02  0.1186339E+00
        -11   -1    0    0    0    0  0.00000000000E+00  0.00000000000E+00  0.45593999997E+02  0.45594000000E+02  0.51100000000E-03 0.  1.
         11   -1    0    0    0    0 -0.00000000000E+00 -0.00000000000E+00 -0.45593999997E+02  0.45594000000E+02  0.51100000000E-03 0. -1.
    9900012    2    1    2    0    0  0.48818894856E+00 -0.75594034280E-01  0.10718378717E+01  0.90007796911E+02  0.90000059030E+02 0.  0.
         12    1    1    2    0    0 -0.48818894856E+00  0.75594034280E-01 -0.10718378717E+01  0.11802030888E+01  0.00000000000E+00 0. -1.
         11    1    3    3    0    0 -0.22876110813E+01  0.85807798153E+01  0.68867261398E+01  0.11237879866E+02  0.51100000000E-03 0. -1.
        -11    1    3    3    0    0 -0.15076203927E+02 -0.39686791003E+02  0.28455991879E+00  0.42454849894E+02  0.51100000000E-03 0.  1.
         12    1    3    3    0    0  0.17852003957E+02  0.31030417153E+02 -0.60994481869E+01  0.36315067151E+02  0.00000000000E+00 0. -1.
</event>
<event>
 7    1  0.3795708E-015  0.9000771E+02  0.7816164E-02  0.1186339E+00
        -11   -1    0    0    0    0  0.00000000000E+00  0.00000000000E+00  0.45593999997E+02  0.45594000000E+02  0.51100000000E-03 0.  1.
         11   -1    0    0    0    0 -0.00000000000E+00 -0.00000000000E+00 -0.45593999997E+02  0.45594000000E+02  0.51100000000E-03 0. -1.
    9900012    2    1    2    0    0 -0.11946737874E+00  0.25283642230E+00  0.11466805386E+01  0.90007714031E+02  0.89999975056E+02 0.  0.
         12    1    1    2    0    0  0.11946737874E+00 -0.25283642230E+00 -0.11466805386E+01  0.11802859690E+01  0.00000000000E+00 0. -1.
         11    1    3    3    0    0 -0.16880104337E+02 -0.14750864111E+02 -0.63265685623E+01  0.23292732439E+02  0.51100000000E-03 0. -1.
        -11    1    3    3    0    0 -0.11817513167E+02  0.13706760764E+02  0.26693648715E+02  0.32250268062E+02  0.51100000000E-03 0.  1.
         12    1    3    3    0    0  0.28578150125E+02  0.12969397690E+01 -0.19220399614E+02  0.34464713530E+02  0.00000000000E+00 0. -1.
</event>
<event>
 7    1  0.3795708E-015  0.9000777E+02  0.7816164E-02  0.1186339E+00
        -11   -1    0    0    0    0  0.00000000000E+00  0.00000000000E+00  0.45593999997E+02  0.45594000000E+02  0.51100000000E-03 0.  1.
         11   -1    0    0    0    0 -0.00000000000E+00 -0.00000000000E+00 -0.45593999997E+02  0.45594000000E+02  0.51100000000E-03 0. -1.
    9900012    2    1    2    0    0  0.67314753578E+00  0.74402653049E+00  0.62148251673E+00  0.90007769683E+02  0.90000031443E+02 0.  0.
         12    1    1    2    0    0 -0.67314753578E+00 -0.74402653049E+00 -0.62148251673E+00  0.11802303172E+01  0.00000000000E+00 0. -1.
         11    1    3    3    0    0  0.68593374464E+01 -0.77716579994E+01 -0.35633654928E+00  0.10371892511E+02  0.51100000000E-03 0. -1.
        -11    1    3    3    0    0 -0.41506023414E+01  0.15642989890E+02  0.38302983267E+02  0.41581836899E+02  0.51100000000E-03 0.  1.
         12    1    3    3    0    0 -0.20355875692E+01 -0.71273053604E+01 -0.37325164201E+02  0.38054040273E+02  0.00000000000E+00 0. -1.
</event>
<event>
 7    1  0.3795708E-015  0.9000771E+02  0.7816164E-02  0.1186339E+00
        -11   -1    0    0    0    0  0.00000000000E+00  0.00000000000E+00  0.45593999997E+02  0.45594000000E+02  0.51100000000E-03 0. -1.
         11   -1    0    0    0    0 -0.00000000000E+00 -0.00000000000E+00 -0.45593999997E+02  0.45594000000E+02  0.51100000000E-03 0.  1.
    9900012    2    1    2    0    0 -0.83037181701E+00  0.46039756031E+00 -0.70114898762E+00  0.90007706320E+02  0.89999967243E+02 0.  0.
         12    1    1    2    0    0  0.83037181701E+00 -0.46039756031E+00  0.70114898762E+00  0.11802936799E+01  0.00000000000E+00 0. -1.
         11    1    3    3    0    0 -0.15610035671E+02  0.76534458783E+01 -0.37315621864E+01  0.17781254289E+02  0.51100000000E-03 0. -1.
        -11    1    3    3    0    0  0.38638789405E+02  0.25706799615E+01  0.17686431601E+02  0.42571989679E+02  0.51100000000E-03 0.  1.
         12    1    3    3    0    0 -0.23859125551E+02 -0.97637282794E+01 -0.14656018403E+02  0.29654462352E+02  0.00000000000E+00 0. -1.
</event>
<event>
 7    1  0.3795708E-015  0.9000750E+02  0.7816164E-02  0.1186340E+00
        -11   -1    0    0    0    0  0.00000000000E+00  0.00000000000E+00  0.45593999997E+02  0.45594000000E+02  0.51100000000E-03 0.  1.
         11   -1    0    0    0    0 -0.00000000000E+00 -0.00000000000E+00 -0.45593999997E+02  0.45594000000E+02  0.51100000000E-03 0. -1.
    9900012    2    1    2    0    0 -0.24938204202E+00  0.36391392793E+00  0.10949707559E+01  0.90007497689E+02  0.89999755858E+02 0.  0.
         12    1    1    2    0    0  0.24938204202E+00 -0.36391392793E+00 -0.10949707559E+01  0.11805023110E+01  0.00000000000E+00 0. -1.
         11    1    3    3    0    0  0.67064296902E+01  0.31040204054E+01 -0.35497354436E+01  0.81982781026E+01  0.51100000000E-03 0. -1.
        -11    1    3    3    0    0 -0.36410437786E+01  0.24882122269E+02  0.33393644443E+02  0.41803261809E+02  0.51100000000E-03 0.  1.
         12    1    3    3    0    0 -0.33147679536E+01 -0.27622228747E+02 -0.28748938244E+02  0.40005957777E+02  0.00000000000E+00 0. -1.
</event>
<event>
 7    1  0.3795708E-015  0.9000780E+02  0.7816164E-02  0.1186339E+00
        -11   -1    0    0    0    0  0.00000000000E+00  0.00000000000E+00  0.45593999997E+02  0.45594000000E+02  0.51100000000E-03 0.  1.
         11   -1    0    0    0    0 -0.00000000000E+00 -0.00000000000E+00 -0.45593999997E+02  0.45594000000E+02  0.51100000000E-03 0. -1.
    9900012    2    1    2    0    0  0.96890287986E+00  0.67386219492E+00  0.45344772822E-02  0.90007795098E+02  0.90000057194E+02 0.  0.
         12    1    1    2    0    0 -0.96890287986E+00 -0.67386219492E+00 -0.45344772822E-02  0.11802049016E+01  0.00000000000E+00 0. -1.
         11    1    3    3    0    0 -0.14458018314E+02  0.28429759103E+02  0.14175005892E+02  0.34902955298E+02  0.51100000000E-03 0. -1.
        -11    1    3    3    0    0 -0.87019804890E+01  0.12766454805E+01  0.75156339408E+01  0.11568882483E+02  0.51100000000E-03 0.  1.
        -12    1    3    3    0    0  0.24128901683E+02 -0.29032542389E+02 -0.21686105355E+02  0.43535957317E+02  0.00000000000E+00 0.  1.
</event>
<event>
 7    1  0.3795708E-015  0.9000742E+02  0.7816164E-02  0.1186340E+00
        -11   -1    0    0    0    0  0.00000000000E+00  0.00000000000E+00  0.45593999997E+02  0.45594000000E+02  0.51100000000E-03 0. -1.
         11   -1    0    0    0    0 -0.00000000000E+00 -0.00000000000E+00 -0.45593999997E+02  0.45594000000E+02  0.51100000000E-03 0.  1.
    9900012    2    1    2    0    0  0.94499867157E+00 -0.18057729569E-01 -0.70739976885E+00  0.90007422597E+02  0.89999679775E+02 0.  0.
         12    1    1    2    0    0 -0.94499867157E+00  0.18057729569E-01  0.70739976885E+00  0.11805774027E+01  0.00000000000E+00 0. -1.
         11    1    3    3    0    0  0.33690200179E+02  0.20550639891E+02  0.11369569507E+02  0.41068546346E+02  0.51100000000E-03 0. -1.
        -11    1    3    3    0    0 -0.93142038248E+01 -0.43639309961E+01  0.88667688989E+01  0.13580054403E+02  0.51100000000E-03 0.  1.
        -12    1    3    3    0    0 -0.23430997682E+02 -0.16204766624E+02 -0.20943738174E+02  0.35358821848E+02  0.00000000000E+00 0.  1.
</event>
<event>
 7    1  0.3795708E-015  0.9000802E+02  0.7816164E-02  0.1186338E+00
        -11   -1    0    0    0    0  0.00000000000E+00  0.00000000000E+00  0.45593999997E+02  0.45594000000E+02  0.51100000000E-03 0.  1.
         11   -1    0    0    0    0 -0.00000000000E+00 -0.00000000000E+00 -0.45593999997E+02  0.45594000000E+02  0.51100000000E-03 0. -1.
    9900012    2    1    2    0    0 -0.57709199512E+00  0.10174146665E+01  0.15550973866E+00  0.90008020740E+02  0.90000285814E+02 0.  0.
         12    1    1    2    0    0  0.57709199512E+00 -0.10174146665E+01 -0.15550973866E+00  0.11799792597E+01  0.00000000000E+00 0. -1.
         11    1    3    3    0    0  0.10393360704E+02  0.29876931479E+02 -0.23984734537E+02  0.39697864834E+02  0.51100000000E-03 0. -1.
        -11    1    3    3    0    0 -0.16600091159E+01  0.28180294769E+01 -0.51979995208E+01  0.61413451032E+01  0.51100000000E-03 0.  1.
        -12    1    3    3    0    0 -0.93104435829E+01 -0.31677546290E+02  0.29338243797E+02  0.44168810803E+02  0.00000000000E+00 0.  1.
</event>
<event>
 7    1  0.3795708E-015  0.9000771E+02  0.7816164E-02  0.1186339E+00
        -11   -1    0    0    0    0  0.00000000000E+00  0.00000000000E+00  0.45593999997E+02  0.45594000000E+02  0.51100000000E-03 0.  1.
         11   -1    0    0    0    0 -0.00000000000E+00 -0.00000000000E+00 -0.45593999997E+02  0.45594000000E+02  0.51100000000E-03 0. -1.
    9900012    2    1    2    0    0  0.40953839953E+00  0.10630510582E+01  0.30867586196E+00  0.90007711882E+02  0.89999972879E+02 0.  0.
         12    1    1    2    0    0 -0.40953839953E+00 -0.10630510582E+01 -0.30867586196E+00  0.11802881177E+01  0.00000000000E+00 0. -1.
         11    1    3    3    0    0  0.13897242384E+02 -0.22974556859E+02 -0.23488716008E+02  0.35674688348E+02  0.51100000000E-03 0. -1.
        -11    1    3    3    0    0  0.70039415206E+01 -0.57892438862E+01 -0.27022908501E+01  0.94801327891E+01  0.51100000000E-03 0.  1.
        -12    1    3    3    0    0 -0.20491645505E+02  0.29826851803E+02  0.26499682720E+02  0.44852890746E+02  0.00000000000E+00 0.  1.
</event>
<event>
 7    1  0.3795708E-015  0.9000776E+02  0.7816164E-02  0.1186339E+00
        -11   -1    0    0    0    0  0.00000000000E+00  0.00000000000E+00  0.45593999997E+02  0.45594000000E+02  0.51100000000E-03 0. -1.
         11   -1    0    0    0    0 -0.00000000000E+00 -0.00000000000E+00 -0.45593999997E+02  0.45594000000E+02  0.51100000000E-03 0.  1.
    9900012    2    1    2    0    0 -0.71122280549E+00  0.34397997867E+00 -0.87681158694E+00  0.90007763302E+02  0.90000024977E+02 0.  0.
         12    1    1    2    0    0  0.71122280549E+00 -0.34397997867E+00  0.87681158694E+00  0.11802366982E+01  0.00000000000E+00 0. -1.
         11    1    3    3    0    0 -0.15016343777E+01  0.53581952535E+01  0.38747030342E+01  0.67807437677E+01  0.51100000000E-03 0. -1.
        -11    1    3    3    0    0 -0.50810155007E+01  0.38057528270E+02 -0.93415394983E+01  0.39515269669E+02  0.51100000000E-03 0.  1.
         12    1    3    3    0    0  0.58714270729E+01 -0.43071743545E+02  0.45900248772E+01  0.43711749865E+02  0.00000000000E+00 0. -1.
</event>
<event>
 7    1  0.3795708E-015  0.9000793E+02  0.7816164E-02  0.1186339E+00
        -11   -1    0    0    0    0  0.00000000000E+00  0.00000000000E+00  0.45593999997E+02  0.45594000000E+02  0.51100000000E-03 0.  1.
         11   -1    0    0    0    0 -0.00000000000E+00 -0.00000000000E+00 -0.45593999997E+02  0.45594000000E+02  0.51100000000E-03 0. -1.
    9900012    2    1    2    0    0 -0.90539110675E+00  0.54028723356E-01  0.75492603719E+00  0.90007929883E+02  0.90000193757E+02 0.  0.
         12    1    1    2    0    0  0.90539110675E+00 -0.54028723356E-01 -0.75492603719E+00  0.11800701169E+01  0.00000000000E+00 0. -1.
         11    1    3    3    0    0 -0.81177903871E+01 -0.51294539161E+01 -0.32125685828E+01  0.10125730364E+02  0.51100000000E-03 0. -1.
        -11    1    3    3    0    0 -0.35765359274E+02 -0.33465022240E+01  0.43875347854E+00  0.35924260689E+02  0.51100000000E-03 0.  1.
         12    1    3    3    0    0  0.42977758555E+02  0.85299848635E+01  0.35287411415E+01  0.43957938830E+02  0.00000000000E+00 0. -1.
</event>
<event>
 7    1  0.3795708E-015  0.9000771E+02  0.7816164E-02  0.1186339E+00
        -11   -1    0    0    0    0  0.00000000000E+00  0.00000000000E+00  0.45593999997E+02  0.45594000000E+02  0.51100000000E-03 0.  1.
         11   -1    0    0    0    0 -0.00000000000E+00 -0.00000000000E+00 -0.45593999997E+02  0.45594000000E+02  0.51100000000E-03 0. -1.
    9900012    2    1    2    0    0 -0.47581397488E+00  0.56139517494E+00  0.92277594693E+00  0.90007712353E+02  0.89999973356E+02 0.  0.
         12    1    1    2    0    0  0.47581397488E+00 -0.56139517494E+00 -0.92277594693E+00  0.11802876469E+01  0.00000000000E+00 0. -1.
         11    1    3    3    0    0  0.25905307694E+02 -0.25413062855E+02 -0.15625356879E+02  0.39510258266E+02  0.51100000000E-03 0. -1.
        -11    1    3    3    0    0  0.21583448168E+01  0.27619244425E+01 -0.62875397517E+01  0.71985995419E+01  0.51100000000E-03 0.  1.
        -12    1    3    3    0    0 -0.28539466485E+02  0.23212533588E+02  0.22835672578E+02  0.43298854545E+02  0.00000000000E+00 0.  1.
</event>
<event>
 7    1  0.3795708E-015  0.9000779E+02  0.7816164E-02  0.1186339E+00
        -11   -1    0    0    0    0  0.00000000000E+00  0.00000000000E+00  0.45593999997E+02  0.45594000000E+02  0.51100000000E-03 0.  1.
         11   -1    0    0    0    0 -0.00000000000E+00 -0.00000000000E+00 -0.45593999997E+02  0.45594000000E+02  0.51100000000E-03 0. -1.
    9900012    2    1    2    0    0 -0.16170822197E+00  0.45588478776E-01  0.11681851135E+01  0.90007794798E+02  0.90000056890E+02 0.  0.
         12    1    1    2    0    0  0.16170822197E+00 -0.45588478776E-01 -0.11681851135E+01  0.11802052016E+01  0.00000000000E+00 0. -1.
         11    1    3    3    0    0  0.30122038356E+02  0.44438849324E+01 -0.19037042109E+02  0.35909529104E+02  0.51100000000E-03 0. -1.
        -11    1    3    3    0    0  0.95556846402E+01 -0.28879390550E+01  0.16278690571E+01  0.10114408478E+02  0.51100000000E-03 0.  1.
        -12    1    3    3    0    0 -0.39839431218E+02 -0.15103573986E+01  0.18577358165E+02  0.43983857216E+02  0.00000000000E+00 0.  1.
</event>
<event>
 7    1  0.3795708E-015  0.9000773E+02  0.7816164E-02  0.1186339E+00
        -11   -1    0    0    0    0  0.00000000000E+00  0.00000000000E+00  0.45593999997E+02  0.45594000000E+02  0.51100000000E-03 0.  1.
         11   -1    0    0    0    0 -0.00000000000E+00 -0.00000000000E+00 -0.45593999997E+02  0.45594000000E+02  0.51100000000E-03 0. -1.
    9900012    2    1    2    0    0  0.11386547835E+01  0.30030548910E+00 -0.79429104211E-01  0.90007734316E+02  0.89999995609E+02 0.  0.
         12    1    1    2    0    0 -0.11386547835E+01 -0.30030548910E+00  0.79429104211E-01  0.11802656842E+01  0.00000000000E+00 0. -1.
         11    1    3    3    0    0  0.26255111772E+01 -0.34325400698E+01 -0.13606140806E+02  0.14275948591E+02  0.51100000000E-03 0. -1.
        -11    1    3    3    0    0 -0.26966668818E+02 -0.22072370261E+02  0.17948095720E+02  0.39198531814E+02  0.51100000000E-03 0.  1.
         12    1    3    3    0    0  0.25479812424E+02  0.25805215820E+02 -0.44213840183E+01  0.36533253911E+02  0.00000000000E+00 0. -1.
</event>
<event>
 7    1  0.3795708E-015  0.9000696E+02  0.7816164E-02  0.1186341E+00
        -11   -1    0    0    0    0  0.00000000000E+00  0.00000000000E+00  0.45593999997E+02  0.45594000000E+02  0.51100000000E-03 0.  1.
         11   -1    0    0    0    0 -0.00000000000E+00 -0.00000000000E+00 -0.45593999997E+02  0.45594000000E+02  0.51100000000E-03 0. -1.
    9900012    2    1    2    0    0  0.10254581199E+01 -0.41920132025E+00  0.40933239495E+00  0.90006963543E+02  0.89999214659E+02 0.  0.
         12    1    1    2    0    0 -0.10254581199E+01  0.41920132025E+00 -0.40933239495E+00  0.11810364567E+01  0.00000000000E+00 0. -1.
         11    1    3    3    0    0  0.12629715152E+02  0.35664906943E+02  0.57449756152E+01  0.38268786721E+02  0.51100000000E-03 0. -1.
        -11    1    3    3    0    0 -0.33954294297E+01  0.12739229307E+01  0.99174621211E+01  0.10559728966E+02  0.51100000000E-03 0.  1.
        -12    1    3    3    0    0 -0.82088276024E+01 -0.37358031194E+02 -0.15253105341E+02  0.41178447856E+02  0.00000000000E+00 0.  1.
</event>
<event>
 7    1  0.3795708E-015  0.9000770E+02  0.7816164E-02  0.1186339E+00
        -11   -1    0    0    0    0  0.00000000000E+00  0.00000000000E+00  0.45593999997E+02  0.45594000000E+02  0.51100000000E-03 0.  1.
         11   -1    0    0    0    0 -0.00000000000E+00 -0.00000000000E+00 -0.45593999997E+02  0.45594000000E+02  0.51100000000E-03 0. -1.
    9900012    2    1    2    0    0 -0.11006958269E+01  0.38972730448E+00  0.17232411605E+00  0.90007697379E+02  0.89999958185E+02 0.  0.
         12    1    1    2    0    0  0.11006958269E+01 -0.38972730448E+00 -0.17232411605E+00  0.11803026206E+01  0.00000000000E+00 0. -1.
         11    1    3    3    0    0 -0.29124091610E+01 -0.70112691800E+01  0.48544250698E+01  0.90114075291E+01  0.51100000000E-03 0. -1.
        -11    1    3    3    0    0  0.67672559647E+01 -0.91508803565E+01  0.35487820533E+02  0.37268213950E+02  0.51100000000E-03 0.  1.
         12    1    3    3    0    0 -0.49555426306E+01  0.16551876841E+02 -0.40169921486E+02  0.43728075900E+02  0.00000000000E+00 0. -1.
</event>
<event>
 7    1  0.3964140E-015  0.9000821E+02  0.7816164E-02  0.1186338E+00
        -11   -1    0    0    0    0  0.00000000000E+00  0.00000000000E+00  0.45593999997E+02  0.45594000000E+02  0.51100000000E-03 0.  1.
         11   -1    0    0    0    0 -0.00000000000E+00 -0.00000000000E+00 -0.45593999997E+02  0.45594000000E+02  0.51100000000E-03 0. -1.
    9900012    2    1    2    0    0  0.98593476899E+00  0.79208240681E-02  0.64790091772E+00  0.90008209465E+02  0.90000477028E+02 0.  0.
         12    1    1    2    0    0 -0.98593476899E+00 -0.79208240681E-02 -0.64790091772E+00  0.11797905354E+01  0.00000000000E+00 0. -1.
         11    1    3    3    0    0  0.14081842692E+02 -0.34340599273E+02 -0.81900646893E+01  0.38008580766E+02  0.51100000000E-03 0. -1.
        -11    1    3    3    0    0  0.84678146033E+01 -0.99578203472E+00  0.61435542495E+01  0.10508983067E+02  0.51100000000E-03 0.  1.
        -12    1    3    3    0    0 -0.21563722527E+02  0.35344302131E+02  0.26944113575E+01  0.41490645631E+02  0.00000000000E+00 0.  1.
</event>
<event>
 7    1  0.3795708E-015  0.9000770E+02  0.7816164E-02  0.1186339E+00
        -11   -1    0    0    0    0  0.00000000000E+00  0.00000000000E+00  0.45593999997E+02  0.45594000000E+02  0.51100000000E-03 0. -1.
         11   -1    0    0    0    0 -0.00000000000E+00 -0.00000000000E+00 -0.45593999997E+02  0.45594000000E+02  0.51100000000E-03 0.  1.
    9900012    2    1    2    0    0 -0.98441132784E-01  0.85066823088E+00 -0.81226493698E+00  0.90007702824E+02  0.89999963701E+02 0.  0.
         12    1    1    2    0    0  0.98441132784E-01 -0.85066823088E+00  0.81226493698E+00  0.11802971759E+01  0.00000000000E+00 0. -1.
         11    1    3    3    0    0  0.54205649037E+01  0.24432049456E+01  0.69395444018E+01  0.91383286791E+01  0.51100000000E-03 0. -1.
        -11    1    3    3    0    0  0.27815537303E+02  0.24298747055E+02 -0.10996500266E+02  0.38536427471E+02  0.51100000000E-03 0.  1.
         12    1    3    3    0    0 -0.33334543340E+02 -0.25891283769E+02  0.32446909269E+01  0.42332946674E+02  0.00000000000E+00 0. -1.
</event>
<event>
 7    1  0.3795708E-015  0.9000798E+02  0.7816164E-02  0.1186339E+00
        -11   -1    0    0    0    0  0.00000000000E+00  0.00000000000E+00  0.45593999997E+02  0.45594000000E+02  0.51100000000E-03 0. -1.
         11   -1    0    0    0    0 -0.00000000000E+00 -0.00000000000E+00 -0.45593999997E+02  0.45594000000E+02  0.51100000000E-03 0.  1.
    9900012    2    1    2    0    0 -0.86592553855E+00  0.73027155251E+00  0.33064477459E+00  0.90007979006E+02  0.90000243529E+02 0.  0.
         12    1    1    2    0    0  0.86592553855E+00 -0.73027155251E+00 -0.33064477459E+00  0.11800209937E+01  0.00000000000E+00 0. -1.
         11    1    3    3    0    0 -0.21033253321E+02  0.18119273027E+02  0.23181585092E+02  0.36167550207E+02  0.51100000000E-03 0. -1.
        -11    1    3    3    0    0 -0.71631232807E+01  0.50972432383E+01  0.37584291877E+01  0.95612767968E+01  0.51100000000E-03 0.  1.
        -12    1    3    3    0    0  0.27330451063E+02 -0.22486244713E+02 -0.26609369505E+02  0.44279152003E+02  0.00000000000E+00 0.  1.
</event>
<event>
 7    1  0.3795708E-015  0.9000782E+02  0.7816164E-02  0.1186339E+00
        -11   -1    0    0    0    0  0.00000000000E+00  0.00000000000E+00  0.45593999997E+02  0.45594000000E+02  0.51100000000E-03 0.  1.
         11   -1    0    0    0    0 -0.00000000000E+00 -0.00000000000E+00 -0.45593999997E+02  0.45594000000E+02  0.51100000000E-03 0. -1.
    9900012    2    1    2    0    0  0.11484943623E+01  0.26608456995E+00 -0.54712785076E-01  0.90007816206E+02  0.90000078580E+02 0.  0.
         12    1    1    2    0    0 -0.11484943623E+01 -0.26608456995E+00  0.54712785076E-01  0.11801837940E+01  0.00000000000E+00 0. -1.
         11    1    3    3    0    0 -0.11491461692E+02 -0.15605101854E+02 -0.33928157235E+02  0.39072915803E+02  0.51100000000E-03 0. -1.
        -11    1    3    3    0    0 -0.82940160006E+01  0.67066795717E+01  0.74906252586E+00  0.10692583749E+02  0.51100000000E-03 0.  1.
        -12    1    3    3    0    0  0.20933972055E+02  0.91645068524E+01  0.33124381924E+02  0.40242316654E+02  0.00000000000E+00 0.  1.
</event>
<event>
 7    1  0.3795708E-015  0.9000774E+02  0.7816164E-02  0.1186339E+00
        -11   -1    0    0    0    0  0.00000000000E+00  0.00000000000E+00  0.45593999997E+02  0.45594000000E+02  0.51100000000E-03 0.  1.
         11   -1    0    0    0    0 -0.00000000000E+00 -0.00000000000E+00 -0.45593999997E+02  0.45594000000E+02  0.51100000000E-03 0. -1.
    9900012    2    1    2    0    0 -0.10823384264E+01  0.29981904943E+00  0.36284801942E+00  0.90007742987E+02  0.90000004394E+02 0.  0.
         12    1    1    2    0    0  0.10823384264E+01 -0.29981904943E+00 -0.36284801942E+00  0.11802570131E+01  0.00000000000E+00 0. -1.
         11    1    3    3    0    0  0.55900771276E+01 -0.19457734121E+02 -0.26003379839E+02  0.32954941097E+02  0.51100000000E-03 0. -1.
        -11    1    3    3    0    0  0.20103394261E+01 -0.57406199029E+01 -0.10055993863E+02  0.11752412276E+02  0.51100000000E-03 0.  1.
        -12    1    3    3    0    0 -0.86827549801E+01  0.25498173073E+02  0.36422221721E+02  0.45300389614E+02  0.00000000000E+00 0.  1.
</event>
<event>
 7    1  0.3795708E-015  0.9000775E+02  0.7816164E-02  0.1186339E+00
        -11   -1    0    0    0    0  0.00000000000E+00  0.00000000000E+00  0.45593999997E+02  0.45594000000E+02  0.51100000000E-03 0. -1.
         11   -1    0    0    0    0 -0.00000000000E+00 -0.00000000000E+00 -0.45593999997E+02  0.45594000000E+02  0.51100000000E-03 0.  1.
    9900012    2    1    2    0    0  0.57877942260E+00 -0.95646154329E+00 -0.37841394930E+00  0.90007745188E+02  0.90000006625E+02 0.  0.
         12    1    1    2    0    0 -0.57877942260E+00  0.95646154329E+00  0.37841394930E+00  0.11802548118E+01  0.00000000000E+00 0. -1.
         11    1    3    3    0    0  0.87231466193E+01 -0.51989721106E+01  0.28859985751E+01  0.10557063322E+02  0.51100000000E-03 0. -1.
        -11    1    3    3    0    0  0.21651653370E+02 -0.20757229078E+02 -0.21089177584E+02  0.36666197840E+02  0.51100000000E-03 0.  1.
         12    1    3    3    0    0 -0.29796020566E+02  0.24999739645E+02  0.17824765059E+02  0.42784484026E+02  0.00000000000E+00 0. -1.
</event>
<event>
 7    1  0.3795708E-015  0.9000772E+02  0.7816164E-02  0.1186339E+00
        -11   -1    0    0    0    0  0.00000000000E+00  0.00000000000E+00  0.45593999997E+02  0.45594000000E+02  0.51100000000E-03 0.  1.
         11   -1    0    0    0    0 -0.00000000000E+00 -0.00000000000E+00 -0.45593999997E+02  0.45594000000E+02  0.51100000000E-03 0. -1.
    9900012    2    1    2    0    0 -0.22261703201E+00 -0.15284605117E+00  0.11489788607E+01  0.90007715000E+02  0.89999976038E+02 0.  0.
         12    1    1    2    0    0  0.22261703201E+00  0.15284605117E+00 -0.11489788607E+01  0.11802849997E+01  0.00000000000E+00 0. -1.
         11    1    3    3    0    0 -0.67547750658E+01  0.71754500109E+01  0.38011505573E+01  0.10562329992E+02  0.51100000000E-03 0. -1.
        -11    1    3    3    0    0 -0.15562306328E+02 -0.27445063681E+02 -0.26509600241E+02  0.41208928692E+02  0.51100000000E-03 0.  1.
         12    1    3    3    0    0  0.22094464362E+02  0.20116767619E+02  0.23857428544E+02  0.38236456316E+02  0.00000000000E+00 0. -1.
</event>
<event>
 7    1  0.3795708E-015  0.9000770E+02  0.7816164E-02  0.1186339E+00
        -11   -1    0    0    0    0  0.00000000000E+00  0.00000000000E+00  0.45593999997E+02  0.45594000000E+02  0.51100000000E-03 0.  1.
         11   -1    0    0    0    0 -0.00000000000E+00 -0.00000000000E+00 -0.45593999997E+02  0.45594000000E+02  0.51100000000E-03 0. -1.
    9900012    2    1    2    0    0  0.12818102916E+00  0.68620041630E+00  0.95173484302E+00  0.90007703173E+02  0.89999964055E+02 0.  0.
         12    1    1    2    0    0 -0.12818102916E+00 -0.68620041630E+00 -0.95173484302E+00  0.11802968266E+01  0.00000000000E+00 0. -1.
         11    1    3    3    0    0 -0.39059181172E+02  0.17076536760E+02 -0.57208131912E+01  0.43011108395E+02  0.51100000000E-03 0. -1.
        -11    1    3    3    0    0  0.28047953613E+01 -0.86953507508E+01 -0.38837236246E+00  0.91447709130E+01  0.51100000000E-03 0.  1.
        -12    1    3    3    0    0  0.36382566840E+02 -0.76949855927E+01  0.70609203967E+01  0.37851823866E+02  0.00000000000E+00 0.  1.
</event>
<event>
 7    1  0.3795708E-015  0.9000777E+02  0.7816164E-02  0.1186339E+00
        -11   -1    0    0    0    0  0.00000000000E+00  0.00000000000E+00  0.45593999997E+02  0.45594000000E+02  0.51100000000E-03 0.  1.
         11   -1    0    0    0    0 -0.00000000000E+00 -0.00000000000E+00 -0.45593999997E+02  0.45594000000E+02  0.51100000000E-03 0. -1.
    9900012    2    1    2    0    0 -0.38774443043E+00 -0.38001906606E+00  0.10479381517E+01  0.90007773495E+02  0.90000035305E+02 0.  0.
         12    1    1    2    0    0  0.38774443043E+00  0.38001906606E+00 -0.10479381517E+01  0.11802265052E+01  0.00000000000E+00 0. -1.
         11    1    3    3    0    0  0.81292859668E+01  0.79724306133E+01 -0.54988615715E-01  0.11386305996E+02  0.51100000000E-03 0. -1.
        -11    1    3    3    0    0  0.19907315238E+02 -0.22266867280E+02  0.25012037171E+02  0.38957882157E+02  0.51100000000E-03 0.  1.
         12    1    3    3    0    0 -0.28424345635E+02  0.13914417601E+02 -0.23909110403E+02  0.39663585343E+02  0.00000000000E+00 0. -1.
</event>
<event>
 7    1  0.3795708E-015  0.9000749E+02  0.7816164E-02  0.1186340E+00
        -11   -1    0    0    0    0  0.00000000000E+00  0.00000000000E+00  0.45593999997E+02  0.45594000000E+02  0.51100000000E-03 0.  1.
         11   -1    0    0    0    0 -0.00000000000E+00 -0.00000000000E+00 -0.45593999997E+02  0.45594000000E+02  0.51100000000E-03 0. -1.
    9900012    2    1    2    0    0  0.56976566461E+00 -0.95148533315E-01  0.10295280544E+01  0.90007485633E+02  0.89999743643E+02 0.  0.
         12    1    1    2    0    0 -0.56976566461E+00  0.95148533315E-01 -0.10295280544E+01  0.11805143670E+01  0.00000000000E+00 0. -1.
         11    1    3    3    0    0  0.51348328758E+00  0.91593028989E+01 -0.94910132729E+01  0.13199841964E+02  0.51100000000E-03 0. -1.
        -11    1    3    3    0    0  0.13873185971E+02 -0.39315998579E+02 -0.11972446898E+01  0.41709068898E+02  0.51100000000E-03 0.  1.
         12    1    3    3    0    0 -0.13816903594E+02  0.30061547147E+02  0.11717786017E+02  0.35098574770E+02  0.00000000000E+00 0. -1.
</event>
<event>
 7    1  0.3795708E-015  0.9000782E+02  0.7816164E-02  0.1186339E+00
        -11   -1    0    0    0    0  0.00000000000E+00  0.00000000000E+00  0.45593999997E+02  0.45594000000E+02  0.51100000000E-03 0.  1.
         11   -1    0    0    0    0 -0.00000000000E+00 -0.00000000000E+00 -0.45593999997E+02  0.45594000000E+02  0.51100000000E-03 0. -1.
    9900012    2    1    2    0    0 -0.43820691706E-01 -0.47144791052E+00  0.10810414729E+01  0.90007816094E+02  0.90000078467E+02 0.  0.
         12    1    1    2    0    0  0.43820691706E-01  0.47144791052E+00 -0.10810414729E+01  0.11801839058E+01  0.00000000000E+00 0. -1.
         11    1    3    3    0    0  0.78424184627E+00  0.92407528828E+01 -0.27807478631E+02  0.29313178217E+02  0.51100000000E-03 0. -1.
        -11    1    3    3    0    0 -0.38262820989E+01  0.80739284994E+01 -0.12604957690E+02  0.15450362933E+02  0.51100000000E-03 0.  1.
        -12    1    3    3    0    0  0.29982195610E+01 -0.17786129293E+02  0.41493477794E+02  0.45244274944E+02  0.00000000000E+00 0.  1.
</event>
<event>
 7    1  0.3795708E-015  0.9000829E+02  0.7816164E-02  0.1186338E+00
        -11   -1    0    0    0    0  0.00000000000E+00  0.00000000000E+00  0.45593999997E+02  0.45594000000E+02  0.51100000000E-03 0. -1.
         11   -1    0    0    0    0 -0.00000000000E+00 -0.00000000000E+00 -0.45593999997E+02  0.45594000000E+02  0.51100000000E-03 0.  1.
    9900012    2    1    2    0    0 -0.46059891985E+00  0.92354928218E+00  0.57150279644E+00  0.90008292372E+02  0.90000561029E+02 0.  0.
         12    1    1    2    0    0  0.46059891985E+00 -0.92354928218E+00 -0.57150279644E+00  0.11797076281E+01  0.00000000000E+00 0. -1.
         11    1    3    3    0    0 -0.70440779278E+01 -0.77477988199E+01 -0.27358861125E+01  0.10822776607E+02  0.51100000000E-03 0. -1.
        -11    1    3    3    0    0 -0.17180386999E+02  0.38968051783E+01 -0.31899993283E+02  0.36441190427E+02  0.51100000000E-03 0.  1.
         12    1    3    3    0    0  0.23763866007E+02  0.47745429238E+01  0.35207382192E+02  0.42744325337E+02  0.00000000000E+00 0. -1.
</event>
<event>
 7    1  0.4014521E-015  0.9000772E+02  0.7816164E-02  0.1186339E+00
        -11   -1    0    0    0    0  0.00000000000E+00  0.00000000000E+00  0.45593999997E+02  0.45594000000E+02  0.51100000000E-03 0.  1.
         11   -1    0    0    0    0 -0.00000000000E+00 -0.00000000000E+00 -0.45593999997E+02  0.45594000000E+02  0.51100000000E-03 0. -1.
    9900012    2    1    2    0    0  0.50949318333E+00 -0.26420114648E+00  0.10313436664E+01  0.90007722360E+02  0.89999983495E+02 0.  0.
         12    1    1    2    0    0 -0.50949318333E+00  0.26420114648E+00 -0.10313436664E+01  0.11802776401E+01  0.00000000000E+00 0. -1.
         11    1    3    3    0    0  0.22364246630E+02 -0.12343057930E+02 -0.25164350988E+02  0.35857428342E+02  0.51100000000E-03 0. -1.
        -11    1    3    3    0    0  0.66815628693E+01 -0.43845116610E+01 -0.44572647634E+01  0.91506521251E+01  0.51100000000E-03 0.  1.
        -12    1    3    3    0    0 -0.28536316316E+02  0.16463368444E+02  0.30652959418E+02  0.44999641893E+02  0.00000000000E+00 0.  1.
</event>
<event>
 7    1  0.3795708E-015  0.9000775E+02  0.7816164E-02  0.1186339E+00
        -11   -1    0    0    0    0  0.00000000000E+00  0.00000000000E+00  0.45593999997E+02  0.45594000000E+02  0.51100000000E-03 0. -1.
         11   -1    0    0    0    0 -0.00000000000E+00 -0.00000000000E+00 -0.45593999997E+02  0.45594000000E+02  0.51100000000E-03 0.  1.
    9900012    2    1    2    0    0  0.73315986371E+00 -0.35944611144E+00 -0.85220926537E+00  0.90007751922E+02  0.90000013448E+02 0.  0.
         12    1    1    2    0    0 -0.73315986371E+00  0.35944611144E+00  0.85220926537E+00  0.11802480776E+01  0.00000000000E+00 0. -1.
         11    1    3    3    0    0  0.10582868872E+02 -0.17200760278E+02  0.98662969955E+01  0.22476812149E+02  0.51100000000E-03 0. -1.
        -11    1    3    3    0    0 -0.17586415200E+01 -0.14806415111E+02 -0.27142830337E+02  0.30968629085E+02  0.51100000000E-03 0.  1.
         12    1    3    3    0    0 -0.80910674886E+01  0.31647729278E+02  0.16424324076E+02  0.36562310689E+02  0.00000000000E+00 0. -1.
</event>
<event>
 7    1  0.3795708E-015  0.9000773E+02  0.7816164E-02  0.1186339E+00
        -11   -1    0    0    0    0  0.00000000000E+00  0.00000000000E+00  0.45593999997E+02  0.45594000000E+02  0.51100000000E-03 0. -1.
         11   -1    0    0    0    0 -0.00000000000E+00 -0.00000000000E+00 -0.45593999997E+02  0.45594000000E+02  0.51100000000E-03 0.  1.
    9900012    2    1    2    0    0 -0.86835697880E+00 -0.17083571883E-01 -0.79918764810E+00  0.90007730290E+02  0.89999991530E+02 0.  0.
         12    1    1    2    0    0  0.86835697880E+00  0.17083571883E-01  0.79918764810E+00  0.11802697098E+01  0.00000000000E+00 0. -1.
         11    1    3    3    0    0 -0.17229519135E+01 -0.30494858106E+00 -0.98834599945E+01  0.10037147934E+02  0.51100000000E-03 0. -1.
        -11    1    3    3    0    0 -0.14217157140E+02  0.34354386042E+02 -0.94509994145E+01  0.38362387669E+02  0.51100000000E-03 0.  1.
         12    1    3    3    0    0  0.15071752075E+02 -0.34066521032E+02  0.18535271761E+02  0.41608194687E+02  0.00000000000E+00 0. -1.
</event>
<event>
 7    1  0.3795708E-015  0.9000780E+02  0.7816164E-02  0.1186339E+00
        -11   -1    0    0    0    0  0.00000000000E+00  0.00000000000E+00  0.45593999997E+02  0.45594000000E+02  0.51100000000E-03 0.  1.
         11   -1    0    0    0    0 -0.00000000000E+00 -0.00000000000E+00 -0.45593999997E+02  0.45594000000E+02  0.51100000000E-03 0. -1.
    9900012    2    1    2    0    0 -0.17667466372E+00 -0.44263970864E+00 -0.10796853745E+01  0.90007803255E+02  0.90000065458E+02 0.  0.
         12    1    1    2    0    0  0.17667466372E+00  0.44263970864E+00  0.10796853745E+01  0.11801967448E+01  0.00000000000E+00 0. -1.
         11    1    3    3    0    0 -0.26696119656E+02  0.14912090013E+02 -0.29256259613E+02  0.42319994802E+02  0.51100000000E-03 0. -1.
        -11    1    3    3    0    0  0.59856458844E+01  0.60571141342E+01  0.39557097881E+01  0.93895808467E+01  0.51100000000E-03 0.  1.
        -12    1    3    3    0    0  0.20533799107E+02 -0.21411843856E+02  0.24220864451E+02  0.38298227607E+02  0.00000000000E+00 0.  1.
</event>
<event>
 7    1  0.3795708E-015  0.9000690E+02  0.7816164E-02  0.1186341E+00
        -11   -1    0    0    0    0  0.00000000000E+00  0.00000000000E+00  0.45593999997E+02  0.45594000000E+02  0.51100000000E-03 0. -1.
         11   -1    0    0    0    0 -0.00000000000E+00 -0.00000000000E+00 -0.45593999997E+02  0.45594000000E+02  0.51100000000E-03 0.  1.
    9900012    2    1    2    0    0 -0.45291661383E+00  0.77877862499E+00 -0.76379075539E+00  0.90006896311E+02  0.89999146538E+02 0.  0.
         12    1    1    2    0    0  0.45291661383E+00 -0.77877862499E+00  0.76379075539E+00  0.11811036889E+01  0.00000000000E+00 0. -1.
         11    1    3    3    0    0  0.10719065661E+02 -0.44384886008E+01 -0.92686829308E+01  0.14849479225E+02  0.51100000000E-03 0. -1.
        -11    1    3    3    0    0 -0.16915151826E+02 -0.31404589399E+02 -0.43226695450E+01  0.35931268679E+02  0.51100000000E-03 0.  1.
         12    1    3    3    0    0  0.57431695512E+01  0.36621856625E+02  0.12827561720E+02  0.39226148407E+02  0.00000000000E+00 0. -1.
</event>
<event>
 7    1  0.3795708E-015  0.9000770E+02  0.7816164E-02  0.1186339E+00
        -11   -1    0    0    0    0  0.00000000000E+00  0.00000000000E+00  0.45593999997E+02  0.45594000000E+02  0.51100000000E-03 0.  1.
         11   -1    0    0    0    0 -0.00000000000E+00 -0.00000000000E+00 -0.45593999997E+02  0.45594000000E+02  0.51100000000E-03 0. -1.
    9900012    2    1    2    0    0 -0.69035557062E+00 -0.11652994070E-02  0.95734241008E+00  0.90007704841E+02  0.89999965745E+02 0.  0.
         12    1    1    2    0    0  0.69035557062E+00  0.11652994070E-02 -0.95734241008E+00  0.11802951588E+01  0.00000000000E+00 0. -1.
         11    1    3    3    0    0 -0.32319844182E+00 -0.70066810937E+01 -0.66254907571E+01  0.96485835860E+01  0.51100000000E-03 0. -1.
        -11    1    3    3    0    0  0.34876982962E+02  0.16576798259E+02 -0.99068941369E+01  0.39866536503E+02  0.51100000000E-03 0.  1.
         12    1    3    3    0    0 -0.35244140091E+02 -0.95712824651E+01  0.17489727304E+02  0.40492584752E+02  0.00000000000E+00 0. -1.
</event>
<event>
 7    1  0.3795708E-015  0.9000756E+02  0.7816164E-02  0.1186339E+00
        -11   -1    0    0    0    0  0.00000000000E+00  0.00000000000E+00  0.45593999997E+02  0.45594000000E+02  0.51100000000E-03 0. -1.
         11   -1    0    0    0    0 -0.00000000000E+00 -0.00000000000E+00 -0.45593999997E+02  0.45594000000E+02  0.51100000000E-03 0.  1.
    9900012    2    1    2    0    0  0.42091945866E+00 -0.75617324506E+00 -0.80278522952E+00  0.90007561398E+02  0.89999820409E+02 0.  0.
         12    1    1    2    0    0 -0.42091945866E+00  0.75617324506E+00  0.80278522952E+00  0.11804386015E+01  0.00000000000E+00 0. -1.
         11    1    3    3    0    0 -0.30379706448E+02  0.10551020936E+02  0.23919034249E+02  0.40079555965E+02  0.51100000000E-03 0. -1.
        -11    1    3    3    0    0 -0.48959090569E+01 -0.42098714424E+00  0.41632278028E+00  0.49315799281E+01  0.51100000000E-03 0.  1.
        -12    1    3    3    0    0  0.35696534963E+02 -0.10886207037E+02 -0.25138142259E+02  0.44996425506E+02  0.00000000000E+00 0.  1.
</event>
<event>
 7    1  0.3795708E-015  0.9000775E+02  0.7816164E-02  0.1186339E+00
        -11   -1    0    0    0    0  0.00000000000E+00  0.00000000000E+00  0.45593999997E+02  0.45594000000E+02  0.51100000000E-03 0.  1.
         11   -1    0    0    0    0 -0.00000000000E+00 -0.00000000000E+00 -0.45593999997E+02  0.45594000000E+02  0.51100000000E-03 0. -1.
    9900012    2    1    2    0    0 -0.94308018497E-01  0.11720471258E+01  0.10197717340E+00  0.90007750954E+02  0.90000012466E+02 0.  0.
         12    1    1    2    0    0  0.94308018497E-01 -0.11720471258E+01 -0.10197717340E+00  0.11802490463E+01  0.00000000000E+00 0. -1.
         11    1    3    3    0    0 -0.67803845924E+01 -0.70336586200E+01 -0.66536051435E+00  0.97922762256E+01  0.51100000000E-03 0. -1.
        -11    1    3    3    0    0  0.25998736396E+02 -0.86994044039E+01  0.30451031111E+02  0.40974128754E+02  0.51100000000E-03 0.  1.
         12    1    3    3    0    0 -0.19312659822E+02  0.16905110150E+02 -0.29683693423E+02  0.39241345974E+02  0.00000000000E+00 0. -1.
</event>
<event>
 7    1  0.3795708E-015  0.9000771E+02  0.7816164E-02  0.1186339E+00
        -11   -1    0    0    0    0  0.00000000000E+00  0.00000000000E+00  0.45593999997E+02  0.45594000000E+02  0.51100000000E-03 0.  1.
         11   -1    0    0    0    0 -0.00000000000E+00 -0.00000000000E+00 -0.45593999997E+02  0.45594000000E+02  0.51100000000E-03 0. -1.
    9900012    2    1    2    0    0  0.98816034897E-01  0.11739826057E+01  0.71252890396E-01  0.90007713280E+02  0.89999974295E+02 0.  0.
         12    1    1    2    0    0 -0.98816034897E-01 -0.11739826057E+01 -0.71252890396E-01  0.11802867201E+01  0.00000000000E+00 0. -1.
         11    1    3    3    0    0  0.28117751579E+01 -0.13641795044E+02  0.15035688937E+01  0.14009474339E+02  0.51100000000E-03 0. -1.
        -11    1    3    3    0    0 -0.59334811886E+01 -0.23556182410E+02  0.20409854461E+02  0.31727938605E+02  0.51100000000E-03 0.  1.
         12    1    3    3    0    0  0.32205220655E+01  0.38371960060E+02 -0.21842170464E+02  0.44270300336E+02  0.00000000000E+00 0. -1.
</event>
<event>
 7    1  0.3795708E-015  0.9000772E+02  0.7816164E-02  0.1186339E+00
        -11   -1    0    0    0    0  0.00000000000E+00  0.00000000000E+00  0.45593999997E+02  0.45594000000E+02  0.51100000000E-03 0.  1.
         11   -1    0    0    0    0 -0.00000000000E+00 -0.00000000000E+00 -0.45593999997E+02  0.45594000000E+02  0.51100000000E-03 0. -1.
    9900012    2    1    2    0    0  0.10580806828E+00 -0.91618830299E+00  0.73652787033E+00  0.90007716281E+02  0.89999977336E+02 0.  0.
         12    1    1    2    0    0 -0.10580806828E+00  0.91618830299E+00 -0.73652787033E+00  0.11802837191E+01  0.00000000000E+00 0. -1.
         11    1    3    3    0    0 -0.26446065430E+02  0.21203683205E+02 -0.84335385995E+00  0.33907252973E+02  0.51100000000E-03 0. -1.
        -11    1    3    3    0    0 -0.11100235788E+02  0.20601025751E+01  0.11772471881E+01  0.11350998563E+02  0.51100000000E-03 0.  1.
        -12    1    3    3    0    0  0.37652109287E+02 -0.24179974083E+02  0.40263454215E+00  0.44749464745E+02  0.00000000000E+00 0.  1.
</event>
<event>
 7    1  0.3795708E-015  0.9000773E+02  0.7816164E-02  0.1186339E+00
        -11   -1    0    0    0    0  0.00000000000E+00  0.00000000000E+00  0.45593999997E+02  0.45594000000E+02  0.51100000000E-03 0. -1.
         11   -1    0    0    0    0 -0.00000000000E+00 -0.00000000000E+00 -0.45593999997E+02  0.45594000000E+02  0.51100000000E-03 0.  1.
    9900012    2    1    2    0    0  0.23850155111E+00 -0.84733321710E+00  0.78624191800E+00  0.90007731842E+02  0.89999993103E+02 0.  0.
         12    1    1    2    0    0 -0.23850155111E+00  0.84733321710E+00 -0.78624191800E+00  0.11802681578E+01  0.00000000000E+00 0. -1.
         11    1    3    3    0    0 -0.63429674071E+01  0.29660220472E+01 -0.66246128148E+01  0.96392954887E+01  0.51100000000E-03 0. -1.
        -11    1    3    3    0    0  0.41697410040E+02 -0.36233412581E+01  0.14963545863E+02  0.44448962991E+02  0.51100000000E-03 0.  1.
         12    1    3    3    0    0 -0.35115941081E+02 -0.19001400619E+00 -0.75526911304E+01  0.35919473363E+02  0.00000000000E+00 0. -1.
</event>
<event>
 7    1  0.3795708E-015  0.9000772E+02  0.7816164E-02  0.1186339E+00
        -11   -1    0    0    0    0  0.00000000000E+00  0.00000000000E+00  0.45593999997E+02  0.45594000000E+02  0.51100000000E-03 0.  1.
         11   -1    0    0    0    0 -0.00000000000E+00 -0.00000000000E+00 -0.45593999997E+02  0.45594000000E+02  0.51100000000E-03 0. -1.
    9900012    2    1    2    0    0  0.38198361311E+00  0.45430836187E-01  0.11158311660E+01  0.90007722646E+02  0.89999983785E+02 0.  0.
         12    1    1    2    0    0 -0.38198361311E+00 -0.45430836187E-01 -0.11158311660E+01  0.11802773541E+01  0.00000000000E+00 0. -1.
         11    1    3    3    0    0 -0.65598095747E+01  0.32043507881E+01  0.61641191557E+01  0.95548590181E+01  0.51100000000E-03 0. -1.
        -11    1    3    3    0    0  0.14615422567E+02  0.31147534943E+02 -0.22595821748E+02  0.41162491063E+02  0.51100000000E-03 0.  1.
         12    1    3    3    0    0 -0.76736293793E+01 -0.34306454894E+02  0.17547533758E+02  0.39290372565E+02  0.00000000000E+00 0. -1.
</event>
<event>
 7    1  0.3795708E-015  0.9000757E+02  0.7816164E-02  0.1186339E+00
        -11   -1    0    0    0    0  0.00000000000E+00  0.00000000000E+00  0.45593999997E+02  0.45594000000E+02  0.51100000000E-03 0. -1.
         11   -1    0    0    0    0 -0.00000000000E+00 -0.00000000000E+00 -0.45593999997E+02  0.45594000000E+02  0.51100000000E-03 0.  1.
    9900012    2    1    2    0    0 -0.51678235149E+00 -0.10431579227E+01  0.19536104379E+00  0.90007572794E+02  0.89999831955E+02 0.  0.
         12    1    1    2    0    0  0.51678235149E+00  0.10431579227E+01 -0.19536104379E+00  0.11804272057E+01  0.00000000000E+00 0. -1.
         11    1    3    3    0    0  0.21389402440E+02  0.20217982442E+02  0.22628606357E+02  0.37125828970E+02  0.51100000000E-03 0. -1.
        -11    1    3    3    0    0  0.29376464087E+01 -0.16686321434E+01  0.81836561096E+01  0.88536053240E+01  0.51100000000E-03 0.  1.
        -12    1    3    3    0    0 -0.24843831200E+02 -0.19592508222E+02 -0.30616901423E+02  0.44028138501E+02  0.00000000000E+00 0.  1.
</event>
<event>
 7    1  0.4004414E-015  0.9000774E+02  0.7816164E-02  0.1186339E+00
        -11   -1    0    0    0    0  0.00000000000E+00  0.00000000000E+00  0.45593999997E+02  0.45594000000E+02  0.51100000000E-03 0. -1.
         11   -1    0    0    0    0 -0.00000000000E+00 -0.00000000000E+00 -0.45593999997E+02  0.45594000000E+02  0.51100000000E-03 0.  1.
    9900012    2    1    2    0    0 -0.88253687835E+00  0.26771324594E+00 -0.73651974767E+00  0.90007744493E+02  0.90000005920E+02 0.  0.
         12    1    1    2    0    0  0.88253687835E+00 -0.26771324594E+00  0.73651974767E+00  0.11802555073E+01  0.00000000000E+00 0. -1.
         11    1    3    3    0    0 -0.16991899284E+02  0.22435700596E+02  0.25801003287E+02  0.38180846944E+02  0.51100000000E-03 0. -1.
        -11    1    3    3    0    0  0.27708458693E+01 -0.39295278109E+01  0.87156445306E+01  0.99539557711E+01  0.51100000000E-03 0.  1.
        -12    1    3    3    0    0  0.13338516537E+02 -0.18238459539E+02 -0.35253167565E+02  0.41872941778E+02  0.00000000000E+00 0.  1.
</event>
<event>
 8    1  0.3795708E-015  0.9000770E+02  0.7816164E-02  0.1186339E+00
        -11   -1    0    0    0    0  0.00000000000E+00  0.00000000000E+00  0.45593999997E+02  0.45594000000E+02  0.51100000000E-03 0.  1.
         11   -1    0    0    0    0 -0.00000000000E+00 -0.00000000000E+00 -0.45593999997E+02  0.45594000000E+02  0.51100000000E-03 0. -1.
    9900012    2    1    2    0    0 -0.62516625718E-01 -0.42485812705E+00  0.10994082165E+01  0.90007698690E+02  0.89999959512E+02 0.  0.
         23    2    3    3    0    0  0.33987785371E-01 -0.15253179850E+02 -0.22691419879E+02  0.61973934409E+02  0.55616610462E+02 0.  0.
         12    1    1    2    0    0  0.62516625718E-01  0.42485812705E+00 -0.10994082165E+01  0.11803013103E+01  0.00000000000E+00 0. -1.
         11    1    4    4    0    0 -0.16629462597E+02 -0.13055315344E+02 -0.35173343573E+02  0.41038328223E+02  0.51100000000E-03 0. -1.
        -11    1    4    4    0    0  0.16663450382E+02 -0.21978645060E+01  0.12481923693E+02  0.20935606186E+02  0.51100000000E-03 0.  1.
        -12    1    3    3    0    0 -0.96504411089E-01  0.14828321723E+02  0.23790828096E+02  0.28033764280E+02  0.00000000000E+00 0.  1.
</event>
<event>
 7    1  0.3795708E-015  0.9000771E+02  0.7816164E-02  0.1186339E+00
        -11   -1    0    0    0    0  0.00000000000E+00  0.00000000000E+00  0.45593999997E+02  0.45594000000E+02  0.51100000000E-03 0.  1.
         11   -1    0    0    0    0 -0.00000000000E+00 -0.00000000000E+00 -0.45593999997E+02  0.45594000000E+02  0.51100000000E-03 0. -1.
    9900012    2    1    2    0    0  0.96471432245E+00 -0.63991340525E+00  0.23005046098E+00  0.90007709313E+02  0.89999970276E+02 0.  0.
         12    1    1    2    0    0 -0.96471432245E+00  0.63991340525E+00 -0.23005046098E+00  0.11802906866E+01  0.00000000000E+00 0. -1.
         11    1    3    3    0    0 -0.73666464044E+00 -0.13989219427E+02 -0.13463883250E+01  0.14073155181E+02  0.51100000000E-03 0. -1.
        -11    1    3    3    0    0 -0.36346492342E+02  0.99094463035E+01 -0.48011888407E+00  0.37676188051E+02  0.51100000000E-03 0.  1.
         12    1    3    3    0    0  0.38047871305E+02  0.34398597185E+01  0.20565576700E+01  0.38258366081E+02  0.00000000000E+00 0. -1.
</event>
<event>
 7    1  0.3795708E-015  0.9000767E+02  0.7816164E-02  0.1186339E+00
        -11   -1    0    0    0    0  0.00000000000E+00  0.00000000000E+00  0.45593999997E+02  0.45594000000E+02  0.51100000000E-03 0.  1.
         11   -1    0    0    0    0 -0.00000000000E+00 -0.00000000000E+00 -0.45593999997E+02  0.45594000000E+02  0.51100000000E-03 0. -1.
    9900012    2    1    2    0    0 -0.28722902142E+00  0.22882595915E+00  0.11217509386E+01  0.90007666573E+02  0.89999926972E+02 0.  0.
         12    1    1    2    0    0  0.28722902142E+00 -0.22882595915E+00 -0.11217509386E+01  0.11803334269E+01  0.00000000000E+00 0. -1.
         11    1    3    3    0    0  0.31852822478E+02 -0.16560986020E+02  0.88000086141E+01  0.36963613319E+02  0.51100000000E-03 0. -1.
        -11    1    3    3    0    0  0.61536019050E+01 -0.42170250553E+01 -0.55811443484E+01  0.93166136134E+01  0.51100000000E-03 0.  1.
        -12    1    3    3    0    0 -0.38293653404E+02  0.21006837034E+02 -0.20971133271E+01  0.43727439641E+02  0.00000000000E+00 0.  1.
</event>
<event>
 7    1  0.3795708E-015  0.9000818E+02  0.7816164E-02  0.1186338E+00
        -11   -1    0    0    0    0  0.00000000000E+00  0.00000000000E+00  0.45593999997E+02  0.45594000000E+02  0.51100000000E-03 0. -1.
         11   -1    0    0    0    0 -0.00000000000E+00 -0.00000000000E+00 -0.45593999997E+02  0.45594000000E+02  0.51100000000E-03 0.  1.
    9900012    2    1    2    0    0  0.54859596423E-01 -0.64641807000E+00 -0.98545404861E+00  0.90008175615E+02  0.90000442732E+02 0.  0.
         12    1    1    2    0    0 -0.54859596423E-01  0.64641807000E+00  0.98545404861E+00  0.11798243846E+01  0.00000000000E+00 0. -1.
         11    1    3    3    0    0 -0.88562170948E+01  0.31786179164E+01 -0.11910910823E+01  0.94844552461E+01  0.51100000000E-03 0. -1.
        -11    1    3    3    0    0 -0.28708891751E+02  0.20853672475E+02  0.14675565003E+01  0.35513797933E+02  0.51100000000E-03 0.  1.
         12    1    3    3    0    0  0.37619968442E+02 -0.24678708462E+02 -0.12619194665E+01  0.45009922436E+02  0.00000000000E+00 0. -1.
</event>
<event>
 7    1  0.3795708E-015  0.9000765E+02  0.7816164E-02  0.1186339E+00
        -11   -1    0    0    0    0  0.00000000000E+00  0.00000000000E+00  0.45593999997E+02  0.45594000000E+02  0.51100000000E-03 0.  1.
         11   -1    0    0    0    0 -0.00000000000E+00 -0.00000000000E+00 -0.45593999997E+02  0.45594000000E+02  0.51100000000E-03 0. -1.
    9900012    2    1    2    0    0  0.49255278920E+00  0.84269116330E+00  0.66369743516E+00  0.90007647963E+02  0.89999908116E+02 0.  0.
         12    1    1    2    0    0 -0.49255278920E+00 -0.84269116330E+00 -0.66369743516E+00  0.11803520374E+01  0.00000000000E+00 0. -1.
         11    1    3    3    0    0  0.41406660180E+01 -0.42674588644E+02  0.56594543435E+01  0.43246908036E+02  0.51100000000E-03 0. -1.
        -11    1    3    3    0    0 -0.49038639973E+01  0.72142790712E+01  0.35934852870E+01  0.94343437181E+01  0.51100000000E-03 0.  1.
        -12    1    3    3    0    0  0.12557507685E+01  0.36303000736E+02 -0.85892421953E+01  0.37326396208E+02  0.00000000000E+00 0.  1.
</event>
<event>
 7    1  0.3795708E-015  0.9000772E+02  0.7816164E-02  0.1186339E+00
        -11   -1    0    0    0    0  0.00000000000E+00  0.00000000000E+00  0.45593999997E+02  0.45594000000E+02  0.51100000000E-03 0.  1.
         11   -1    0    0    0    0 -0.00000000000E+00 -0.00000000000E+00 -0.45593999997E+02  0.45594000000E+02  0.51100000000E-03 0. -1.
    9900012    2    1    2    0    0  0.90977169151E+00 -0.28406839431E+00  0.69619129179E+00  0.90007719653E+02  0.89999980752E+02 0.  0.
         12    1    1    2    0    0 -0.90977169151E+00  0.28406839431E+00 -0.69619129179E+00  0.11802803472E+01  0.00000000000E+00 0. -1.
         11    1    3    3    0    0 -0.54964244028E+01  0.81297252079E+01  0.26852352822E+01  0.10174163452E+02  0.51100000000E-03 0. -1.
        -11    1    3    3    0    0 -0.23761858587E+02  0.24792167096E+02  0.39964977903E+01  0.34572380127E+02  0.51100000000E-03 0.  1.
         12    1    3    3    0    0  0.30168054681E+02 -0.33205960698E+02 -0.59855417807E+01  0.45261176073E+02  0.00000000000E+00 0. -1.
</event>
<event>
 7    1  0.3795708E-015  0.9000772E+02  0.7816164E-02  0.1186339E+00
        -11   -1    0    0    0    0  0.00000000000E+00  0.00000000000E+00  0.45593999997E+02  0.45594000000E+02  0.51100000000E-03 0. -1.
         11   -1    0    0    0    0 -0.00000000000E+00 -0.00000000000E+00 -0.45593999997E+02  0.45594000000E+02  0.51100000000E-03 0.  1.
    9900012    2    1    2    0    0  0.94601973303E+00 -0.76315445516E-01 -0.70162601979E+00  0.90007721874E+02  0.89999983003E+02 0.  0.
         12    1    1    2    0    0 -0.94601973303E+00  0.76315445516E-01  0.70162601979E+00  0.11802781258E+01  0.00000000000E+00 0. -1.
         11    1    3    3    0    0 -0.31635568440E+02 -0.20866311568E+02  0.13684387910E+02  0.40292364311E+02  0.51100000000E-03 0. -1.
        -11    1    3    3    0    0 -0.30626528666E+01  0.79529288686E+01  0.14656924470E+01  0.86473796483E+01  0.51100000000E-03 0.  1.
        -12    1    3    3    0    0  0.35644241040E+02  0.12837067254E+02 -0.15851706377E+02  0.41067977915E+02  0.00000000000E+00 0.  1.
</event>
<event>
 7    1  0.3795708E-015  0.9000811E+02  0.7816164E-02  0.1186338E+00
        -11   -1    0    0    0    0  0.00000000000E+00  0.00000000000E+00  0.45593999997E+02  0.45594000000E+02  0.51100000000E-03 0. -1.
         11   -1    0    0    0    0 -0.00000000000E+00 -0.00000000000E+00 -0.45593999997E+02  0.45594000000E+02  0.51100000000E-03 0.  1.
    9900012    2    1    2    0    0 -0.33495108118E+00 -0.32665616303E+00 -0.10831638503E+01  0.90008110004E+02  0.90000376255E+02 0.  0.
         12    1    1    2    0    0  0.33495108118E+00  0.32665616303E+00  0.10831638503E+01  0.11798899958E+01  0.00000000000E+00 0. -1.
         11    1    3    3    0    0  0.36572466018E+00 -0.68822308929E+00 -0.41661281049E+01  0.42383993671E+01  0.51100000000E-03 0. -1.
        -11    1    3    3    0    0  0.99553431147E+01 -0.17264684299E+02 -0.36251727260E+02  0.41368658548E+02  0.51100000000E-03 0.  1.
         12    1    3    3    0    0 -0.10656018856E+02  0.17626251225E+02  0.39334691514E+02  0.44401052089E+02  0.00000000000E+00 0. -1.
</event>
<event>
 7    1  0.3795708E-015  0.9000757E+02  0.7816164E-02  0.1186339E+00
        -11   -1    0    0    0    0  0.00000000000E+00  0.00000000000E+00  0.45593999997E+02  0.45594000000E+02  0.51100000000E-03 0.  1.
         11   -1    0    0    0    0 -0.00000000000E+00 -0.00000000000E+00 -0.45593999997E+02  0.45594000000E+02  0.51100000000E-03 0. -1.
    9900012    2    1    2    0    0  0.37612345548E+00  0.79628460346E+00 -0.78605469472E+00  0.90007567873E+02  0.89999826969E+02 0.  0.
         12    1    1    2    0    0 -0.37612345548E+00 -0.79628460346E+00  0.78605469472E+00  0.11804321271E+01  0.00000000000E+00 0. -1.
         11    1    3    3    0    0  0.48103325211E+01 -0.13957950773E+01 -0.78924841126E+01  0.93476654086E+01  0.51100000000E-03 0. -1.
        -11    1    3    3    0    0 -0.41373163689E+02 -0.54294113888E+01  0.97450218787E+01  0.42850701667E+02  0.51100000000E-03 0.  1.
         12    1    3    3    0    0  0.36938954623E+02  0.76214910696E+01 -0.26385924608E+01  0.37809200798E+02  0.00000000000E+00 0. -1.
</event>
<event>
 7    1  0.3795708E-015  0.9000766E+02  0.7816164E-02  0.1186339E+00
        -11   -1    0    0    0    0  0.00000000000E+00  0.00000000000E+00  0.45593999997E+02  0.45594000000E+02  0.51100000000E-03 0.  1.
         11   -1    0    0    0    0 -0.00000000000E+00 -0.00000000000E+00 -0.45593999997E+02  0.45594000000E+02  0.51100000000E-03 0. -1.
    9900012    2    1    2    0    0  0.62485326867E-01  0.51309648729E+00  0.10611465996E+01  0.90007659148E+02  0.89999919449E+02 0.  0.
         12    1    1    2    0    0 -0.62485326867E-01 -0.51309648729E+00 -0.10611465996E+01  0.11803408521E+01  0.00000000000E+00 0. -1.
         11    1    3    3    0    0 -0.93301171791E+01 -0.19037949496E+01 -0.24850377081E+01  0.98412872358E+01  0.51100000000E-03 0. -1.
        -11    1    3    3    0    0 -0.15404822413E+02  0.14466578690E+02  0.33403433430E+02  0.39526950525E+02  0.51100000000E-03 0.  1.
         12    1    3    3    0    0  0.24797424919E+02 -0.12049687253E+02 -0.29857249123E+02  0.40639421387E+02  0.00000000000E+00 0. -1.
</event>
<event>
 7    1  0.3795708E-015  0.9000765E+02  0.7816164E-02  0.1186339E+00
        -11   -1    0    0    0    0  0.00000000000E+00  0.00000000000E+00  0.45593999997E+02  0.45594000000E+02  0.51100000000E-03 0. -1.
         11   -1    0    0    0    0 -0.00000000000E+00 -0.00000000000E+00 -0.45593999997E+02  0.45594000000E+02  0.51100000000E-03 0.  1.
    9900012    2    1    2    0    0  0.99869520050E+00 -0.28078481110E+00  0.56302360257E+00  0.90007649293E+02  0.89999909464E+02 0.  0.
         12    1    1    2    0    0 -0.99869520050E+00  0.28078481110E+00 -0.56302360257E+00  0.11803507067E+01  0.00000000000E+00 0. -1.
         11    1    3    3    0    0  0.50681460332E+01  0.51873625655E+01  0.11503539884E+02  0.13598759676E+02  0.51100000000E-03 0. -1.
        -11    1    3    3    0    0 -0.17037148891E+02 -0.27301975466E+02  0.18824496811E+02  0.37283025456E+02  0.51100000000E-03 0.  1.
         12    1    3    3    0    0  0.12967698058E+02  0.21833828089E+02 -0.29765013093E+02  0.39125864161E+02  0.00000000000E+00 0. -1.
</event>
<event>
 7    1  0.3795708E-015  0.9000787E+02  0.7816164E-02  0.1186339E+00
        -11   -1    0    0    0    0  0.00000000000E+00  0.00000000000E+00  0.45593999997E+02  0.45594000000E+02  0.51100000000E-03 0.  1.
         11   -1    0    0    0    0 -0.00000000000E+00 -0.00000000000E+00 -0.45593999997E+02  0.45594000000E+02  0.51100000000E-03 0. -1.
    9900012    2    1    2    0    0 -0.42003430132E+00 -0.95580596686E+00 -0.55020055053E+00  0.90007866742E+02  0.90000129783E+02 0.  0.
         12    1    1    2    0    0  0.42003430132E+00  0.95580596686E+00  0.55020055053E+00  0.11801332579E+01  0.00000000000E+00 0. -1.
         11    1    3    3    0    0 -0.26111234931E+01  0.65646909260E+01 -0.52173770543E+01  0.87826053332E+01  0.51100000000E-03 0. -1.
        -11    1    3    3    0    0 -0.10159069681E+02  0.21512092436E+02  0.31730080986E+02  0.39658225596E+02  0.51100000000E-03 0.  1.
         12    1    3    3    0    0  0.12350158873E+02 -0.29032589328E+02 -0.27062904482E+02  0.41567035813E+02  0.00000000000E+00 0. -1.
</event>
<event>
 7    1  0.3795708E-015  0.9000779E+02  0.7816164E-02  0.1186339E+00
        -11   -1    0    0    0    0  0.00000000000E+00  0.00000000000E+00  0.45593999997E+02  0.45594000000E+02  0.51100000000E-03 0.  1.
         11   -1    0    0    0    0 -0.00000000000E+00 -0.00000000000E+00 -0.45593999997E+02  0.45594000000E+02  0.51100000000E-03 0. -1.
    9900012    2    1    2    0    0  0.20389311347E+00 -0.65049362715E+00  0.96342454376E+00  0.90007787641E+02  0.90000049638E+02 0.  0.
         12    1    1    2    0    0 -0.20389311347E+00  0.65049362715E+00 -0.96342454376E+00  0.11802123589E+01  0.00000000000E+00 0. -1.
         11    1    3    3    0    0  0.82627649795E+01 -0.28617772384E+02  0.59419143613E+01  0.30373615653E+02  0.51100000000E-03 0. -1.
        -11    1    3    3    0    0 -0.18773372525E+02  0.17215396000E+01  0.15709467922E+02  0.24539572066E+02  0.51100000000E-03 0.  1.
        -12    1    3    3    0    0  0.10714500659E+02  0.26245739157E+02 -0.20687957739E+02  0.35094599922E+02  0.00000000000E+00 0.  1.
</event>
<event>
 7    1  0.3795708E-015  0.9000770E+02  0.7816164E-02  0.1186339E+00
        -11   -1    0    0    0    0  0.00000000000E+00  0.00000000000E+00  0.45593999997E+02  0.45594000000E+02  0.51100000000E-03 0.  1.
         11   -1    0    0    0    0 -0.00000000000E+00 -0.00000000000E+00 -0.45593999997E+02  0.45594000000E+02  0.51100000000E-03 0. -1.
    9900012    2    1    2    0    0  0.99566820770E+00 -0.62803344006E+00 -0.85644973981E-01  0.90007696546E+02  0.89999957341E+02 0.  0.
         12    1    1    2    0    0 -0.99566820770E+00  0.62803344006E+00  0.85644973981E-01  0.11803034539E+01  0.00000000000E+00 0. -1.
         11    1    3    3    0    0  0.80948586011E+01 -0.38650789939E+01 -0.20164695807E+01  0.91941134011E+01  0.51100000000E-03 0. -1.
        -11    1    3    3    0    0  0.26882431714E+02  0.23083614978E+02  0.16190423896E+02  0.38957005038E+02  0.51100000000E-03 0.  1.
         12    1    3    3    0    0 -0.33981622107E+02 -0.19846569424E+02 -0.14259599290E+02  0.41856578107E+02  0.00000000000E+00 0. -1.
</event>
<event>
 7    1  0.3795708E-015  0.9000775E+02  0.7816164E-02  0.1186339E+00
        -11   -1    0    0    0    0  0.00000000000E+00  0.00000000000E+00  0.45593999997E+02  0.45594000000E+02  0.51100000000E-03 0. -1.
         11   -1    0    0    0    0 -0.00000000000E+00 -0.00000000000E+00 -0.45593999997E+02  0.45594000000E+02  0.51100000000E-03 0.  1.
    9900012    2    1    2    0    0  0.41215044554E+00 -0.98106281490E+00 -0.51053383881E+00  0.90007747045E+02  0.90000008506E+02 0.  0.
         12    1    1    2    0    0 -0.41215044554E+00  0.98106281490E+00  0.51053383881E+00  0.11802529547E+01  0.00000000000E+00 0. -1.
         11    1    3    3    0    0  0.51919136438E+01 -0.92966325533E+01  0.39705310159E+01  0.11364350440E+02  0.51100000000E-03 0. -1.
        -11    1    3    3    0    0  0.26864742405E+02  0.24748326621E+02 -0.17733019413E+02  0.40603620932E+02  0.51100000000E-03 0.  1.
         12    1    3    3    0    0 -0.31644505603E+02 -0.16432756883E+02  0.13251954558E+02  0.38039775673E+02  0.00000000000E+00 0. -1.
</event>
<event>
 7    1  0.3795708E-015  0.9000780E+02  0.7816164E-02  0.1186339E+00
        -11   -1    0    0    0    0  0.00000000000E+00  0.00000000000E+00  0.45593999997E+02  0.45594000000E+02  0.51100000000E-03 0.  1.
         11   -1    0    0    0    0 -0.00000000000E+00 -0.00000000000E+00 -0.45593999997E+02  0.45594000000E+02  0.51100000000E-03 0. -1.
    9900012    2    1    2    0    0  0.32703791929E+00  0.41792725141E+00  0.10541602403E+01  0.90007800525E+02  0.90000062692E+02 0.  0.
         12    1    1    2    0    0 -0.32703791929E+00 -0.41792725141E+00 -0.10541602403E+01  0.11801994748E+01  0.00000000000E+00 0. -1.
         11    1    3    3    0    0  0.29782871344E+02 -0.12669832547E+02  0.19734316516E+02  0.37907615737E+02  0.51100000000E-03 0. -1.
        -11    1    3    3    0    0  0.77222100421E+01  0.51021581444E+01  0.95378067087E+00  0.93045281178E+01  0.51100000000E-03 0.  1.
        -12    1    3    3    0    0 -0.37178043467E+02  0.79856016539E+01 -0.19633936947E+02  0.42795656670E+02  0.00000000000E+00 0.  1.
</event>
<event>
 7    1  0.3795708E-015  0.9000756E+02  0.7816164E-02  0.1186339E+00
        -11   -1    0    0    0    0  0.00000000000E+00  0.00000000000E+00  0.45593999997E+02  0.45594000000E+02  0.51100000000E-03 0.  1.
         11   -1    0    0    0    0 -0.00000000000E+00 -0.00000000000E+00 -0.45593999997E+02  0.45594000000E+02  0.51100000000E-03 0. -1.
    9900012    2    1    2    0    0  0.10460137413E+01 -0.87464925051E-01  0.54003300764E+00  0.90007563424E+02  0.89999822461E+02 0.  0.
         12    1    1    2    0    0 -0.10460137413E+01  0.87464925051E-01 -0.54003300764E+00  0.11804365758E+01  0.00000000000E+00 0. -1.
         11    1    3    3    0    0 -0.10405964510E+02 -0.83149520430E+01  0.81863081924E+01  0.15634518443E+02  0.51100000000E-03 0. -1.
        -11    1    3    3    0    0 -0.68919593586E+01 -0.13540696587E+00  0.30477295924E+02  0.31247127963E+02  0.51100000000E-03 0.  1.
         12    1    3    3    0    0  0.18343937610E+02  0.83628940838E+01 -0.38123571109E+02  0.43125917018E+02  0.00000000000E+00 0. -1.
</event>
<event>
 7    1  0.3795708E-015  0.9000762E+02  0.7816164E-02  0.1186339E+00
        -11   -1    0    0    0    0  0.00000000000E+00  0.00000000000E+00  0.45593999997E+02  0.45594000000E+02  0.51100000000E-03 0. -1.
         11   -1    0    0    0    0 -0.00000000000E+00 -0.00000000000E+00 -0.45593999997E+02  0.45594000000E+02  0.51100000000E-03 0.  1.
    9900012    2    1    2    0    0  0.93418245314E+00  0.25250672174E+00 -0.67590443876E+00  0.90007617303E+02  0.89999877052E+02 0.  0.
         12    1    1    2    0    0 -0.93418245314E+00 -0.25250672174E+00  0.67590443876E+00  0.11803826967E+01  0.00000000000E+00 0. -1.
         11    1    3    3    0    0  0.44746985683E+01  0.45861916684E+01 -0.12206473966E+02  0.13786010599E+02  0.51100000000E-03 0. -1.
        -11    1    3    3    0    0 -0.30277547169E+02  0.19432074749E+02  0.17411704776E+02  0.39968773500E+02  0.51100000000E-03 0.  1.
         12    1    3    3    0    0  0.26737031054E+02 -0.23765759695E+02 -0.58811352488E+01  0.36252833204E+02  0.00000000000E+00 0. -1.
</event>
<event>
 7    1  0.3795708E-015  0.9000767E+02  0.7816164E-02  0.1186339E+00
        -11   -1    0    0    0    0  0.00000000000E+00  0.00000000000E+00  0.45593999997E+02  0.45594000000E+02  0.51100000000E-03 0.  1.
         11   -1    0    0    0    0 -0.00000000000E+00 -0.00000000000E+00 -0.45593999997E+02  0.45594000000E+02  0.51100000000E-03 0. -1.
    9900012    2    1    2    0    0 -0.11383926667E+01 -0.28693618818E+00 -0.12210367401E+00  0.90007669730E+02  0.89999930170E+02 0.  0.
         12    1    1    2    0    0  0.11383926667E+01  0.28693618818E+00  0.12210367401E+00  0.11803302703E+01  0.00000000000E+00 0. -1.
         11    1    3    3    0    0 -0.15914194040E+00 -0.45951427041E+01 -0.57280361439E+01  0.73451385933E+01  0.51100000000E-03 0. -1.
        -11    1    3    3    0    0 -0.37725297283E+02 -0.12466405185E+02 -0.70080036637E+01  0.40345029792E+02  0.51100000000E-03 0.  1.
         12    1    3    3    0    0  0.36746046556E+02  0.16774611701E+02  0.12613936134E+02  0.42317501344E+02  0.00000000000E+00 0. -1.
</event>
<event>
 7    1  0.3795708E-015  0.9000771E+02  0.7816164E-02  0.1186339E+00
        -11   -1    0    0    0    0  0.00000000000E+00  0.00000000000E+00  0.45593999997E+02  0.45594000000E+02  0.51100000000E-03 0.  1.
         11   -1    0    0    0    0 -0.00000000000E+00 -0.00000000000E+00 -0.45593999997E+02  0.45594000000E+02  0.51100000000E-03 0. -1.
    9900012    2    1    2    0    0  0.94164409328E+00 -0.50648162764E+00  0.49987611653E+00  0.90007706236E+02  0.89999967158E+02 0.  0.
         12    1    1    2    0    0 -0.94164409328E+00  0.50648162764E+00 -0.49987611653E+00  0.11802937640E+01  0.00000000000E+00 0. -1.
         11    1    3    3    0    0 -0.25338080173E+02 -0.13608236470E+02 -0.18703852529E+02  0.34307965640E+02  0.51100000000E-03 0. -1.
        -11    1    3    3    0    0 -0.45207053165E+01 -0.76839503062E+01 -0.60484708686E+01  0.10773294249E+02  0.51100000000E-03 0.  1.
        -12    1    3    3    0    0  0.30800429583E+02  0.20785705148E+02  0.25252199514E+02  0.44926446347E+02  0.00000000000E+00 0.  1.
</event>
<event>
 7    1  0.3795708E-015  0.9000770E+02  0.7816164E-02  0.1186339E+00
        -11   -1    0    0    0    0  0.00000000000E+00  0.00000000000E+00  0.45593999997E+02  0.45594000000E+02  0.51100000000E-03 0. -1.
         11   -1    0    0    0    0 -0.00000000000E+00 -0.00000000000E+00 -0.45593999997E+02  0.45594000000E+02  0.51100000000E-03 0.  1.
    9900012    2    1    2    0    0  0.31726412690E+00  0.35342417843E+00 -0.10805338564E+01  0.90007695552E+02  0.89999956333E+02 0.  0.
         12    1    1    2    0    0 -0.31726412690E+00 -0.35342417843E+00  0.10805338564E+01  0.11803044484E+01  0.00000000000E+00 0. -1.
         11    1    3    3    0    0 -0.19561571250E+00 -0.25212241831E+02 -0.28699691072E+02  0.38201671057E+02  0.51100000000E-03 0. -1.
        -11    1    3    3    0    0  0.80696075491E+01 -0.65388331543E+01  0.35525046639E+01  0.10977030321E+02  0.51100000000E-03 0.  1.
        -12    1    3    3    0    0 -0.75567277097E+01  0.32104499164E+02  0.24066652551E+02  0.40828994174E+02  0.00000000000E+00 0.  1.
</event>
<event>
 7    1  0.3795708E-015  0.9000773E+02  0.7816164E-02  0.1186339E+00
        -11   -1    0    0    0    0  0.00000000000E+00  0.00000000000E+00  0.45593999997E+02  0.45594000000E+02  0.51100000000E-03 0. -1.
         11   -1    0    0    0    0 -0.00000000000E+00 -0.00000000000E+00 -0.45593999997E+02  0.45594000000E+02  0.51100000000E-03 0.  1.
    9900012    2    1    2    0    0 -0.24334269646E+00 -0.12902733642E+00 -0.11476869421E+01  0.90007725016E+02  0.89999986186E+02 0.  0.
         12    1    1    2    0    0  0.24334269646E+00  0.12902733642E+00  0.11476869421E+01  0.11802749843E+01  0.00000000000E+00 0. -1.
         11    1    3    3    0    0  0.63294429964E+01 -0.60855294717E+01 -0.31931499761E+00  0.87862096449E+01  0.51100000000E-03 0. -1.
        -11    1    3    3    0    0  0.81440495599E+01 -0.35665716209E+02 -0.47933308707E+01  0.36896407373E+02  0.51100000000E-03 0.  1.
         12    1    3    3    0    0 -0.14716835253E+02  0.41622218344E+02  0.39649589262E+01  0.44325107998E+02  0.00000000000E+00 0. -1.
</event>
<event>
 7    1  0.3795708E-015  0.9000759E+02  0.7816164E-02  0.1186339E+00
        -11   -1    0    0    0    0  0.00000000000E+00  0.00000000000E+00  0.45593999997E+02  0.45594000000E+02  0.51100000000E-03 0.  1.
         11   -1    0    0    0    0 -0.00000000000E+00 -0.00000000000E+00 -0.45593999997E+02  0.45594000000E+02  0.51100000000E-03 0. -1.
    9900012    2    1    2    0    0 -0.39875978673E+00 -0.21000254905E+00  0.10909869966E+01  0.90007591992E+02  0.89999851406E+02 0.  0.
         12    1    1    2    0    0  0.39875978673E+00  0.21000254905E+00 -0.10909869966E+01  0.11804080078E+01  0.00000000000E+00 0. -1.
         11    1    3    3    0    0 -0.76282919395E+01 -0.29985923017E+01  0.50683407598E+01  0.96369327083E+01  0.51100000000E-03 0. -1.
        -11    1    3    3    0    0  0.89542891581E+01 -0.17540554933E+01  0.37507908173E+02  0.38601802818E+02  0.51100000000E-03 0.  1.
         12    1    3    3    0    0 -0.17247570053E+01  0.45426452460E+01 -0.41485261936E+02  0.41768856466E+02  0.00000000000E+00 0. -1.
</event>
<event>
 7    1  0.3795708E-015  0.9000780E+02  0.7816164E-02  0.1186339E+00
        -11   -1    0    0    0    0  0.00000000000E+00  0.00000000000E+00  0.45593999997E+02  0.45594000000E+02  0.51100000000E-03 0.  1.
         11   -1    0    0    0    0 -0.00000000000E+00 -0.00000000000E+00 -0.45593999997E+02  0.45594000000E+02  0.51100000000E-03 0. -1.
    9900012    2    1    2    0    0  0.80817938403E+00  0.26321369795E+00 -0.81880304843E+00  0.90007799255E+02  0.90000061405E+02 0.  0.
         12    1    1    2    0    0 -0.80817938403E+00 -0.26321369795E+00  0.81880304843E+00  0.11802007455E+01  0.00000000000E+00 0. -1.
         11    1    3    3    0    0  0.50395162065E+01  0.75645094008E+01 -0.43777665716E+01  0.10088774281E+02  0.51100000000E-03 0. -1.
        -11    1    3    3    0    0  0.32103308312E+02 -0.64645041158E+01 -0.18293687239E+02  0.37510947883E+02  0.51100000000E-03 0.  1.
         12    1    3    3    0    0 -0.36334645134E+02 -0.83679158709E+00  0.21852650762E+02  0.42408077091E+02  0.00000000000E+00 0. -1.
</event>
<event>
 7    1  0.3795708E-015  0.9000779E+02  0.7816164E-02  0.1186339E+00
        -11   -1    0    0    0    0  0.00000000000E+00  0.00000000000E+00  0.45593999997E+02  0.45594000000E+02  0.51100000000E-03 0.  1.
         11   -1    0    0    0    0 -0.00000000000E+00 -0.00000000000E+00 -0.45593999997E+02  0.45594000000E+02  0.51100000000E-03 0. -1.
    9900012    2    1    2    0    0 -0.70010748775E+00 -0.12589720914E+00  0.94174966948E+00  0.90007791103E+02  0.90000053145E+02 0.  0.
         12    1    1    2    0    0  0.70010748775E+00  0.12589720914E+00 -0.94174966948E+00  0.11802088975E+01  0.00000000000E+00 0. -1.
         11    1    3    3    0    0 -0.13493714072E+01  0.74274840562E+01  0.52336047926E+01  0.91858011075E+01  0.51100000000E-03 0. -1.
        -11    1    3    3    0    0 -0.28483786994E+02  0.13585385216E+02  0.20032886057E+02  0.37379209957E+02  0.51100000000E-03 0.  1.
         12    1    3    3    0    0  0.29133050914E+02 -0.21138766482E+02 -0.24324741180E+02  0.43442780038E+02  0.00000000000E+00 0. -1.
</event>
<event>
 7    1  0.3795708E-015  0.9000765E+02  0.7816164E-02  0.1186339E+00
        -11   -1    0    0    0    0  0.00000000000E+00  0.00000000000E+00  0.45593999997E+02  0.45594000000E+02  0.51100000000E-03 0. -1.
         11   -1    0    0    0    0 -0.00000000000E+00 -0.00000000000E+00 -0.45593999997E+02  0.45594000000E+02  0.51100000000E-03 0.  1.
    9900012    2    1    2    0    0 -0.16650619501E+00  0.11129284375E+01 -0.35621285145E+00  0.90007651909E+02  0.89999912114E+02 0.  0.
         12    1    1    2    0    0  0.16650619501E+00 -0.11129284375E+01  0.35621285145E+00  0.11803480909E+01  0.00000000000E+00 0. -1.
         11    1    3    3    0    0 -0.24256319993E+01  0.42894416643E+01  0.84067525821E+01  0.97445620541E+01  0.51100000000E-03 0. -1.
        -11    1    3    3    0    0  0.30071922879E+01  0.18284450842E+02 -0.38998994746E+02  0.43177377636E+02  0.51100000000E-03 0.  1.
         12    1    3    3    0    0 -0.74806648363E+00 -0.21460964068E+02  0.30236029313E+02  0.37085712219E+02  0.00000000000E+00 0. -1.
</event>
<event>
 7    1  0.3795708E-015  0.9000776E+02  0.7816164E-02  0.1186339E+00
        -11   -1    0    0    0    0  0.00000000000E+00  0.00000000000E+00  0.45593999997E+02  0.45594000000E+02  0.51100000000E-03 0.  1.
         11   -1    0    0    0    0 -0.00000000000E+00 -0.00000000000E+00 -0.45593999997E+02  0.45594000000E+02  0.51100000000E-03 0. -1.
    9900012    2    1    2    0    0 -0.86637968874E-01  0.55051176882E-01  0.11757637377E+01  0.90007763949E+02  0.90000025633E+02 0.  0.
         12    1    1    2    0    0  0.86637968874E-01 -0.55051176882E-01 -0.11757637377E+01  0.11802360512E+01  0.00000000000E+00 0. -1.
         11    1    3    3    0    0 -0.14065604223E+02  0.36860691310E+02  0.10640528879E+02  0.40862851603E+02  0.51100000000E-03 0. -1.
        -11    1    3    3    0    0 -0.72865742332E+01 -0.26805355146E+01 -0.34217502674E+01  0.84845630327E+01  0.51100000000E-03 0.  1.
        -12    1    3    3    0    0  0.21265540488E+02 -0.34125104619E+02 -0.60430148740E+01  0.40660349313E+02  0.00000000000E+00 0.  1.
</event>
<event>
 7    1  0.3795708E-015  0.9000775E+02  0.7816164E-02  0.1186339E+00
        -11   -1    0    0    0    0  0.00000000000E+00  0.00000000000E+00  0.45593999997E+02  0.45594000000E+02  0.51100000000E-03 0.  1.
         11   -1    0    0    0    0 -0.00000000000E+00 -0.00000000000E+00 -0.45593999997E+02  0.45594000000E+02  0.51100000000E-03 0. -1.
    9900012    2    1    2    0    0 -0.11455274301E+01 -0.28361316774E+00  0.18048575027E-01  0.90007747793E+02  0.90000009263E+02 0.  0.
         12    1    1    2    0    0  0.11455274301E+01  0.28361316774E+00 -0.18048575027E-01  0.11802522074E+01  0.00000000000E+00 0. -1.
         11    1    3    3    0    0 -0.25689703329E+02  0.20437828848E+02 -0.24353984630E+02  0.40875203642E+02  0.51100000000E-03 0. -1.
        -11    1    3    3    0    0 -0.27891232279E+01  0.13599783527E+01 -0.32079590739E+01  0.44631548463E+01  0.51100000000E-03 0.  1.
        -12    1    3    3    0    0  0.27333299127E+02 -0.22081420369E+02  0.27579992279E+02  0.44669389304E+02  0.00000000000E+00 0.  1.
</event>
<event>
 7    1  0.3795708E-015  0.9000770E+02  0.7816164E-02  0.1186339E+00
        -11   -1    0    0    0    0  0.00000000000E+00  0.00000000000E+00  0.45593999997E+02  0.45594000000E+02  0.51100000000E-03 0.  1.
         11   -1    0    0    0    0 -0.00000000000E+00 -0.00000000000E+00 -0.45593999997E+02  0.45594000000E+02  0.51100000000E-03 0. -1.
    9900012    2    1    2    0    0  0.47184360431E+00 -0.34917288908E+00  0.10239899357E+01  0.90007697716E+02  0.89999958526E+02 0.  0.
         12    1    1    2    0    0 -0.47184360431E+00  0.34917288908E+00 -0.10239899357E+01  0.11803022841E+01  0.00000000000E+00 0. -1.
         11    1    3    3    0    0 -0.39033258903E+01 -0.11250210748E+02  0.18974314143E+01  0.12058334923E+02  0.51100000000E-03 0. -1.
        -11    1    3    3    0    0 -0.13258788629E+02  0.39285788818E+02 -0.11244723700E+02  0.42960592294E+02  0.51100000000E-03 0.  1.
         12    1    3    3    0    0  0.17633958124E+02 -0.28384750959E+02  0.10371282221E+02  0.34988770499E+02  0.00000000000E+00 0. -1.
</event>
<event>
 7    1  0.3795708E-015  0.9000760E+02  0.7816164E-02  0.1186339E+00
        -11   -1    0    0    0    0  0.00000000000E+00  0.00000000000E+00  0.45593999997E+02  0.45594000000E+02  0.51100000000E-03 0.  1.
         11   -1    0    0    0    0 -0.00000000000E+00 -0.00000000000E+00 -0.45593999997E+02  0.45594000000E+02  0.51100000000E-03 0. -1.
    9900012    2    1    2    0    0 -0.43301879644E+00  0.36240539853E+00  0.10365853447E+01  0.90007596625E+02  0.89999856100E+02 0.  0.
         12    1    1    2    0    0  0.43301879644E+00 -0.36240539853E+00 -0.10365853447E+01  0.11804033751E+01  0.00000000000E+00 0. -1.
         11    1    3    3    0    0 -0.46132732385E+01 -0.79685589541E+01  0.22953259974E+02  0.24731202265E+02  0.51100000000E-03 0. -1.
        -11    1    3    3    0    0 -0.15166390757E+02 -0.44586013110E+01  0.14926422047E+02  0.21741587101E+02  0.51100000000E-03 0.  1.
         12    1    3    3    0    0  0.19346645199E+02  0.12789565664E+02 -0.36843096677E+02  0.43534807259E+02  0.00000000000E+00 0. -1.
</event>
<event>
 7    1  0.3795708E-015  0.9000778E+02  0.7816164E-02  0.1186339E+00
        -11   -1    0    0    0    0  0.00000000000E+00  0.00000000000E+00  0.45593999997E+02  0.45594000000E+02  0.51100000000E-03 0.  1.
         11   -1    0    0    0    0 -0.00000000000E+00 -0.00000000000E+00 -0.45593999997E+02  0.45594000000E+02  0.51100000000E-03 0. -1.
    9900012    2    1    2    0    0 -0.10573925524E+01 -0.26754611042E+00  0.45085582767E+00  0.90007775060E+02  0.90000036891E+02 0.  0.
         12    1    1    2    0    0  0.10573925524E+01  0.26754611042E+00 -0.45085582767E+00  0.11802249397E+01  0.00000000000E+00 0. -1.
         11    1    3    3    0    0 -0.24309877311E+02  0.21115343177E+01 -0.30096261689E+02  0.38745498835E+02  0.51100000000E-03 0. -1.
        -11    1    3    3    0    0 -0.80879039105E+01 -0.48993443015E+01  0.46966005542E+01  0.10558211083E+02  0.51100000000E-03 0.  1.
        -12    1    3    3    0    0  0.31340388669E+02  0.25202638734E+01  0.25850516962E+02  0.40704065142E+02  0.00000000000E+00 0.  1.
</event>
<event>
 7    1  0.3795708E-015  0.9000767E+02  0.7816164E-02  0.1186339E+00
        -11   -1    0    0    0    0  0.00000000000E+00  0.00000000000E+00  0.45593999997E+02  0.45594000000E+02  0.51100000000E-03 0. -1.
         11   -1    0    0    0    0 -0.00000000000E+00 -0.00000000000E+00 -0.45593999997E+02  0.45594000000E+02  0.51100000000E-03 0.  1.
    9900012    2    1    2    0    0  0.72280108927E+00  0.91117864580E+00  0.20120795773E+00  0.90007672680E+02  0.89999933160E+02 0.  0.
         12    1    1    2    0    0 -0.72280108927E+00 -0.91117864580E+00 -0.20120795773E+00  0.11803273196E+01  0.00000000000E+00 0. -1.
         11    1    3    3    0    0 -0.35424106855E+01 -0.76918422391E+01 -0.41553426692E+01  0.94329201977E+01  0.51100000000E-03 0. -1.
        -11    1    3    3    0    0 -0.93674937015E+01  0.15817306993E+02 -0.34321597711E+02  0.38934678738E+02  0.51100000000E-03 0.  1.
         12    1    3    3    0    0  0.13632705476E+02 -0.72142861077E+01  0.38678148338E+02  0.41640073745E+02  0.00000000000E+00 0. -1.
</event>
<event>
 7    1  0.3795708E-015  0.9000778E+02  0.7816164E-02  0.1186339E+00
        -11   -1    0    0    0    0  0.00000000000E+00  0.00000000000E+00  0.45593999997E+02  0.45594000000E+02  0.51100000000E-03 0.  1.
         11   -1    0    0    0    0 -0.00000000000E+00 -0.00000000000E+00 -0.45593999997E+02  0.45594000000E+02  0.51100000000E-03 0. -1.
    9900012    2    1    2    0    0  0.25161682294E-01 -0.68871741122E+00  0.95809799157E+00  0.90007781146E+02  0.90000043057E+02 0.  0.
         12    1    1    2    0    0 -0.25161682294E-01  0.68871741122E+00 -0.95809799157E+00  0.11802188544E+01  0.00000000000E+00 0. -1.
         11    1    3    3    0    0 -0.46636793684E+01 -0.84281221187E+01 -0.13362116289E+02  0.16472076362E+02  0.51100000000E-03 0. -1.
        -11    1    3    3    0    0 -0.16421953958E+02  0.27763802178E+02  0.26739690071E+02  0.41898929682E+02  0.51100000000E-03 0.  1.
         12    1    3    3    0    0  0.21110795008E+02 -0.20024397470E+02 -0.12419475790E+02  0.31636775102E+02  0.00000000000E+00 0. -1.
</event>
<event>
 7    1  0.3795708E-015  0.9000773E+02  0.7816164E-02  0.1186339E+00
        -11   -1    0    0    0    0  0.00000000000E+00  0.00000000000E+00  0.45593999997E+02  0.45594000000E+02  0.51100000000E-03 0.  1.
         11   -1    0    0    0    0 -0.00000000000E+00 -0.00000000000E+00 -0.45593999997E+02  0.45594000000E+02  0.51100000000E-03 0. -1.
    9900012    2    1    2    0    0  0.48208045345E+00 -0.10579020254E+01 -0.20367119655E+00  0.90007728754E+02  0.89999989973E+02 0.  0.
         12    1    1    2    0    0 -0.48208045345E+00  0.10579020254E+01  0.20367119655E+00  0.11802712465E+01  0.00000000000E+00 0. -1.
         11    1    3    3    0    0 -0.16675506518E+02 -0.28837854883E+02 -0.17145412269E+02  0.37465444800E+02  0.51100000000E-03 0. -1.
        -11    1    3    3    0    0  0.89830746553E+00 -0.21642538797E+01 -0.92645910985E+01  0.95563381921E+01  0.51100000000E-03 0.  1.
        -12    1    3    3    0    0  0.16259279506E+02  0.29944206737E+02  0.26206332171E+02  0.42985945762E+02  0.00000000000E+00 0.  1.
</event>
<event>
 7    1  0.3795708E-015  0.9000774E+02  0.7816164E-02  0.1186339E+00
        -11   -1    0    0    0    0  0.00000000000E+00  0.00000000000E+00  0.45593999997E+02  0.45594000000E+02  0.51100000000E-03 0.  1.
         11   -1    0    0    0    0 -0.00000000000E+00 -0.00000000000E+00 -0.45593999997E+02  0.45594000000E+02  0.51100000000E-03 0. -1.
    9900012    2    1    2    0    0 -0.66891365887E+00 -0.93817669643E+00 -0.25572185322E+00  0.90007739578E+02  0.90000000941E+02 0.  0.
         12    1    1    2    0    0  0.66891365887E+00  0.93817669643E+00  0.25572185322E+00  0.11802604217E+01  0.00000000000E+00 0. -1.
         11    1    3    3    0    0  0.20405933526E+02 -0.29546562100E+02 -0.18938059100E+02  0.40596201026E+02  0.51100000000E-03 0. -1.
        -11    1    3    3    0    0  0.17393380108E+01  0.43088509149E+00  0.12506031328E+02  0.12633755519E+02  0.51100000000E-03 0.  1.
        -12    1    3    3    0    0 -0.22814185196E+02  0.28177500312E+02  0.61763059187E+01  0.36777783033E+02  0.00000000000E+00 0.  1.
</event>
<event>
 7    1  0.3795708E-015  0.9000775E+02  0.7816164E-02  0.1186339E+00
        -11   -1    0    0    0    0  0.00000000000E+00  0.00000000000E+00  0.45593999997E+02  0.45594000000E+02  0.51100000000E-03 0. -1.
         11   -1    0    0    0    0 -0.00000000000E+00 -0.00000000000E+00 -0.45593999997E+02  0.45594000000E+02  0.51100000000E-03 0.  1.
    9900012    2    1    2    0    0  0.11201369217E+01  0.87168161787E-01 -0.36148836266E+00  0.90007754751E+02  0.90000016314E+02 0.  0.
         12    1    1    2    0    0 -0.11201369217E+01 -0.87168161787E-01  0.36148836266E+00  0.11802452492E+01  0.00000000000E+00 0. -1.
         11    1    3    3    0    0 -0.22147479749E+00  0.94548722255E+00  0.10164333265E+02  0.10210615464E+02  0.51100000000E-03 0. -1.
        -11    1    3    3    0    0  0.32915025382E+02 -0.12665004140E+01  0.17744512457E+02  0.37414845206E+02  0.51100000000E-03 0.  1.
         12    1    3    3    0    0 -0.31573413663E+02  0.40818135320E+00 -0.28270334084E+02  0.42382294081E+02  0.00000000000E+00 0. -1.
</event>
<event>
 7    1  0.3795708E-015  0.9000774E+02  0.7816164E-02  0.1186339E+00
        -11   -1    0    0    0    0  0.00000000000E+00  0.00000000000E+00  0.45593999997E+02  0.45594000000E+02  0.51100000000E-03 0.  1.
         11   -1    0    0    0    0 -0.00000000000E+00 -0.00000000000E+00 -0.45593999997E+02  0.45594000000E+02  0.51100000000E-03 0. -1.
    9900012    2    1    2    0    0 -0.91751677163E+00 -0.55359786856E+00  0.49468950078E+00  0.90007735060E+02  0.89999996363E+02 0.  0.
         12    1    1    2    0    0  0.91751677163E+00  0.55359786856E+00 -0.49468950078E+00  0.11802649400E+01  0.00000000000E+00 0. -1.
         11    1    3    3    0    0  0.48746930898E+01 -0.64060778290E+01  0.54049964808E+01  0.96961050473E+01  0.51100000000E-03 0. -1.
        -11    1    3    3    0    0  0.21419786919E+02 -0.19271060696E+02  0.20530599846E+02  0.35379182895E+02  0.51100000000E-03 0.  1.
         12    1    3    3    0    0 -0.27211996780E+02  0.25123540657E+02 -0.25440906826E+02  0.44932447118E+02  0.00000000000E+00 0. -1.
</event>
<event>
 7    1  0.3795708E-015  0.9000781E+02  0.7816164E-02  0.1186339E+00
        -11   -1    0    0    0    0  0.00000000000E+00  0.00000000000E+00  0.45593999997E+02  0.45594000000E+02  0.51100000000E-03 0. -1.
         11   -1    0    0    0    0 -0.00000000000E+00 -0.00000000000E+00 -0.45593999997E+02  0.45594000000E+02  0.51100000000E-03 0.  1.
    9900012    2    1    2    0    0 -0.29027855438E+00 -0.11434019540E+01 -0.34941370724E-01  0.90007809097E+02  0.90000071377E+02 0.  0.
         12    1    1    2    0    0  0.29027855438E+00  0.11434019540E+01  0.34941370724E-01  0.11801909028E+01  0.00000000000E+00 0. -1.
         11    1    3    3    0    0 -0.13508445784E+01  0.83499723374E+01  0.38455464637E+02  0.39374732758E+02  0.51100000000E-03 0. -1.
        -11    1    3    3    0    0  0.10838325383E+02 -0.25984262270E+00 -0.10993623561E+01  0.10897036897E+02  0.51100000000E-03 0.  1.
        -12    1    3    3    0    0 -0.97777593589E+01 -0.92335316687E+01 -0.37391043651E+02  0.39736039441E+02  0.00000000000E+00 0.  1.
</event>
<event>
 7    1  0.3795708E-015  0.9000776E+02  0.7816164E-02  0.1186339E+00
        -11   -1    0    0    0    0  0.00000000000E+00  0.00000000000E+00  0.45593999997E+02  0.45594000000E+02  0.51100000000E-03 0.  1.
         11   -1    0    0    0    0 -0.00000000000E+00 -0.00000000000E+00 -0.45593999997E+02  0.45594000000E+02  0.51100000000E-03 0. -1.
    9900012    2    1    2    0    0  0.13079165127E+00  0.56222101686E+00  0.10294550677E+01  0.90007755676E+02  0.90000017251E+02 0.  0.
         12    1    1    2    0    0 -0.13079165127E+00 -0.56222101686E+00 -0.10294550677E+01  0.11802443240E+01  0.00000000000E+00 0. -1.
         11    1    3    3    0    0 -0.60373701202E+01  0.35566020940E+02  0.73532034204E+01  0.36816589797E+02  0.51100000000E-03 0. -1.
        -11    1    3    3    0    0 -0.75828443007E+01  0.56415865587E+01 -0.38689269440E+01  0.10212522830E+02  0.51100000000E-03 0.  1.
        -12    1    3    3    0    0  0.13751006072E+02 -0.40645386482E+02 -0.24548214086E+01  0.42978643050E+02  0.00000000000E+00 0.  1.
</event>
<event>
 7    1  0.3795708E-015  0.9000769E+02  0.7816164E-02  0.1186339E+00
        -11   -1    0    0    0    0  0.00000000000E+00  0.00000000000E+00  0.45593999997E+02  0.45594000000E+02  0.51100000000E-03 0. -1.
         11   -1    0    0    0    0 -0.00000000000E+00 -0.00000000000E+00 -0.45593999997E+02  0.45594000000E+02  0.51100000000E-03 0.  1.
    9900012    2    1    2    0    0  0.30616225925E+00  0.72733071110E+00 -0.87771157055E+00  0.90007693729E+02  0.89999954486E+02 0.  0.
         12    1    1    2    0    0 -0.30616225925E+00 -0.72733071110E+00  0.87771157055E+00  0.11803062710E+01  0.00000000000E+00 0. -1.
         11    1    3    3    0    0 -0.18069006079E+02  0.23817255834E+02  0.28650800531E+02  0.41407958504E+02  0.51100000000E-03 0. -1.
        -11    1    3    3    0    0 -0.55972888412E+01 -0.94548972443E+00 -0.66534109191E+01  0.87459402188E+01  0.51100000000E-03 0.  1.
        -12    1    3    3    0    0  0.23972457180E+02 -0.22144435398E+02 -0.22875101182E+02  0.39853795007E+02  0.00000000000E+00 0.  1.
</event>
<event>
 7    1  0.3795708E-015  0.9000767E+02  0.7816164E-02  0.1186339E+00
        -11   -1    0    0    0    0  0.00000000000E+00  0.00000000000E+00  0.45593999997E+02  0.45594000000E+02  0.51100000000E-03 0.  1.
         11   -1    0    0    0    0 -0.00000000000E+00 -0.00000000000E+00 -0.45593999997E+02  0.45594000000E+02  0.51100000000E-03 0. -1.
    9900012    2    1    2    0    0 -0.10174887683E+01 -0.41795693339E+00 -0.42802749490E+00  0.90007669992E+02  0.89999930436E+02 0.  0.
         12    1    1    2    0    0  0.10174887683E+01  0.41795693339E+00  0.42802749490E+00  0.11803300082E+01  0.00000000000E+00 0. -1.
         11    1    3    3    0    0  0.63440015380E+01  0.64886581801E+01 -0.28135310953E+01  0.95007893344E+01  0.51100000000E-03 0. -1.
        -11    1    3    3    0    0 -0.21031175276E+01  0.11343521434E+02  0.38234733757E+02  0.39937369062E+02  0.51100000000E-03 0.  1.
         12    1    3    3    0    0 -0.52583727787E+01 -0.18250136547E+02 -0.35849230157E+02  0.40569511595E+02  0.00000000000E+00 0. -1.
</event>
<event>
 7    1  0.3795708E-015  0.9000775E+02  0.7816164E-02  0.1186339E+00
        -11   -1    0    0    0    0  0.00000000000E+00  0.00000000000E+00  0.45593999997E+02  0.45594000000E+02  0.51100000000E-03 0.  1.
         11   -1    0    0    0    0 -0.00000000000E+00 -0.00000000000E+00 -0.45593999997E+02  0.45594000000E+02  0.51100000000E-03 0. -1.
    9900012    2    1    2    0    0 -0.11334453279E+01  0.30787993986E+00 -0.11620352327E+00  0.90007749337E+02  0.90000010828E+02 0.  0.
         12    1    1    2    0    0  0.11334453279E+01 -0.30787993986E+00  0.11620352327E+00  0.11802506630E+01  0.00000000000E+00 0. -1.
         11    1    3    3    0    0 -0.42418369199E+02 -0.13431284971E+02 -0.43892350692E+01  0.44709985979E+02  0.51100000000E-03 0. -1.
        -11    1    3    3    0    0  0.90409667837E+01  0.68042796881E-01 -0.30041337993E+01  0.95272519832E+01  0.51100000000E-03 0.  1.
        -12    1    3    3    0    0  0.32243957088E+02  0.13671122114E+02  0.72771653452E+01  0.35770511375E+02  0.00000000000E+00 0.  1.
</event>
<event>
 7    1  0.3795708E-015  0.9000749E+02  0.7816164E-02  0.1186340E+00
        -11   -1    0    0    0    0  0.00000000000E+00  0.00000000000E+00  0.45593999997E+02  0.45594000000E+02  0.51100000000E-03 0. -1.
         11   -1    0    0    0    0 -0.00000000000E+00 -0.00000000000E+00 -0.45593999997E+02  0.45594000000E+02  0.51100000000E-03 0.  1.
    9900012    2    1    2    0    0 -0.66949688794E-02  0.11010737275E+01 -0.42566936318E+00  0.90007490541E+02  0.89999748616E+02 0.  0.
         12    1    1    2    0    0  0.66949688794E-02 -0.11010737275E+01  0.42566936318E+00  0.11805094590E+01  0.00000000000E+00 0. -1.
         11    1    3    3    0    0  0.46563552298E+01  0.17294355950E+02  0.29128078388E+02  0.34193878730E+02  0.51100000000E-03 0. -1.
        -11    1    3    3    0    0 -0.43938244644E+01  0.85953949483E+01  0.68028903888E+01  0.11809565007E+02  0.51100000000E-03 0.  1.
        -12    1    3    3    0    0 -0.26922573426E+00 -0.24788677171E+02 -0.36356638140E+02  0.44004046805E+02  0.00000000000E+00 0.  1.
</event>
<event>
 7    1  0.3795708E-015  0.9000781E+02  0.7816164E-02  0.1186339E+00
        -11   -1    0    0    0    0  0.00000000000E+00  0.00000000000E+00  0.45593999997E+02  0.45594000000E+02  0.51100000000E-03 0.  1.
         11   -1    0    0    0    0 -0.00000000000E+00 -0.00000000000E+00 -0.45593999997E+02  0.45594000000E+02  0.51100000000E-03 0. -1.
    9900012    2    1    2    0    0  0.95185414641E+00 -0.69233074434E+00 -0.86593807575E-01  0.90007810751E+02  0.90000073053E+02 0.  0.
         12    1    1    2    0    0 -0.95185414641E+00  0.69233074434E+00  0.86593807575E-01  0.11801892489E+01  0.00000000000E+00 0. -1.
         11    1    3    3    0    0  0.90512481619E+01 -0.32551446099E+02  0.97499267382E+01  0.35165079384E+02  0.51100000000E-03 0. -1.
        -11    1    3    3    0    0  0.30037037727E+01 -0.99592320578E+01  0.28957723143E+00  0.10406363187E+02  0.51100000000E-03 0.  1.
        -12    1    3    3    0    0 -0.11103097788E+02  0.41818347413E+02 -0.10126097777E+02  0.44436368180E+02  0.00000000000E+00 0.  1.
</event>
<event>
 7    1  0.3795708E-015  0.9000810E+02  0.7816164E-02  0.1186338E+00
        -11   -1    0    0    0    0  0.00000000000E+00  0.00000000000E+00  0.45593999997E+02  0.45594000000E+02  0.51100000000E-03 0.  1.
         11   -1    0    0    0    0 -0.00000000000E+00 -0.00000000000E+00 -0.45593999997E+02  0.45594000000E+02  0.51100000000E-03 0. -1.
    9900012    2    1    2    0    0  0.71850135566E+00  0.75917734113E+00 -0.54733109778E+00  0.90008099257E+02  0.90000365366E+02 0.  0.
         12    1    1    2    0    0 -0.71850135566E+00 -0.75917734113E+00  0.54733109778E+00  0.11799007433E+01  0.00000000000E+00 0. -1.
         11    1    3    3    0    0  0.41592382740E+01 -0.64222060218E+01  0.62268240844E+01  0.98649547209E+01  0.51100000000E-03 0. -1.
        -11    1    3    3    0    0 -0.26974857342E+02 -0.24336784338E+02  0.95348155467E+01  0.37561079701E+02  0.51100000000E-03 0.  1.
         12    1    3    3    0    0  0.23534120424E+02  0.31518167701E+02 -0.16308970729E+02  0.42582064835E+02  0.00000000000E+00 0. -1.
</event>
<event>
 7    1  0.3795708E-015  0.9000772E+02  0.7816164E-02  0.1186339E+00
        -11   -1    0    0    0    0  0.00000000000E+00  0.00000000000E+00  0.45593999997E+02  0.45594000000E+02  0.51100000000E-03 0.  1.
         11   -1    0    0    0    0 -0.00000000000E+00 -0.00000000000E+00 -0.45593999997E+02  0.45594000000E+02  0.51100000000E-03 0. -1.
    9900012    2    1    2    0    0 -0.53555253126E+00  0.18430778778E+00  0.10355051487E+01  0.90007721733E+02  0.89999982860E+02 0.  0.
         12    1    1    2    0    0  0.53555253126E+00 -0.18430778778E+00 -0.10355051487E+01  0.11802782669E+01  0.00000000000E+00 0. -1.
         11    1    3    3    0    0  0.22216225694E+01 -0.22141167638E+02 -0.27816904431E+02  0.35622283526E+02  0.51100000000E-03 0. -1.
        -11    1    3    3    0    0  0.21296117771E+01 -0.44379202644E+01 -0.75054199745E+01  0.89756176305E+01  0.51100000000E-03 0.  1.
        -12    1    3    3    0    0 -0.48867868777E+01  0.26763395691E+02  0.36357829554E+02  0.45409820576E+02  0.00000000000E+00 0.  1.
</event>
<event>
 7    1  0.3795708E-015  0.9000774E+02  0.7816164E-02  0.1186339E+00
        -11   -1    0    0    0    0  0.00000000000E+00  0.00000000000E+00  0.45593999997E+02  0.45594000000E+02  0.51100000000E-03 0.  1.
         11   -1    0    0    0    0 -0.00000000000E+00 -0.00000000000E+00 -0.45593999997E+02  0.45594000000E+02  0.51100000000E-03 0. -1.
    9900012    2    1    2    0    0 -0.25807385512E+00  0.10539495850E+01  0.46432433227E+00  0.90007742008E+02  0.90000003402E+02 0.  0.
         12    1    1    2    0    0  0.25807385512E+00 -0.10539495850E+01 -0.46432433227E+00  0.11802579922E+01  0.00000000000E+00 0. -1.
         11    1    3    3    0    0 -0.55289575579E+01 -0.14583675514E+01  0.88946598030E+01  0.10574080616E+02  0.51100000000E-03 0. -1.
        -11    1    3    3    0    0  0.30107907151E+02  0.88975663861E+01  0.22963504061E+02  0.38896982911E+02  0.51100000000E-03 0.  1.
         12    1    3    3    0    0 -0.24837023448E+02 -0.63852492497E+01 -0.31393839532E+02  0.40536678481E+02  0.00000000000E+00 0. -1.
</event>
<event>
 7    1  0.3795708E-015  0.9000768E+02  0.7816164E-02  0.1186339E+00
        -11   -1    0    0    0    0  0.00000000000E+00  0.00000000000E+00  0.45593999997E+02  0.45594000000E+02  0.51100000000E-03 0. -1.
         11   -1    0    0    0    0 -0.00000000000E+00 -0.00000000000E+00 -0.45593999997E+02  0.45594000000E+02  0.51100000000E-03 0.  1.
    9900012    2    1    2    0    0  0.98951865701E-01  0.10311977579E+01 -0.56567784801E+00  0.90007681519E+02  0.89999942116E+02 0.  0.
         12    1    1    2    0    0 -0.98951865701E-01 -0.10311977579E+01  0.56567784801E+00  0.11803184805E+01  0.00000000000E+00 0. -1.
         11    1    3    3    0    0  0.30216842132E+01 -0.47190977775E+00 -0.71678790165E+01  0.77930587178E+01  0.51100000000E-03 0. -1.
        -11    1    3    3    0    0 -0.16748114219E+02 -0.37201473266E+02  0.18284724576E+01  0.40838612303E+02  0.51100000000E-03 0.  1.
         12    1    3    3    0    0  0.13825381871E+02  0.38704580802E+02  0.47737287109E+01  0.41376010498E+02  0.00000000000E+00 0. -1.
</event>
<event>
 7    1  0.3795708E-015  0.9000773E+02  0.7816164E-02  0.1186339E+00
        -11   -1    0    0    0    0  0.00000000000E+00  0.00000000000E+00  0.45593999997E+02  0.45594000000E+02  0.51100000000E-03 0.  1.
         11   -1    0    0    0    0 -0.00000000000E+00 -0.00000000000E+00 -0.45593999997E+02  0.45594000000E+02  0.51100000000E-03 0. -1.
    9900012    2    1    2    0    0  0.64100643565E+00 -0.92476916615E+00 -0.35629319832E+00  0.90007732190E+02  0.89999993454E+02 0.  0.
         12    1    1    2    0    0 -0.64100643565E+00  0.92476916615E+00  0.35629319832E+00  0.11802678104E+01  0.00000000000E+00 0. -1.
         11    1    3    3    0    0 -0.36197418646E+02  0.16966814028E+02  0.66294716936E+00  0.39982063405E+02  0.51100000000E-03 0. -1.
        -11    1    3    3    0    0  0.71137283577E+00 -0.35882333879E+01 -0.95657530208E+01  0.10241342748E+02  0.51100000000E-03 0.  1.
        -12    1    3    3    0    0  0.36127052246E+02 -0.14303349807E+02  0.85465126531E+01  0.39784326037E+02  0.00000000000E+00 0.  1.
</event>
<event>
 7    1  0.3795708E-015  0.9000761E+02  0.7816164E-02  0.1186339E+00
        -11   -1    0    0    0    0  0.00000000000E+00  0.00000000000E+00  0.45593999997E+02  0.45594000000E+02  0.51100000000E-03 0.  1.
         11   -1    0    0    0    0 -0.00000000000E+00 -0.00000000000E+00 -0.45593999997E+02  0.45594000000E+02  0.51100000000E-03 0. -1.
    9900012    2    1    2    0    0 -0.81235047368E+00 -0.81014779930E+00  0.27762674595E+00  0.90007606270E+02  0.89999865872E+02 0.  0.
         12    1    1    2    0    0  0.81235047368E+00  0.81014779930E+00 -0.27762674595E+00  0.11803937304E+01  0.00000000000E+00 0. -1.
         11    1    3    3    0    0 -0.17777706448E+01 -0.74937801005E+01  0.63532199167E+01  0.99840178401E+01  0.51100000000E-03 0. -1.
        -11    1    3    3    0    0 -0.26390387037E+02  0.29784798269E+02  0.96024196233E+01  0.40936453177E+02  0.51100000000E-03 0.  1.
         12    1    3    3    0    0  0.27355807208E+02 -0.23101165968E+02 -0.15678012794E+02  0.39087135252E+02  0.00000000000E+00 0. -1.
</event>
<event>
 7    1  0.3795708E-015  0.9000770E+02  0.7816164E-02  0.1186339E+00
        -11   -1    0    0    0    0  0.00000000000E+00  0.00000000000E+00  0.45593999997E+02  0.45594000000E+02  0.51100000000E-03 0.  1.
         11   -1    0    0    0    0 -0.00000000000E+00 -0.00000000000E+00 -0.45593999997E+02  0.45594000000E+02  0.51100000000E-03 0. -1.
    9900012    2    1    2    0    0  0.27645450658E+00  0.22415537975E+00  0.11253557482E+01  0.90007704152E+02  0.89999965047E+02 0.  0.
         12    1    1    2    0    0 -0.27645450658E+00 -0.22415537975E+00 -0.11253557482E+01  0.11802958479E+01  0.00000000000E+00 0. -1.
         11    1    3    3    0    0  0.33104696730E+02 -0.13746732577E+02 -0.12729521458E+02  0.38038589865E+02  0.51100000000E-03 0. -1.
        -11    1    3    3    0    0  0.91495239109E+00 -0.87456542759E+01  0.57092380840E+01  0.10484226550E+02  0.51100000000E-03 0.  1.
        -12    1    3    3    0    0 -0.33743194614E+02  0.22716542233E+02  0.81456391226E+01  0.41484887737E+02  0.00000000000E+00 0.  1.
</event>
<event>
 7    1  0.3795708E-015  0.9000780E+02  0.7816164E-02  0.1186339E+00
        -11   -1    0    0    0    0  0.00000000000E+00  0.00000000000E+00  0.45593999997E+02  0.45594000000E+02  0.51100000000E-03 0.  1.
         11   -1    0    0    0    0 -0.00000000000E+00 -0.00000000000E+00 -0.45593999997E+02  0.45594000000E+02  0.51100000000E-03 0. -1.
    9900012    2    1    2    0    0 -0.49250874156E+00  0.18729114717E+00  0.10560491785E+01  0.90007795483E+02  0.90000057583E+02 0.  0.
         12    1    1    2    0    0  0.49250874156E+00 -0.18729114717E+00 -0.10560491785E+01  0.11802045169E+01  0.00000000000E+00 0. -1.
         11    1    3    3    0    0  0.66814505326E+01 -0.66852409219E+01 -0.11261262708E+01  0.95185286700E+01  0.51100000000E-03 0. -1.
        -11    1    3    3    0    0 -0.19541587600E+01 -0.35390284719E+02 -0.87831038991E+01  0.36516214253E+02  0.51100000000E-03 0.  1.
         12    1    3    3    0    0 -0.52198005142E+01  0.42262816788E+02  0.10965279348E+02  0.43973052560E+02  0.00000000000E+00 0. -1.
</event>
<event>
 7    1  0.3795708E-015  0.9000761E+02  0.7816164E-02  0.1186339E+00
        -11   -1    0    0    0    0  0.00000000000E+00  0.00000000000E+00  0.45593999997E+02  0.45594000000E+02  0.51100000000E-03 0.  1.
         11   -1    0    0    0    0 -0.00000000000E+00 -0.00000000000E+00 -0.45593999997E+02  0.45594000000E+02  0.51100000000E-03 0. -1.
    9900012    2    1    2    0    0  0.10970037339E+01 -0.17841627698E+00  0.39759347838E+00  0.90007605941E+02  0.89999865540E+02 0.  0.
         12    1    1    2    0    0 -0.10970037339E+01  0.17841627698E+00 -0.39759347838E+00  0.11803940588E+01  0.00000000000E+00 0. -1.
         11    1    3    3    0    0  0.61867401822E+01  0.13231753794E+01  0.34664007338E+01  0.72140475099E+01  0.51100000000E-03 0. -1.
        -11    1    3    3    0    0 -0.41729537484E+00  0.15282138997E+01  0.39665910409E+02  0.39697531687E+02  0.51100000000E-03 0.  1.
         12    1    3    3    0    0 -0.46724410735E+01 -0.30298055561E+01 -0.42734717665E+02  0.43096026745E+02  0.00000000000E+00 0. -1.
</event>
<event>
 7    1  0.3883122E-015  0.9000781E+02  0.7816164E-02  0.1186339E+00
        -11   -1    0    0    0    0  0.00000000000E+00  0.00000000000E+00  0.45593999997E+02  0.45594000000E+02  0.51100000000E-03 0.  1.
         11   -1    0    0    0    0 -0.00000000000E+00 -0.00000000000E+00 -0.45593999997E+02  0.45594000000E+02  0.51100000000E-03 0. -1.
    9900012    2    1    2    0    0  0.54356640915E+00  0.10352564385E+01 -0.16009706449E+00  0.90007808742E+02  0.90000071018E+02 0.  0.
         12    1    1    2    0    0 -0.54356640915E+00 -0.10352564385E+01  0.16009706449E+00  0.11801912577E+01  0.00000000000E+00 0. -1.
         11    1    3    3    0    0 -0.98128270539E+01 -0.30259268849E+02 -0.21262158042E+02  0.38262178335E+02  0.51100000000E-03 0. -1.
        -11    1    3    3    0    0  0.69617932256E+01 -0.56655335273E+01 -0.14846443881E+00  0.89770193837E+01  0.51100000000E-03 0.  1.
        -12    1    3    3    0    0  0.33946002375E+01  0.36960058815E+02  0.21250525416E+02  0.42768611023E+02  0.00000000000E+00 0.  1.
</event>
<event>
 7    1  0.3795708E-015  0.9000775E+02  0.7816164E-02  0.1186339E+00
        -11   -1    0    0    0    0  0.00000000000E+00  0.00000000000E+00  0.45593999997E+02  0.45594000000E+02  0.51100000000E-03 0. -1.
         11   -1    0    0    0    0 -0.00000000000E+00 -0.00000000000E+00 -0.45593999997E+02  0.45594000000E+02  0.51100000000E-03 0.  1.
    9900012    2    1    2    0    0  0.35651351775E+00  0.35703393478E+00 -0.10669678565E+01  0.90007747686E+02  0.90000009155E+02 0.  0.
         12    1    1    2    0    0 -0.35651351775E+00 -0.35703393478E+00  0.10669678565E+01  0.11802523145E+01  0.00000000000E+00 0. -1.
         11    1    3    3    0    0 -0.39238759242E+01 -0.13399543966E+01 -0.74098157824E+01  0.84910335203E+01  0.51100000000E-03 0. -1.
        -11    1    3    3    0    0  0.28066037679E+00  0.39589893315E+02  0.15181089047E+02  0.42401696757E+02  0.51100000000E-03 0.  1.
         12    1    3    3    0    0  0.39997290651E+01 -0.37892904984E+02 -0.88382411208E+01  0.39115017408E+02  0.00000000000E+00 0. -1.
</event>
<event>
 7    1  0.3795708E-015  0.9000772E+02  0.7816164E-02  0.1186339E+00
        -11   -1    0    0    0    0  0.00000000000E+00  0.00000000000E+00  0.45593999997E+02  0.45594000000E+02  0.51100000000E-03 0. -1.
         11   -1    0    0    0    0 -0.00000000000E+00 -0.00000000000E+00 -0.45593999997E+02  0.45594000000E+02  0.51100000000E-03 0.  1.
    9900012    2    1    2    0    0  0.10370613603E+01 -0.52802224962E+00  0.19686843324E+00  0.90007719973E+02  0.89999981077E+02 0.  0.
         12    1    1    2    0    0 -0.10370613603E+01  0.52802224962E+00 -0.19686843324E+00  0.11802800266E+01  0.00000000000E+00 0. -1.
         11    1    3    3    0    0 -0.33866246877E+02 -0.18843689376E+01  0.26003006930E+02  0.42739090930E+02  0.51100000000E-03 0. -1.
        -11    1    3    3    0    0  0.14694697042E+01  0.12681967282E+01 -0.10179766790E+02  0.10363171151E+02  0.51100000000E-03 0.  1.
        -12    1    3    3    0    0  0.33433838533E+02  0.88149959756E-01 -0.15626371707E+02  0.36905457892E+02  0.00000000000E+00 0.  1.
</event>
<event>
 7    1  0.3795708E-015  0.9000774E+02  0.7816164E-02  0.1186339E+00
        -11   -1    0    0    0    0  0.00000000000E+00  0.00000000000E+00  0.45593999997E+02  0.45594000000E+02  0.51100000000E-03 0.  1.
         11   -1    0    0    0    0 -0.00000000000E+00 -0.00000000000E+00 -0.45593999997E+02  0.45594000000E+02  0.51100000000E-03 0. -1.
    9900012    2    1    2    0    0  0.19378323158E+00  0.19026370622E+00  0.11485859737E+01  0.90007744961E+02  0.90000006394E+02 0.  0.
         12    1    1    2    0    0 -0.19378323158E+00 -0.19026370622E+00 -0.11485859737E+01  0.11802550393E+01  0.00000000000E+00 0. -1.
         11    1    3    3    0    0 -0.11023446293E+02 -0.29235927402E+02 -0.17261166251E+02  0.35695989688E+02  0.51100000000E-03 0. -1.
        -11    1    3    3    0    0  0.21469155725E+01 -0.79856111288E+01 -0.46010255174E+01  0.94630157798E+01  0.51100000000E-03 0.  1.
        -12    1    3    3    0    0  0.90703139519E+01  0.37411802237E+02  0.23010777742E+02  0.44848739493E+02  0.00000000000E+00 0.  1.
</event>
<event>
 7    1  0.3795708E-015  0.9000774E+02  0.7816164E-02  0.1186339E+00
        -11   -1    0    0    0    0  0.00000000000E+00  0.00000000000E+00  0.45593999997E+02  0.45594000000E+02  0.51100000000E-03 0.  1.
         11   -1    0    0    0    0 -0.00000000000E+00 -0.00000000000E+00 -0.45593999997E+02  0.45594000000E+02  0.51100000000E-03 0. -1.
    9900012    2    1    2    0    0 -0.10815887480E+01  0.45430597123E+00  0.12958241272E+00  0.90007737429E+02  0.89999998763E+02 0.  0.
         12    1    1    2    0    0  0.10815887480E+01 -0.45430597123E+00 -0.12958241272E+00  0.11802625712E+01  0.00000000000E+00 0. -1.
         11    1    3    3    0    0  0.14308081990E+01 -0.55539045612E+01 -0.79246889906E+01  0.97823189396E+01  0.51100000000E-03 0. -1.
        -11    1    3    3    0    0 -0.26648760142E+02 -0.27054245633E+02 -0.21563065755E+01  0.38036012963E+02  0.51100000000E-03 0.  1.
         12    1    3    3    0    0  0.24136363194E+02  0.33062456165E+02  0.10210577979E+02  0.42189405526E+02  0.00000000000E+00 0. -1.
</event>
<event>
 7    1  0.3795708E-015  0.9000768E+02  0.7816164E-02  0.1186339E+00
        -11   -1    0    0    0    0  0.00000000000E+00  0.00000000000E+00  0.45593999997E+02  0.45594000000E+02  0.51100000000E-03 0.  1.
         11   -1    0    0    0    0 -0.00000000000E+00 -0.00000000000E+00 -0.45593999997E+02  0.45594000000E+02  0.51100000000E-03 0. -1.
    9900012    2    1    2    0    0  0.51411144477E+00 -0.98820284401E-01 -0.10578650207E+01  0.90007680370E+02  0.89999940951E+02 0.  0.
         12    1    1    2    0    0 -0.51411144477E+00  0.98820284401E-01  0.10578650207E+01  0.11803196297E+01  0.00000000000E+00 0. -1.
         11    1    3    3    0    0  0.45112212468E+01  0.21913372620E+01 -0.95339177164E+01  0.10772588520E+02  0.51100000000E-03 0. -1.
        -11    1    3    3    0    0  0.20492178532E+02  0.77976882587E+01  0.35289550233E+02  0.41546187299E+02  0.51100000000E-03 0.  1.
         12    1    3    3    0    0 -0.24489288334E+02 -0.10087845805E+02 -0.26813497537E+02  0.37688904551E+02  0.00000000000E+00 0. -1.
</event>
<event>
 7    1  0.3795708E-015  0.9000765E+02  0.7816164E-02  0.1186339E+00
        -11   -1    0    0    0    0  0.00000000000E+00  0.00000000000E+00  0.45593999997E+02  0.45594000000E+02  0.51100000000E-03 0.  1.
         11   -1    0    0    0    0 -0.00000000000E+00 -0.00000000000E+00 -0.45593999997E+02  0.45594000000E+02  0.51100000000E-03 0. -1.
    9900012    2    1    2    0    0 -0.30552233913E+00 -0.21534790740E+00  0.11196029894E+01  0.90007648580E+02  0.89999908741E+02 0.  0.
         12    1    1    2    0    0  0.30552233913E+00  0.21534790740E+00 -0.11196029894E+01  0.11803514201E+01  0.00000000000E+00 0. -1.
         11    1    3    3    0    0  0.65391877836E+01  0.17294300238E+02  0.11278470125E+00  0.18489632723E+02  0.51100000000E-03 0. -1.
        -11    1    3    3    0    0 -0.30966641302E+02  0.10490755721E+01  0.18820980174E+02  0.36252761661E+02  0.51100000000E-03 0.  1.
         12    1    3    3    0    0  0.24121931179E+02 -0.18558723717E+02 -0.17814161886E+02  0.35265254196E+02  0.00000000000E+00 0. -1.
</event>
<event>
 7    1  0.3795708E-015  0.9000775E+02  0.7816164E-02  0.1186339E+00
        -11   -1    0    0    0    0  0.00000000000E+00  0.00000000000E+00  0.45593999997E+02  0.45594000000E+02  0.51100000000E-03 0.  1.
         11   -1    0    0    0    0 -0.00000000000E+00 -0.00000000000E+00 -0.45593999997E+02  0.45594000000E+02  0.51100000000E-03 0. -1.
    9900012    2    1    2    0    0  0.11765208170E+01  0.22417071195E-01  0.91093156611E-01  0.90007745061E+02  0.90000006496E+02 0.  0.
         12    1    1    2    0    0 -0.11765208170E+01 -0.22417071195E-01 -0.91093156611E-01  0.11802549391E+01  0.00000000000E+00 0. -1.
         11    1    3    3    0    0 -0.86338792882E+01 -0.75586302416E+00 -0.80193626165E+01  0.11807852367E+02  0.51100000000E-03 0. -1.
        -11    1    3    3    0    0  0.44550078723E+01  0.31796333215E+02 -0.18435794485E+02  0.37023403674E+02  0.51100000000E-03 0.  1.
         12    1    3    3    0    0  0.53553922329E+01 -0.31018053119E+02  0.26546250258E+02  0.41176489021E+02  0.00000000000E+00 0. -1.
</event>
<event>
 7    1  0.3795708E-015  0.9000775E+02  0.7816164E-02  0.1186339E+00
        -11   -1    0    0    0    0  0.00000000000E+00  0.00000000000E+00  0.45593999997E+02  0.45594000000E+02  0.51100000000E-03 0. -1.
         11   -1    0    0    0    0 -0.00000000000E+00 -0.00000000000E+00 -0.45593999997E+02  0.45594000000E+02  0.51100000000E-03 0.  1.
    9900012    2    1    2    0    0  0.55788595743E-01 -0.35749054181E+00 -0.11234186008E+01  0.90007753751E+02  0.90000015301E+02 0.  0.
         12    1    1    2    0    0 -0.55788595743E-01  0.35749054181E+00  0.11234186008E+01  0.11802462487E+01  0.00000000000E+00 0. -1.
         11    1    3    3    0    0  0.70047784499E+01 -0.55983952800E+01  0.38707897913E+02  0.39732987705E+02  0.51100000000E-03 0. -1.
        -11    1    3    3    0    0 -0.52448031898E+01  0.60578231771E+01  0.21139266745E+01  0.82869697955E+01  0.51100000000E-03 0.  1.
        -12    1    3    3    0    0 -0.17041866644E+01 -0.81691843887E+00 -0.41945243188E+02  0.41987796251E+02  0.00000000000E+00 0.  1.
</event>
<event>
 7    1  0.3795708E-015  0.9000778E+02  0.7816164E-02  0.1186339E+00
        -11   -1    0    0    0    0  0.00000000000E+00  0.00000000000E+00  0.45593999997E+02  0.45594000000E+02  0.51100000000E-03 0. -1.
         11   -1    0    0    0    0 -0.00000000000E+00 -0.00000000000E+00 -0.45593999997E+02  0.45594000000E+02  0.51100000000E-03 0.  1.
    9900012    2    1    2    0    0 -0.40758795296E+00 -0.97646086516E-01 -0.11032980119E+01  0.90007775784E+02  0.90000037624E+02 0.  0.
         12    1    1    2    0    0  0.40758795296E+00  0.97646086516E-01  0.11032980119E+01  0.11802242163E+01  0.00000000000E+00 0. -1.
         11    1    3    3    0    0 -0.72092875708E+01 -0.34806355986E+01  0.62226244961E+01  0.10139512184E+02  0.51100000000E-03 0. -1.
        -11    1    3    3    0    0 -0.12562824908E+02 -0.46127582334E+00 -0.39869530191E+02  0.41804506730E+02  0.51100000000E-03 0.  1.
         12    1    3    3    0    0  0.19364524525E+02  0.38442653355E+01  0.32543607682E+02  0.38063756870E+02  0.00000000000E+00 0. -1.
</event>
<event>
 7    1  0.3795708E-015  0.9000775E+02  0.7816164E-02  0.1186339E+00
        -11   -1    0    0    0    0  0.00000000000E+00  0.00000000000E+00  0.45593999997E+02  0.45594000000E+02  0.51100000000E-03 0. -1.
         11   -1    0    0    0    0 -0.00000000000E+00 -0.00000000000E+00 -0.45593999997E+02  0.45594000000E+02  0.51100000000E-03 0.  1.
    9900012    2    1    2    0    0  0.87780499318E+00 -0.25579086404E+00 -0.74633063650E+00  0.90007754267E+02  0.90000015823E+02 0.  0.
         12    1    1    2    0    0 -0.87780499318E+00  0.25579086404E+00  0.74633063650E+00  0.11802457334E+01  0.00000000000E+00 0. -1.
         11    1    3    3    0    0 -0.10200728997E+02 -0.10943135394E+01 -0.39332424004E+01  0.10987392331E+02  0.51100000000E-03 0. -1.
        -11    1    3    3    0    0 -0.22469764840E+02 -0.13618383619E+02 -0.22312515527E+02  0.34470263326E+02  0.51100000000E-03 0.  1.
         12    1    3    3    0    0  0.33548298830E+02  0.14456906295E+02  0.25499427291E+02  0.44550098610E+02  0.00000000000E+00 0. -1.
</event>
<event>
 7    1  0.3795708E-015  0.9000768E+02  0.7816164E-02  0.1186339E+00
        -11   -1    0    0    0    0  0.00000000000E+00  0.00000000000E+00  0.45593999997E+02  0.45594000000E+02  0.51100000000E-03 0.  1.
         11   -1    0    0    0    0 -0.00000000000E+00 -0.00000000000E+00 -0.45593999997E+02  0.45594000000E+02  0.51100000000E-03 0. -1.
    9900012    2    1    2    0    0  0.96059807747E+00 -0.14425199401E+00  0.67051312811E+00  0.90007684297E+02  0.89999944930E+02 0.  0.
         12    1    1    2    0    0 -0.96059807747E+00  0.14425199401E+00 -0.67051312811E+00  0.11803157032E+01  0.00000000000E+00 0. -1.
         11    1    3    3    0    0 -0.50678180458E+01  0.93284719915E+01 -0.54918821807E+01  0.11952570418E+02  0.51100000000E-03 0. -1.
        -11    1    3    3    0    0 -0.10356396788E+02  0.31067873298E+02 -0.44763188690E+01  0.33053065464E+02  0.51100000000E-03 0.  1.
         12    1    3    3    0    0  0.16384812911E+02 -0.40540597283E+02  0.10638714178E+02  0.45002048415E+02  0.00000000000E+00 0. -1.
</event>
<event>
 7    1  0.3795708E-015  0.9000771E+02  0.7816164E-02  0.1186339E+00
        -11   -1    0    0    0    0  0.00000000000E+00  0.00000000000E+00  0.45593999997E+02  0.45594000000E+02  0.51100000000E-03 0.  1.
         11   -1    0    0    0    0 -0.00000000000E+00 -0.00000000000E+00 -0.45593999997E+02  0.45594000000E+02  0.51100000000E-03 0. -1.
    9900012    2    1    2    0    0 -0.11408881256E+01 -0.30184495090E+00  0.18754217061E-01  0.90007708591E+02  0.89999969544E+02 0.  0.
         12    1    1    2    0    0  0.11408881256E+01  0.30184495090E+00 -0.18754217061E-01  0.11802914090E+01  0.00000000000E+00 0. -1.
         11    1    3    3    0    0 -0.39604494665E+02 -0.94372253230E+01 -0.17017072281E+02  0.44126612930E+02  0.51100000000E-03 0. -1.
        -11    1    3    3    0    0  0.90777284082E+01  0.44214477469E+01 -0.23442078393E+01  0.10365792970E+02  0.51100000000E-03 0.  1.
        -12    1    3    3    0    0  0.29385878131E+02  0.47139326251E+01  0.19380034337E+02  0.35515302691E+02  0.00000000000E+00 0.  1.
</event>
<event>
 7    1  0.3795708E-015  0.9000778E+02  0.7816164E-02  0.1186339E+00
        -11   -1    0    0    0    0  0.00000000000E+00  0.00000000000E+00  0.45593999997E+02  0.45594000000E+02  0.51100000000E-03 0. -1.
         11   -1    0    0    0    0 -0.00000000000E+00 -0.00000000000E+00 -0.45593999997E+02  0.45594000000E+02  0.51100000000E-03 0.  1.
    9900012    2    1    2    0    0  0.61761125154E+00 -0.97403100313E+00  0.25049205578E+00  0.90007777003E+02  0.90000038859E+02 0.  0.
         12    1    1    2    0    0 -0.61761125154E+00  0.97403100313E+00 -0.25049205578E+00  0.11802229972E+01  0.00000000000E+00 0. -1.
         11    1    3    3    0    0  0.83937040869E+01  0.24683806724E+02 -0.29410910567E+02  0.39303259958E+02  0.51100000000E-03 0. -1.
        -11    1    3    3    0    0  0.69627761709E+01 -0.22953490492E+01 -0.30059953908E+01  0.79236915522E+01  0.51100000000E-03 0.  1.
        -12    1    3    3    0    0 -0.14738869006E+02 -0.23362488678E+02  0.32667398014E+02  0.42780825492E+02  0.00000000000E+00 0.  1.
</event>
<event>
 7    1  0.3795708E-015  0.9000758E+02  0.7816164E-02  0.1186339E+00
        -11   -1    0    0    0    0  0.00000000000E+00  0.00000000000E+00  0.45593999997E+02  0.45594000000E+02  0.51100000000E-03 0. -1.
         11   -1    0    0    0    0 -0.00000000000E+00 -0.00000000000E+00 -0.45593999997E+02  0.45594000000E+02  0.51100000000E-03 0.  1.
    9900012    2    1    2    0    0  0.10319690057E+01 -0.27792351063E+00  0.50117676095E+00  0.90007584966E+02  0.89999844288E+02 0.  0.
         12    1    1    2    0    0 -0.10319690057E+01  0.27792351063E+00 -0.50117676095E+00  0.11804150339E+01  0.00000000000E+00 0. -1.
         11    1    3    3    0    0 -0.63478855452E+01  0.27004726288E+01  0.72030871113E+01  0.99735985235E+01  0.51100000000E-03 0. -1.
        -11    1    3    3    0    0  0.32473184015E+02  0.18898511988E+02  0.14823270342E+02  0.40390478820E+02  0.51100000000E-03 0.  1.
         12    1    3    3    0    0 -0.25093329464E+02 -0.21876908127E+02 -0.21525180692E+02  0.39643507623E+02  0.00000000000E+00 0. -1.
</event>
<event>
 7    1  0.3795708E-015  0.9000748E+02  0.7816164E-02  0.1186340E+00
        -11   -1    0    0    0    0  0.00000000000E+00  0.00000000000E+00  0.45593999997E+02  0.45594000000E+02  0.51100000000E-03 0.  1.
         11   -1    0    0    0    0 -0.00000000000E+00 -0.00000000000E+00 -0.45593999997E+02  0.45594000000E+02  0.51100000000E-03 0. -1.
    9900012    2    1    2    0    0 -0.41992510461E+00  0.11026092409E+01  0.39176990752E-01  0.90007483559E+02  0.89999741541E+02 0.  0.
         12    1    1    2    0    0  0.41992510461E+00 -0.11026092409E+01 -0.39176990752E-01  0.11805164413E+01  0.00000000000E+00 0. -1.
         11    1    3    3    0    0 -0.32154616091E+01 -0.71096360022E+01  0.50286814197E+01  0.92829819846E+01  0.51100000000E-03 0. -1.
        -11    1    3    3    0    0  0.37725967990E+02  0.82053999521E+01  0.13875076236E+02  0.41025540703E+02  0.51100000000E-03 0.  1.
         12    1    3    3    0    0 -0.34930431485E+02  0.68452910242E-02 -0.18864580665E+02  0.39698960871E+02  0.00000000000E+00 0. -1.
</event>
<event>
 7    1  0.3795708E-015  0.9000771E+02  0.7816164E-02  0.1186339E+00
        -11   -1    0    0    0    0  0.00000000000E+00  0.00000000000E+00  0.45593999997E+02  0.45594000000E+02  0.51100000000E-03 0.  1.
         11   -1    0    0    0    0 -0.00000000000E+00 -0.00000000000E+00 -0.45593999997E+02  0.45594000000E+02  0.51100000000E-03 0. -1.
    9900012    2    1    2    0    0  0.51266632623E-01  0.37181177378E+00  0.11190213985E+01  0.90007711411E+02  0.89999972402E+02 0.  0.
         12    1    1    2    0    0 -0.51266632623E-01 -0.37181177378E+00 -0.11190213985E+01  0.11802885889E+01  0.00000000000E+00 0. -1.
         11    1    3    3    0    0  0.32626350784E+02 -0.15028988235E+01  0.63159189995E+01  0.33266023259E+02  0.51100000000E-03 0. -1.
        -11    1    3    3    0    0  0.98871610962E+01 -0.30447502549E+01  0.67556804022E+01  0.12355795264E+02  0.51100000000E-03 0.  1.
        -12    1    3    3    0    0 -0.42462245248E+02  0.49194608522E+01 -0.11952578003E+02  0.44385892888E+02  0.00000000000E+00 0.  1.
</event>
<event>
 7    1  0.3795708E-015  0.9000780E+02  0.7816164E-02  0.1186339E+00
        -11   -1    0    0    0    0  0.00000000000E+00  0.00000000000E+00  0.45593999997E+02  0.45594000000E+02  0.51100000000E-03 0.  1.
         11   -1    0    0    0    0 -0.00000000000E+00 -0.00000000000E+00 -0.45593999997E+02  0.45594000000E+02  0.51100000000E-03 0. -1.
    9900012    2    1    2    0    0  0.10847430735E+01  0.17424022560E+00  0.43109853041E+00  0.90007799536E+02  0.90000061690E+02 0.  0.
         12    1    1    2    0    0 -0.10847430735E+01 -0.17424022560E+00 -0.43109853041E+00  0.11802004637E+01  0.00000000000E+00 0. -1.
         11    1    3    3    0    0  0.36765767206E+02  0.14795014649E+02 -0.40323659811E+01  0.39835588014E+02  0.51100000000E-03 0. -1.
        -11    1    3    3    0    0  0.43608703000E+01 -0.81456637545E+01  0.24566028526E+01  0.95605400272E+01  0.51100000000E-03 0.  1.
        -12    1    3    3    0    0 -0.40041894433E+02 -0.64751106692E+01  0.20068616589E+01  0.40611671495E+02  0.00000000000E+00 0.  1.
</event>
<event>
 7    1  0.3795708E-015  0.9000781E+02  0.7816164E-02  0.1186339E+00
        -11   -1    0    0    0    0  0.00000000000E+00  0.00000000000E+00  0.45593999997E+02  0.45594000000E+02  0.51100000000E-03 0. -1.
         11   -1    0    0    0    0 -0.00000000000E+00 -0.00000000000E+00 -0.45593999997E+02  0.45594000000E+02  0.51100000000E-03 0.  1.
    9900012    2    1    2    0    0 -0.12131647354E+00 -0.13867111794E+00 -0.11657176575E+01  0.90007811446E+02  0.90000073757E+02 0.  0.
         12    1    1    2    0    0  0.12131647354E+00  0.13867111794E+00  0.11657176575E+01  0.11801885539E+01  0.00000000000E+00 0. -1.
         11    1    3    3    0    0  0.44476517799E+00 -0.31872024972E+00 -0.98873024058E+01  0.99024314078E+01  0.51100000000E-03 0. -1.
        -11    1    3    3    0    0 -0.54009102310E+01 -0.10826700149E+01 -0.35337293235E+02  0.35764036393E+02  0.51100000000E-03 0.  1.
         12    1    3    3    0    0  0.48348285795E+01  0.12627191467E+01  0.44058877984E+02  0.44341343645E+02  0.00000000000E+00 0. -1.
</event>
<event>
 7    1  0.3795708E-015  0.9000772E+02  0.7816164E-02  0.1186339E+00
        -11   -1    0    0    0    0  0.00000000000E+00  0.00000000000E+00  0.45593999997E+02  0.45594000000E+02  0.51100000000E-03 0. -1.
         11   -1    0    0    0    0 -0.00000000000E+00 -0.00000000000E+00 -0.45593999997E+02  0.45594000000E+02  0.51100000000E-03 0.  1.
    9900012    2    1    2    0    0 -0.13840885344E+00 -0.92429821672E+00  0.72082014723E+00  0.90007717877E+02  0.89999978953E+02 0.  0.
         12    1    1    2    0    0  0.13840885344E+00  0.92429821672E+00 -0.72082014723E+00  0.11802821225E+01  0.00000000000E+00 0. -1.
         11    1    3    3    0    0 -0.39730628258E+02  0.87381191979E+00  0.52119867025E+01  0.40080558562E+02  0.51100000000E-03 0. -1.
        -11    1    3    3    0    0  0.24829384557E+01  0.31374861239E+01  0.92267062028E+01  0.10056883720E+02  0.51100000000E-03 0.  1.
        -12    1    3    3    0    0  0.37109280949E+02 -0.49355962604E+01 -0.13717872758E+02  0.39870275595E+02  0.00000000000E+00 0.  1.
</event>
<event>
 7    1  0.3795708E-015  0.9000796E+02  0.7816164E-02  0.1186339E+00
        -11   -1    0    0    0    0  0.00000000000E+00  0.00000000000E+00  0.45593999997E+02  0.45594000000E+02  0.51100000000E-03 0. -1.
         11   -1    0    0    0    0 -0.00000000000E+00 -0.00000000000E+00 -0.45593999997E+02  0.45594000000E+02  0.51100000000E-03 0.  1.
    9900012    2    1    2    0    0  0.10330467356E+01 -0.44306067395E+00 -0.35916432190E+00  0.90007962997E+02  0.90000227308E+02 0.  0.
         12    1    1    2    0    0 -0.10330467356E+01  0.44306067395E+00  0.35916432190E+00  0.11800370031E+01  0.00000000000E+00 0. -1.
         11    1    3    3    0    0  0.23466732770E+02  0.28619552819E+02 -0.13522180531E+02  0.39403245006E+02  0.51100000000E-03 0. -1.
        -11    1    3    3    0    0 -0.16232462383E+01  0.49844085905E+01  0.90911388902E+01  0.10494191914E+02  0.51100000000E-03 0.  1.
        -12    1    3    3    0    0 -0.20810439796E+02 -0.34047022083E+02  0.40718773186E+01  0.40110526077E+02  0.00000000000E+00 0.  1.
</event>
<event>
 7    1  0.3795708E-015  0.9000772E+02  0.7816164E-02  0.1186339E+00
        -11   -1    0    0    0    0  0.00000000000E+00  0.00000000000E+00  0.45593999997E+02  0.45594000000E+02  0.51100000000E-03 0.  1.
         11   -1    0    0    0    0 -0.00000000000E+00 -0.00000000000E+00 -0.45593999997E+02  0.45594000000E+02  0.51100000000E-03 0. -1.
    9900012    2    1    2    0    0 -0.30167024588E+00  0.65570447358E+00  0.93386921921E+00  0.90007718249E+02  0.89999979330E+02 0.  0.
         12    1    1    2    0    0  0.30167024588E+00 -0.65570447358E+00 -0.93386921921E+00  0.11802817513E+01  0.00000000000E+00 0. -1.
         11    1    3    3    0    0  0.86639950194E+01 -0.70805641641E+01  0.22947670794E+01  0.11422134423E+02  0.51100000000E-03 0. -1.
        -11    1    3    3    0    0  0.11415743965E+02 -0.31637096731E+02  0.42300355954E+01  0.33898647484E+02  0.51100000000E-03 0.  1.
         12    1    3    3    0    0 -0.20381409230E+02  0.39373365369E+02 -0.55909334556E+01  0.44686936341E+02  0.00000000000E+00 0. -1.
</event>
<event>
 7    1  0.3795708E-015  0.9000773E+02  0.7816164E-02  0.1186339E+00
        -11   -1    0    0    0    0  0.00000000000E+00  0.00000000000E+00  0.45593999997E+02  0.45594000000E+02  0.51100000000E-03 0. -1.
         11   -1    0    0    0    0 -0.00000000000E+00 -0.00000000000E+00 -0.45593999997E+02  0.45594000000E+02  0.51100000000E-03 0.  1.
    9900012    2    1    2    0    0  0.44487446721E+00  0.10098300643E+01  0.41876766409E+00  0.90007730367E+02  0.89999991608E+02 0.  0.
         12    1    1    2    0    0 -0.44487446721E+00 -0.10098300643E+01 -0.41876766409E+00  0.11802696331E+01  0.00000000000E+00 0. -1.
         11    1    3    3    0    0 -0.10643672406E+02 -0.45287052739E-01  0.19177543374E+01  0.10815155809E+02  0.51100000000E-03 0. -1.
        -11    1    3    3    0    0  0.31115744663E+02 -0.27056637721E+02  0.10673275611E+02  0.42593074828E+02  0.51100000000E-03 0.  1.
         12    1    3    3    0    0 -0.20027197790E+02  0.28111754838E+02 -0.12172262284E+02  0.36599499731E+02  0.00000000000E+00 0. -1.
</event>
<event>
 7    1  0.3795708E-015  0.9000767E+02  0.7816164E-02  0.1186339E+00
        -11   -1    0    0    0    0  0.00000000000E+00  0.00000000000E+00  0.45593999997E+02  0.45594000000E+02  0.51100000000E-03 0.  1.
         11   -1    0    0    0    0 -0.00000000000E+00 -0.00000000000E+00 -0.45593999997E+02  0.45594000000E+02  0.51100000000E-03 0. -1.
    9900012    2    1    2    0    0  0.11594460559E+01  0.20644995570E+00  0.78987274790E-01  0.90007671346E+02  0.89999931808E+02 0.  0.
         12    1    1    2    0    0 -0.11594460559E+01 -0.20644995570E+00 -0.78987274790E-01  0.11803286536E+01  0.00000000000E+00 0. -1.
         11    1    3    3    0    0 -0.44972391086E+01 -0.93435330529E+01  0.21120285592E+01  0.10582411559E+02  0.51100000000E-03 0. -1.
        -11    1    3    3    0    0 -0.30453101881E+02  0.19964820814E+02  0.13395535394E+02  0.38799817694E+02  0.51100000000E-03 0.  1.
         12    1    3    3    0    0  0.36109787045E+02 -0.10414837805E+02 -0.15428576679E+02  0.40625442094E+02  0.00000000000E+00 0. -1.
</event>
<event>
 7    1  0.3795708E-015  0.9000784E+02  0.7816164E-02  0.1186339E+00
        -11   -1    0    0    0    0  0.00000000000E+00  0.00000000000E+00  0.45593999997E+02  0.45594000000E+02  0.51100000000E-03 0.  1.
         11   -1    0    0    0    0 -0.00000000000E+00 -0.00000000000E+00 -0.45593999997E+02  0.45594000000E+02  0.51100000000E-03 0. -1.
    9900012    2    1    2    0    0  0.10637192203E+01 -0.30184892338E+00  0.41252084170E+00  0.90007836962E+02  0.90000099610E+02 0.  0.
         12    1    1    2    0    0 -0.10637192203E+01  0.30184892338E+00 -0.41252084170E+00  0.11801630383E+01  0.00000000000E+00 0. -1.
         11    1    3    3    0    0  0.33910024555E+01 -0.17998353275E+01  0.55571621357E+01  0.67542842791E+01  0.51100000000E-03 0. -1.
        -11    1    3    3    0    0 -0.41107172553E+02  0.12115515271E+02 -0.15009165576E+01  0.42881675531E+02  0.51100000000E-03 0.  1.
         12    1    3    3    0    0  0.38779889318E+02 -0.10617528866E+02 -0.36437247364E+01  0.40371877151E+02  0.00000000000E+00 0. -1.
</event>
<event>
 7    1  0.3795708E-015  0.9000779E+02  0.7816164E-02  0.1186339E+00
        -11   -1    0    0    0    0  0.00000000000E+00  0.00000000000E+00  0.45593999997E+02  0.45594000000E+02  0.51100000000E-03 0. -1.
         11   -1    0    0    0    0 -0.00000000000E+00 -0.00000000000E+00 -0.45593999997E+02  0.45594000000E+02  0.51100000000E-03 0.  1.
    9900012    2    1    2    0    0  0.70720459186E+00  0.90772717604E+00 -0.26229130766E+00  0.90007786591E+02  0.90000048574E+02 0.  0.
         12    1    1    2    0    0 -0.70720459186E+00 -0.90772717604E+00  0.26229130766E+00  0.11802134091E+01  0.00000000000E+00 0. -1.
         11    1    3    3    0    0 -0.28314367828E+02 -0.95492602430E+01  0.32079981821E+02  0.43840814666E+02  0.51100000000E-03 0. -1.
        -11    1    3    3    0    0  0.25488833163E+01 -0.31807687451E+00 -0.87095743650E+01  0.90804551064E+01  0.51100000000E-03 0.  1.
        -12    1    3    3    0    0  0.26472689104E+02  0.10775064294E+02 -0.23632698763E+02  0.37086516819E+02  0.00000000000E+00 0.  1.
</event>
<event>
 7    1  0.3795708E-015  0.9000764E+02  0.7816164E-02  0.1186339E+00
        -11   -1    0    0    0    0  0.00000000000E+00  0.00000000000E+00  0.45593999997E+02  0.45594000000E+02  0.51100000000E-03 0. -1.
         11   -1    0    0    0    0 -0.00000000000E+00 -0.00000000000E+00 -0.45593999997E+02  0.45594000000E+02  0.51100000000E-03 0.  1.
    9900012    2    1    2    0    0 -0.11248448511E+00 -0.11629198693E+01  0.16796782151E+00  0.90007640491E+02  0.89999900545E+02 0.  0.
         12    1    1    2    0    0  0.11248448511E+00  0.11629198693E+01 -0.16796782151E+00  0.11803595091E+01  0.00000000000E+00 0. -1.
         11    1    3    3    0    0  0.19527203022E+01  0.64650075366E+01 -0.57574870753E+01  0.88745758609E+01  0.51100000000E-03 0. -1.
        -11    1    3    3    0    0  0.83088436319E+01  0.33158628185E+02  0.16175387698E+02  0.37817650284E+02  0.51100000000E-03 0.  1.
         12    1    3    3    0    0 -0.10374048419E+02 -0.40786555590E+02 -0.10249932801E+02  0.43315414346E+02  0.00000000000E+00 0. -1.
</event>
<event>
 7    1  0.3795708E-015  0.9000774E+02  0.7816164E-02  0.1186339E+00
        -11   -1    0    0    0    0  0.00000000000E+00  0.00000000000E+00  0.45593999997E+02  0.45594000000E+02  0.51100000000E-03 0. -1.
         11   -1    0    0    0    0 -0.00000000000E+00 -0.00000000000E+00 -0.45593999997E+02  0.45594000000E+02  0.51100000000E-03 0.  1.
    9900012    2    1    2    0    0 -0.12413401157E+00 -0.10391691921E+00 -0.11690996354E+01  0.90007744970E+02  0.90000006403E+02 0.  0.
         12    1    1    2    0    0  0.12413401157E+00  0.10391691921E+00  0.11690996354E+01  0.11802550302E+01  0.00000000000E+00 0. -1.
         11    1    3    3    0    0 -0.58211448957E+01  0.73693407550E+01  0.21375223029E+01  0.96312986101E+01  0.51100000000E-03 0. -1.
        -11    1    3    3    0    0 -0.14221785882E+02  0.29808537612E+02 -0.15356841168E+02  0.36423078936E+02  0.51100000000E-03 0.  1.
         12    1    3    3    0    0  0.19918796767E+02 -0.37281795286E+02  0.12050219230E+02  0.43953367424E+02  0.00000000000E+00 0. -1.
</event>
<event>
 8    1  0.3795708E-015  0.9000760E+02  0.7816164E-02  0.1186339E+00
        -11   -1    0    0    0    0  0.00000000000E+00  0.00000000000E+00  0.45593999997E+02  0.45594000000E+02  0.51100000000E-03 0.  1.
         11   -1    0    0    0    0 -0.00000000000E+00 -0.00000000000E+00 -0.45593999997E+02  0.45594000000E+02  0.51100000000E-03 0. -1.
    9900012    2    1    2    0    0  0.50209965448E+00  0.74401295287E+00 -0.76660342876E+00  0.90007601697E+02  0.89999861239E+02 0.  0.
         23    2    3    3    0    0  0.22883243400E+02 -0.20634655708E+01 -0.15907546416E+02  0.62840605441E+02  0.56284908639E+02 0.  0.
         12    1    1    2    0    0 -0.50209965448E+00 -0.74401295287E+00  0.76660342876E+00  0.11803983031E+01  0.00000000000E+00 0. -1.
         11    1    4    4    0    0  0.21027668563E+02 -0.21427217548E+02 -0.27060837067E+02  0.40417538273E+02  0.51100000000E-03 0. -1.
        -11    1    4    4    0    0  0.18555748377E+01  0.19363751977E+02  0.11153290651E+02  0.22423067168E+02  0.51100000000E-03 0.  1.
        -12    1    3    3    0    0 -0.22381143746E+02  0.28074785237E+01  0.15140942988E+02  0.27166996256E+02  0.00000000000E+00 0.  1.
</event>
<event>
 7    1  0.3795708E-015  0.9000789E+02  0.7816164E-02  0.1186339E+00
        -11   -1    0    0    0    0  0.00000000000E+00  0.00000000000E+00  0.45593999997E+02  0.45594000000E+02  0.51100000000E-03 0.  1.
         11   -1    0    0    0    0 -0.00000000000E+00 -0.00000000000E+00 -0.45593999997E+02  0.45594000000E+02  0.51100000000E-03 0. -1.
    9900012    2    1    2    0    0 -0.50694569892E+00 -0.41765548588E+00  0.98042895205E+00  0.90007885185E+02  0.90000148469E+02 0.  0.
         12    1    1    2    0    0  0.50694569892E+00  0.41765548588E+00 -0.98042895205E+00  0.11801148150E+01  0.00000000000E+00 0. -1.
         11    1    3    3    0    0 -0.25701596532E+02 -0.10126679427E+02 -0.26718598762E+02  0.38431825621E+02  0.51100000000E-03 0. -1.
        -11    1    3    3    0    0 -0.60087000429E+01  0.55243529734E+01 -0.18821105529E+01  0.83764725496E+01  0.51100000000E-03 0.  1.
        -12    1    3    3    0    0  0.31203350876E+02  0.41846709676E+01  0.29581138267E+02  0.43199587014E+02  0.00000000000E+00 0.  1.
</event>
<event>
 7    1  0.3795708E-015  0.9000774E+02  0.7816164E-02  0.1186339E+00
        -11   -1    0    0    0    0  0.00000000000E+00  0.00000000000E+00  0.45593999997E+02  0.45594000000E+02  0.51100000000E-03 0.  1.
         11   -1    0    0    0    0 -0.00000000000E+00 -0.00000000000E+00 -0.45593999997E+02  0.45594000000E+02  0.51100000000E-03 0. -1.
    9900012    2    1    2    0    0 -0.40962978074E+00 -0.10283700949E+01  0.40948016129E+00  0.90007739176E+02  0.90000000534E+02 0.  0.
         12    1    1    2    0    0  0.40962978074E+00  0.10283700949E+01 -0.40948016129E+00  0.11802608236E+01  0.00000000000E+00 0. -1.
         11    1    3    3    0    0  0.16739148953E+02 -0.28832375856E+02 -0.15046427755E+02  0.36577315287E+02  0.51100000000E-03 0. -1.
        -11    1    3    3    0    0  0.69325724388E+01  0.37219092171E+01 -0.86593224948E+01  0.11700300644E+02  0.51100000000E-03 0.  1.
        -12    1    3    3    0    0 -0.24081351172E+02  0.24082096544E+02  0.24115230411E+02  0.41730123245E+02  0.00000000000E+00 0.  1.
</event>
<event>
 7    1  0.3795708E-015  0.9000774E+02  0.7816164E-02  0.1186339E+00
        -11   -1    0    0    0    0  0.00000000000E+00  0.00000000000E+00  0.45593999997E+02  0.45594000000E+02  0.51100000000E-03 0. -1.
         11   -1    0    0    0    0 -0.00000000000E+00 -0.00000000000E+00 -0.45593999997E+02  0.45594000000E+02  0.51100000000E-03 0.  1.
    9900012    2    1    2    0    0  0.10645829131E+01  0.50474697100E+00 -0.70085860768E-01  0.90007738033E+02  0.89999999375E+02 0.  0.
         12    1    1    2    0    0 -0.10645829131E+01 -0.50474697100E+00  0.70085860768E-01  0.11802619673E+01  0.00000000000E+00 0. -1.
         11    1    3    3    0    0  0.29649902840E+01 -0.36778730873E+02 -0.85539668844E+01  0.37876596491E+02  0.51100000000E-03 0. -1.
        -11    1    3    3    0    0  0.10550567712E+02  0.12717463187E+01 -0.49575041096E+01  0.11726408870E+02  0.51100000000E-03 0.  1.
        -12    1    3    3    0    0 -0.12450975083E+02  0.36011731525E+02  0.13441385133E+02  0.40404732671E+02  0.00000000000E+00 0.  1.
</event>
<event>
 7    1  0.3795708E-015  0.9000779E+02  0.7816164E-02  0.1186339E+00
        -11   -1    0    0    0    0  0.00000000000E+00  0.00000000000E+00  0.45593999997E+02  0.45594000000E+02  0.51100000000E-03 0. -1.
         11   -1    0    0    0    0 -0.00000000000E+00 -0.00000000000E+00 -0.45593999997E+02  0.45594000000E+02  0.51100000000E-03 0.  1.
    9900012    2    1    2    0    0  0.81109892399E+00 -0.49096786370E+00 -0.70282630464E+00  0.90007789967E+02  0.90000051994E+02 0.  0.
         12    1    1    2    0    0 -0.81109892399E+00  0.49096786370E+00  0.70282630464E+00  0.11802100331E+01  0.00000000000E+00 0. -1.
         11    1    3    3    0    0  0.14784991637E+02 -0.52889813815E+01  0.47027949631E+01  0.16391631478E+02  0.51100000000E-03 0. -1.
        -11    1    3    3    0    0  0.10622488223E+02  0.18140327848E+02 -0.29817042270E+02  0.36482389731E+02  0.51100000000E-03 0.  1.
         12    1    3    3    0    0 -0.24596380936E+02 -0.13342314330E+02  0.24411421002E+02  0.37133768758E+02  0.00000000000E+00 0. -1.
</event>
<event>
 7    1  0.3795708E-015  0.9000715E+02  0.7816164E-02  0.1186340E+00
        -11   -1    0    0    0    0  0.00000000000E+00  0.00000000000E+00  0.45593999997E+02  0.45594000000E+02  0.51100000000E-03 0. -1.
         11   -1    0    0    0    0 -0.00000000000E+00 -0.00000000000E+00 -0.45593999997E+02  0.45594000000E+02  0.51100000000E-03 0.  1.
    9900012    2    1    2    0    0 -0.11405279234E+01 -0.23757555090E+00  0.19276549308E+00  0.90007150889E+02  0.89999404479E+02 0.  0.
         12    1    1    2    0    0  0.11405279234E+01  0.23757555090E+00 -0.19276549308E+00  0.11808491105E+01  0.00000000000E+00 0. -1.
         11    1    3    3    0    0 -0.21731559102E+02  0.16370106707E+02  0.25791446318E+02  0.37489195217E+02  0.51100000000E-03 0. -1.
        -11    1    3    3    0    0  0.28255593351E+01 -0.18556028612E+02  0.27859149064E+01  0.18975544934E+02  0.51100000000E-03 0.  1.
        -12    1    3    3    0    0  0.17765471843E+02  0.19483463544E+01 -0.28384595731E+02  0.33542410739E+02  0.00000000000E+00 0.  1.
</event>
<event>
 7    1  0.3795708E-015  0.9000780E+02  0.7816164E-02  0.1186339E+00
        -11   -1    0    0    0    0  0.00000000000E+00  0.00000000000E+00  0.45593999997E+02  0.45594000000E+02  0.51100000000E-03 0. -1.
         11   -1    0    0    0    0 -0.00000000000E+00 -0.00000000000E+00 -0.45593999997E+02  0.45594000000E+02  0.51100000000E-03 0.  1.
    9900012    2    1    2    0    0  0.11318194986E+01  0.21549255172E+00  0.25577911555E+00  0.90007798588E+02  0.90000060729E+02 0.  0.
         12    1    1    2    0    0 -0.11318194986E+01 -0.21549255172E+00 -0.25577911555E+00  0.11802014122E+01  0.00000000000E+00 0. -1.
         11    1    3    3    0    0 -0.88917556960E+01 -0.33985930499E+01  0.14044373687E+01  0.96221722422E+01  0.51100000000E-03 0. -1.
        -11    1    3    3    0    0 -0.21608029592E+02  0.40113085112E+01 -0.30257548033E+02  0.37396747881E+02  0.51100000000E-03 0.  1.
         12    1    3    3    0    0  0.31631604787E+02 -0.39722290960E+00  0.29108889780E+02  0.42988878465E+02  0.00000000000E+00 0. -1.
</event>
<event>
 7    1  0.3795708E-015  0.9000774E+02  0.7816164E-02  0.1186339E+00
        -11   -1    0    0    0    0  0.00000000000E+00  0.00000000000E+00  0.45593999997E+02  0.45594000000E+02  0.51100000000E-03 0.  1.
         11   -1    0    0    0    0 -0.00000000000E+00 -0.00000000000E+00 -0.45593999997E+02  0.45594000000E+02  0.51100000000E-03 0. -1.
    9900012    2    1    2    0    0  0.35112048473E+00 -0.81762821684E+00 -0.77538337013E+00  0.90007736950E+02  0.89999998278E+02 0.  0.
         12    1    1    2    0    0 -0.35112048473E+00  0.81762821684E+00  0.77538337013E+00  0.11802630497E+01  0.00000000000E+00 0. -1.
         11    1    3    3    0    0  0.45054487781E+00 -0.89632211783E+01  0.39567361808E+01  0.98080622982E+01  0.51100000000E-03 0. -1.
        -11    1    3    3    0    0 -0.83925636518E+01 -0.29721519426E+02  0.17515202408E+02  0.35504734294E+02  0.51100000000E-03 0.  1.
         12    1    3    3    0    0  0.82931392587E+01  0.37867112387E+02 -0.22247321959E+02  0.44694940358E+02  0.00000000000E+00 0. -1.
</event>
<event>
 7    1  0.3795708E-015  0.9000773E+02  0.7816164E-02  0.1186339E+00
        -11   -1    0    0    0    0  0.00000000000E+00  0.00000000000E+00  0.45593999997E+02  0.45594000000E+02  0.51100000000E-03 0.  1.
         11   -1    0    0    0    0 -0.00000000000E+00 -0.00000000000E+00 -0.45593999997E+02  0.45594000000E+02  0.51100000000E-03 0. -1.
    9900012    2    1    2    0    0 -0.36934018783E+00 -0.10950327032E+01  0.23985918066E+00  0.90007728327E+02  0.89999989541E+02 0.  0.
         12    1    1    2    0    0  0.36934018783E+00  0.10950327032E+01 -0.23985918066E+00  0.11802716729E+01  0.00000000000E+00 0. -1.
         11    1    3    3    0    0 -0.72060953396E+01 -0.19982555803E+01  0.59038976998E+01  0.95276882673E+01  0.51100000000E-03 0. -1.
        -11    1    3    3    0    0 -0.66207876631E+01 -0.23706544448E+02  0.27591808832E+02  0.36974896806E+02  0.51100000000E-03 0.  1.
         12    1    3    3    0    0  0.13457542815E+02  0.24609767325E+02 -0.33255847352E+02  0.43505143253E+02  0.00000000000E+00 0. -1.
</event>
<event>
 7    1  0.3795708E-015  0.9000778E+02  0.7816164E-02  0.1186339E+00
        -11   -1    0    0    0    0  0.00000000000E+00  0.00000000000E+00  0.45593999997E+02  0.45594000000E+02  0.51100000000E-03 0. -1.
         11   -1    0    0    0    0 -0.00000000000E+00 -0.00000000000E+00 -0.45593999997E+02  0.45594000000E+02  0.51100000000E-03 0.  1.
    9900012    2    1    2    0    0 -0.39604303531E-01 -0.97689689113E+00 -0.66106965711E+00  0.90007784287E+02  0.90000046240E+02 0.  0.
         12    1    1    2    0    0  0.39604303531E-01  0.97689689113E+00  0.66106965711E+00  0.11802157126E+01  0.00000000000E+00 0. -1.
         11    1    3    3    0    0  0.17310099887E+02  0.12850091019E+02  0.28811897455E+02  0.35984577703E+02  0.51100000000E-03 0. -1.
        -11    1    3    3    0    0  0.97644166333E+01  0.59686756061E+01 -0.50554663312E+01  0.12511061536E+02  0.51100000000E-03 0.  1.
        -12    1    3    3    0    0 -0.27114120823E+02 -0.19795663516E+02 -0.24417500781E+02  0.41512145048E+02  0.00000000000E+00 0.  1.
</event>
<event>
 7    1  0.3795708E-015  0.9000778E+02  0.7816164E-02  0.1186339E+00
        -11   -1    0    0    0    0  0.00000000000E+00  0.00000000000E+00  0.45593999997E+02  0.45594000000E+02  0.51100000000E-03 0.  1.
         11   -1    0    0    0    0 -0.00000000000E+00 -0.00000000000E+00 -0.45593999997E+02  0.45594000000E+02  0.51100000000E-03 0. -1.
    9900012    2    1    2    0    0  0.12409752085E+00  0.11413565104E+01  0.27355611340E+00  0.90007776366E+02  0.90000038214E+02 0.  0.
         12    1    1    2    0    0 -0.12409752085E+00 -0.11413565104E+01 -0.27355611340E+00  0.11802236338E+01  0.00000000000E+00 0. -1.
         11    1    3    3    0    0  0.92969019648E+01 -0.29077018094E+01 -0.25447507960E+01  0.10067913033E+02  0.51100000000E-03 0. -1.
        -11    1    3    3    0    0  0.13213687529E+02 -0.30630247098E+02  0.15464210305E+02  0.36768945810E+02  0.51100000000E-03 0.  1.
         12    1    3    3    0    0 -0.22386491973E+02  0.34679305418E+02 -0.12645903396E+02  0.43170917523E+02  0.00000000000E+00 0. -1.
</event>
<event>
 7    1  0.3795708E-015  0.9000774E+02  0.7816164E-02  0.1186339E+00
        -11   -1    0    0    0    0  0.00000000000E+00  0.00000000000E+00  0.45593999997E+02  0.45594000000E+02  0.51100000000E-03 0. -1.
         11   -1    0    0    0    0 -0.00000000000E+00 -0.00000000000E+00 -0.45593999997E+02  0.45594000000E+02  0.51100000000E-03 0.  1.
    9900012    2    1    2    0    0  0.13214823820E+00 -0.11524919964E+01 -0.21751412952E+00  0.90007740132E+02  0.90000001502E+02 0.  0.
         12    1    1    2    0    0 -0.13214823820E+00  0.11524919964E+01  0.21751412952E+00  0.11802598676E+01  0.00000000000E+00 0. -1.
         11    1    3    3    0    0 -0.50667798241E+01 -0.18392956648E+02  0.24743199932E+02  0.31244184342E+02  0.51100000000E-03 0. -1.
        -11    1    3    3    0    0 -0.14765209269E+02 -0.61403598163E+01  0.40461307554E+01  0.16495047674E+02  0.51100000000E-03 0.  1.
        -12    1    3    3    0    0  0.19964137331E+02  0.23380824468E+02 -0.29006844817E+02  0.42268508117E+02  0.00000000000E+00 0.  1.
</event>
<event>
 7    1  0.3795708E-015  0.9000774E+02  0.7816164E-02  0.1186339E+00
        -11   -1    0    0    0    0  0.00000000000E+00  0.00000000000E+00  0.45593999997E+02  0.45594000000E+02  0.51100000000E-03 0.  1.
         11   -1    0    0    0    0 -0.00000000000E+00 -0.00000000000E+00 -0.45593999997E+02  0.45594000000E+02  0.51100000000E-03 0. -1.
    9900012    2    1    2    0    0 -0.93019810222E+00 -0.63009483168E+00  0.36157029421E+00  0.90007736858E+02  0.89999998185E+02 0.  0.
         12    1    1    2    0    0  0.93019810222E+00  0.63009483168E+00 -0.36157029421E+00  0.11802631418E+01  0.00000000000E+00 0. -1.
         11    1    3    3    0    0  0.15637919714E+02 -0.15419627810E+02 -0.35435628268E+02  0.41689245685E+02  0.51100000000E-03 0. -1.
        -11    1    3    3    0    0 -0.96085347985E+01  0.25906017599E+01  0.93815783862E-01  0.99520832047E+01  0.51100000000E-03 0.  1.
        -12    1    3    3    0    0 -0.69595830173E+01  0.12198931218E+02  0.35703382778E+02  0.38366407969E+02  0.00000000000E+00 0.  1.
</event>
<event>
 7    1  0.3795708E-015  0.9000775E+02  0.7816164E-02  0.1186339E+00
        -11   -1    0    0    0    0  0.00000000000E+00  0.00000000000E+00  0.45593999997E+02  0.45594000000E+02  0.51100000000E-03 0. -1.
         11   -1    0    0    0    0 -0.00000000000E+00 -0.00000000000E+00 -0.45593999997E+02  0.45594000000E+02  0.51100000000E-03 0.  1.
    9900012    2    1    2    0    0 -0.97743090130E+00 -0.66131339040E+00  0.16756885082E-01  0.90007751145E+02  0.90000012660E+02 0.  0.
         12    1    1    2    0    0  0.97743090130E+00  0.66131339040E+00 -0.16756885082E-01  0.11802488553E+01  0.00000000000E+00 0. -1.
         11    1    3    3    0    0  0.33373621892E+02 -0.71960005879E+01  0.12448709693E+02  0.36339392344E+02  0.51100000000E-03 0. -1.
        -11    1    3    3    0    0  0.74114911274E+01  0.62445847247E+01  0.11319735801E+01  0.97573768792E+01  0.51100000000E-03 0.  1.
        -12    1    3    3    0    0 -0.41762543921E+02  0.29010247280E+00 -0.13563926388E+02  0.43910981921E+02  0.00000000000E+00 0.  1.
</event>
<event>
 7    1  0.3795708E-015  0.9000771E+02  0.7816164E-02  0.1186339E+00
        -11   -1    0    0    0    0  0.00000000000E+00  0.00000000000E+00  0.45593999997E+02  0.45594000000E+02  0.51100000000E-03 0.  1.
         11   -1    0    0    0    0 -0.00000000000E+00 -0.00000000000E+00 -0.45593999997E+02  0.45594000000E+02  0.51100000000E-03 0. -1.
    9900012    2    1    2    0    0 -0.51949586354E+00  0.10197826185E+01 -0.28852282147E+00  0.90007712764E+02  0.89999973772E+02 0.  0.
         12    1    1    2    0    0  0.51949586354E+00 -0.10197826185E+01  0.28852282147E+00  0.11802872361E+01  0.00000000000E+00 0. -1.
         11    1    3    3    0    0  0.27813549504E+02 -0.74654909664E+01 -0.25302037571E+02  0.38334321396E+02  0.51100000000E-03 0. -1.
        -11    1    3    3    0    0  0.44855841908E+01 -0.20062096501E+01 -0.42282309710E+01  0.64825365481E+01  0.51100000000E-03 0.  1.
        -12    1    3    3    0    0 -0.32818629558E+02  0.10491483235E+02  0.29241745721E+02  0.45190854820E+02  0.00000000000E+00 0.  1.
</event>
<event>
 7    1  0.3795708E-015  0.9000768E+02  0.7816164E-02  0.1186339E+00
        -11   -1    0    0    0    0  0.00000000000E+00  0.00000000000E+00  0.45593999997E+02  0.45594000000E+02  0.51100000000E-03 0.  1.
         11   -1    0    0    0    0 -0.00000000000E+00 -0.00000000000E+00 -0.45593999997E+02  0.45594000000E+02  0.51100000000E-03 0. -1.
    9900012    2    1    2    0    0  0.17255740812E-01  0.11589087187E+01 -0.22313147756E+00  0.90007680198E+02  0.89999940777E+02 0.  0.
         12    1    1    2    0    0 -0.17255740812E-01 -0.11589087187E+01  0.22313147756E+00  0.11803198020E+01  0.00000000000E+00 0. -1.
         11    1    3    3    0    0  0.10082526644E+02 -0.12830167709E+01 -0.32795435609E+02  0.34334298778E+02  0.51100000000E-03 0. -1.
        -11    1    3    3    0    0  0.74629605371E+01 -0.17659607201E+01 -0.81187831920E+01  0.11168215525E+02  0.51100000000E-03 0.  1.
        -12    1    3    3    0    0 -0.17528231440E+02  0.42078862097E+01  0.40691087323E+02  0.44505165895E+02  0.00000000000E+00 0.  1.
</event>
<event>
 7    1  0.3795708E-015  0.9000776E+02  0.7816164E-02  0.1186339E+00
        -11   -1    0    0    0    0  0.00000000000E+00  0.00000000000E+00  0.45593999997E+02  0.45594000000E+02  0.51100000000E-03 0. -1.
         11   -1    0    0    0    0 -0.00000000000E+00 -0.00000000000E+00 -0.45593999997E+02  0.45594000000E+02  0.51100000000E-03 0.  1.
    9900012    2    1    2    0    0  0.40907730154E+00  0.17319172912E+00 -0.10934439277E+01  0.90007763059E+02  0.90000024731E+02 0.  0.
         12    1    1    2    0    0 -0.40907730154E+00 -0.17319172912E+00  0.10934439277E+01  0.11802369409E+01  0.00000000000E+00 0. -1.
         11    1    3    3    0    0  0.14701394186E+02 -0.18563520432E+02  0.30049102936E+02  0.38258121613E+02  0.51100000000E-03 0. -1.
        -11    1    3    3    0    0 -0.12547085966E+01 -0.83754142850E+01 -0.27047503069E-01  0.84689190536E+01  0.51100000000E-03 0.  1.
        -12    1    3    3    0    0 -0.13037608288E+02  0.27112126446E+02 -0.31115499361E+02  0.43280722392E+02  0.00000000000E+00 0.  1.
</event>
<event>
 7    1  0.3795708E-015  0.9000784E+02  0.7816164E-02  0.1186339E+00
        -11   -1    0    0    0    0  0.00000000000E+00  0.00000000000E+00  0.45593999997E+02  0.45594000000E+02  0.51100000000E-03 0. -1.
         11   -1    0    0    0    0 -0.00000000000E+00 -0.00000000000E+00 -0.45593999997E+02  0.45594000000E+02  0.51100000000E-03 0.  1.
    9900012    2    1    2    0    0 -0.38858596765E+00  0.10667191551E+01  0.32233158012E+00  0.90007836258E+02  0.90000098897E+02 0.  0.
         12    1    1    2    0    0  0.38858596765E+00 -0.10667191551E+01 -0.32233158012E+00  0.11801637419E+01  0.00000000000E+00 0. -1.
         11    1    3    3    0    0 -0.56711961564E+01  0.10845191428E+02  0.35837373550E+02  0.37869486215E+02  0.51100000000E-03 0. -1.
        -11    1    3    3    0    0  0.22029292061E+01 -0.55229525686E+00  0.76039808449E+01  0.79358964263E+01  0.51100000000E-03 0.  1.
        -12    1    3    3    0    0  0.30796809827E+01 -0.92261770162E+01 -0.43119022815E+02  0.44202453617E+02  0.00000000000E+00 0.  1.
</event>
<event>
 7    1  0.3795708E-015  0.9000772E+02  0.7816164E-02  0.1186339E+00
        -11   -1    0    0    0    0  0.00000000000E+00  0.00000000000E+00  0.45593999997E+02  0.45594000000E+02  0.51100000000E-03 0.  1.
         11   -1    0    0    0    0 -0.00000000000E+00 -0.00000000000E+00 -0.45593999997E+02  0.45594000000E+02  0.51100000000E-03 0. -1.
    9900012    2    1    2    0    0  0.66059102423E+00  0.96125289189E+00  0.18076809474E+00  0.90007718369E+02  0.89999979452E+02 0.  0.
         12    1    1    2    0    0 -0.66059102423E+00 -0.96125289189E+00 -0.18076809474E+00  0.11802816306E+01  0.00000000000E+00 0. -1.
         11    1    3    3    0    0 -0.27803552514E+01 -0.24825299800E+02 -0.23843475347E+02  0.34533131952E+02  0.51100000000E-03 0. -1.
        -11    1    3    3    0    0 -0.58210026353E+01 -0.61352950896E+01 -0.62495382909E+01  0.10515828385E+02  0.51100000000E-03 0.  1.
        -12    1    3    3    0    0  0.92619489109E+01  0.31921847782E+02  0.30273781733E+02  0.44958758033E+02  0.00000000000E+00 0.  1.
</event>
<event>
 7    1  0.3795708E-015  0.9000756E+02  0.7816164E-02  0.1186339E+00
        -11   -1    0    0    0    0  0.00000000000E+00  0.00000000000E+00  0.45593999997E+02  0.45594000000E+02  0.51100000000E-03 0. -1.
         11   -1    0    0    0    0 -0.00000000000E+00 -0.00000000000E+00 -0.45593999997E+02  0.45594000000E+02  0.51100000000E-03 0.  1.
    9900012    2    1    2    0    0  0.15395340844E+00 -0.61765947042E+00  0.99409869315E+00  0.90007560639E+02  0.89999819639E+02 0.  0.
         12    1    1    2    0    0 -0.15395340844E+00  0.61765947042E+00 -0.99409869315E+00  0.11804393610E+01  0.00000000000E+00 0. -1.
         11    1    3    3    0    0 -0.32843755527E+02 -0.18894584731E+02 -0.51537810200E+01  0.38239757692E+02  0.51100000000E-03 0. -1.
        -11    1    3    3    0    0  0.30630184908E+01 -0.98178100775E+01  0.22648325169E+01  0.10530951694E+02  0.51100000000E-03 0.  1.
        -12    1    3    3    0    0  0.29934690445E+02  0.28094735338E+02  0.38830471963E+01  0.41236851253E+02  0.00000000000E+00 0.  1.
</event>
<event>
 7    1  0.3795708E-015  0.9000775E+02  0.7816164E-02  0.1186339E+00
        -11   -1    0    0    0    0  0.00000000000E+00  0.00000000000E+00  0.45593999997E+02  0.45594000000E+02  0.51100000000E-03 0. -1.
         11   -1    0    0    0    0 -0.00000000000E+00 -0.00000000000E+00 -0.45593999997E+02  0.45594000000E+02  0.51100000000E-03 0.  1.
    9900012    2    1    2    0    0 -0.25640772885E+00 -0.10553917435E+01 -0.46195499723E+00  0.90007746182E+02  0.90000007632E+02 0.  0.
         12    1    1    2    0    0  0.25640772885E+00  0.10553917435E+01  0.46195499723E+00  0.11802538181E+01  0.00000000000E+00 0. -1.
         11    1    3    3    0    0 -0.25507445879E+01  0.19247346178E+01 -0.36078560141E+01  0.48194944321E+01  0.51100000000E-03 0. -1.
        -11    1    3    3    0    0 -0.68620834370E+01  0.44562754115E+01 -0.39810043208E+02  0.40642171695E+02  0.51100000000E-03 0.  1.
         12    1    3    3    0    0  0.91564202961E+01 -0.74364017727E+01  0.42955944225E+02  0.44546080054E+02  0.00000000000E+00 0. -1.
</event>
<event>
 7    1  0.3795708E-015  0.9000777E+02  0.7816164E-02  0.1186339E+00
        -11   -1    0    0    0    0  0.00000000000E+00  0.00000000000E+00  0.45593999997E+02  0.45594000000E+02  0.51100000000E-03 0.  1.
         11   -1    0    0    0    0 -0.00000000000E+00 -0.00000000000E+00 -0.45593999997E+02  0.45594000000E+02  0.51100000000E-03 0. -1.
    9900012    2    1    2    0    0  0.11258282385E+01 -0.33662706899E+00 -0.11020246702E+00  0.90007766299E+02  0.90000028014E+02 0.  0.
         12    1    1    2    0    0 -0.11258282385E+01  0.33662706899E+00  0.11020246702E+00  0.11802337014E+01  0.00000000000E+00 0. -1.
         11    1    3    3    0    0  0.20437746474E+02  0.28483077845E+02 -0.86819113849E+01  0.36115963092E+02  0.51100000000E-03 0. -1.
        -11    1    3    3    0    0  0.68655673351E+01  0.40725962958E+01 -0.53491529231E+01  0.96091358965E+01  0.51100000000E-03 0.  1.
        -12    1    3    3    0    0 -0.26177485571E+02 -0.32892301210E+02  0.13920861841E+02  0.44282667310E+02  0.00000000000E+00 0.  1.
</event>
<event>
 7    1  0.3795708E-015  0.9000762E+02  0.7816164E-02  0.1186339E+00
        -11   -1    0    0    0    0  0.00000000000E+00  0.00000000000E+00  0.45593999997E+02  0.45594000000E+02  0.51100000000E-03 0. -1.
         11   -1    0    0    0    0 -0.00000000000E+00 -0.00000000000E+00 -0.45593999997E+02  0.45594000000E+02  0.51100000000E-03 0.  1.
    9900012    2    1    2    0    0  0.47348730253E+00  0.87306554154E+00 -0.63786642475E+00  0.90007615638E+02  0.89999875365E+02 0.  0.
         12    1    1    2    0    0 -0.47348730253E+00 -0.87306554154E+00  0.63786642475E+00  0.11803843617E+01  0.00000000000E+00 0. -1.
         11    1    3    3    0    0  0.20427959235E+02  0.17337258297E+02  0.16714663366E+01  0.26845406380E+02  0.51100000000E-03 0. -1.
        -11    1    3    3    0    0  0.32271838418E+01  0.17572415748E+02 -0.11126723532E+02  0.21047766808E+02  0.51100000000E-03 0.  1.
        -12    1    3    3    0    0 -0.23181655774E+02 -0.34036608504E+02  0.88173907711E+01  0.42114442450E+02  0.00000000000E+00 0.  1.
</event>
<event>
 7    1  0.3959495E-015  0.9000750E+02  0.7816164E-02  0.1186340E+00
        -11   -1    0    0    0    0  0.00000000000E+00  0.00000000000E+00  0.45593999997E+02  0.45594000000E+02  0.51100000000E-03 0.  1.
         11   -1    0    0    0    0 -0.00000000000E+00 -0.00000000000E+00 -0.45593999997E+02  0.45594000000E+02  0.51100000000E-03 0. -1.
    9900012    2    1    2    0    0 -0.28061997560E+00  0.77117088028E+00  0.84861021351E+00  0.90007495281E+02  0.89999753418E+02 0.  0.
         12    1    1    2    0    0  0.28061997560E+00 -0.77117088028E+00 -0.84861021351E+00  0.11805047191E+01  0.00000000000E+00 0. -1.
         11    1    3    3    0    0  0.74167987063E+01  0.25271242680E+01 -0.36103364885E+02  0.36943852214E+02  0.51100000000E-03 0. -1.
        -11    1    3    3    0    0  0.86228996395E+01  0.36131833179E+01 -0.27984813105E+01  0.97591490299E+01  0.51100000000E-03 0.  1.
        -12    1    3    3    0    0 -0.16320318321E+02 -0.53691367056E+01  0.39750456409E+02  0.43304494037E+02  0.00000000000E+00 0.  1.
</event>
<event>
 7    1  0.3795708E-015  0.9000774E+02  0.7816164E-02  0.1186339E+00
        -11   -1    0    0    0    0  0.00000000000E+00  0.00000000000E+00  0.45593999997E+02  0.45594000000E+02  0.51100000000E-03 0.  1.
         11   -1    0    0    0    0 -0.00000000000E+00 -0.00000000000E+00 -0.45593999997E+02  0.45594000000E+02  0.51100000000E-03 0. -1.
    9900012    2    1    2    0    0 -0.67182580325E+00  0.14802691022E+00  0.95903235134E+00  0.90007743703E+02  0.90000005120E+02 0.  0.
         12    1    1    2    0    0  0.67182580325E+00 -0.14802691022E+00 -0.95903235134E+00  0.11802562972E+01  0.00000000000E+00 0. -1.
         11    1    3    3    0    0  0.84494805370E+01 -0.43109305428E+01 -0.32515955814E+01  0.10027498072E+02  0.51100000000E-03 0. -1.
        -11    1    3    3    0    0 -0.13071788449E+02 -0.36459309136E+02  0.96560809791E+00  0.38743841771E+02  0.51100000000E-03 0.  1.
         12    1    3    3    0    0  0.39504821085E+01  0.40918266589E+02  0.32450198348E+01  0.41236403860E+02  0.00000000000E+00 0. -1.
</event>
<event>
 7    1  0.3795708E-015  0.9000770E+02  0.7816164E-02  0.1186339E+00
        -11   -1    0    0    0    0  0.00000000000E+00  0.00000000000E+00  0.45593999997E+02  0.45594000000E+02  0.51100000000E-03 0.  1.
         11   -1    0    0    0    0 -0.00000000000E+00 -0.00000000000E+00 -0.45593999997E+02  0.45594000000E+02  0.51100000000E-03 0. -1.
    9900012    2    1    2    0    0  0.64796871287E+00  0.98231808294E+00  0.91073588236E-01  0.90007700603E+02  0.89999961451E+02 0.  0.
         12    1    1    2    0    0 -0.64796871287E+00 -0.98231808294E+00 -0.91073588236E-01  0.11802993974E+01  0.00000000000E+00 0. -1.
         11    1    3    3    0    0 -0.52014073743E+01 -0.32011357992E+02 -0.16409640219E+02  0.36346361187E+02  0.51100000000E-03 0. -1.
        -11    1    3    3    0    0  0.47992282086E+01 -0.55221361424E+01 -0.56265221677E+01  0.92295357921E+01  0.51100000000E-03 0.  1.
        -12    1    3    3    0    0  0.10501478786E+01  0.38515812218E+02  0.22127235975E+02  0.44431803623E+02  0.00000000000E+00 0.  1.
</event>
<event>
 7    1  0.3795708E-015  0.9000772E+02  0.7816164E-02  0.1186339E+00
        -11   -1    0    0    0    0  0.00000000000E+00  0.00000000000E+00  0.45593999997E+02  0.45594000000E+02  0.51100000000E-03 0.  1.
         11   -1    0    0    0    0 -0.00000000000E+00 -0.00000000000E+00 -0.45593999997E+02  0.45594000000E+02  0.51100000000E-03 0. -1.
    9900012    2    1    2    0    0  0.80989186292E+00 -0.58642795988E-01  0.85655934359E+00  0.90007721340E+02  0.89999982461E+02 0.  0.
         12    1    1    2    0    0 -0.80989186292E+00  0.58642795988E-01 -0.85655934359E+00  0.11802786604E+01  0.00000000000E+00 0. -1.
         11    1    3    3    0    0  0.16988344047E+02 -0.13703792766E+02 -0.30427474061E+02  0.37446347587E+02  0.51100000000E-03 0. -1.
        -11    1    3    3    0    0 -0.97364674881E+01 -0.43758387568E+01 -0.48094719490E+01  0.11708022235E+02  0.51100000000E-03 0.  1.
        -12    1    3    3    0    0 -0.64419846955E+01  0.18020988727E+02  0.36093505353E+02  0.40853351517E+02  0.00000000000E+00 0.  1.
</event>
<event>
 7    1  0.3795708E-015  0.9000765E+02  0.7816164E-02  0.1186339E+00
        -11   -1    0    0    0    0  0.00000000000E+00  0.00000000000E+00  0.45593999997E+02  0.45594000000E+02  0.51100000000E-03 0. -1.
         11   -1    0    0    0    0 -0.00000000000E+00 -0.00000000000E+00 -0.45593999997E+02  0.45594000000E+02  0.51100000000E-03 0.  1.
    9900012    2    1    2    0    0  0.84154559824E+00  0.65260525556E+00  0.50906307962E+00  0.90007645040E+02  0.89999905154E+02 0.  0.
         12    1    1    2    0    0 -0.84154559824E+00 -0.65260525556E+00 -0.50906307962E+00  0.11803549604E+01  0.00000000000E+00 0. -1.
         11    1    3    3    0    0 -0.11035752554E+02  0.16666460760E+01 -0.62372577967E+01  0.12785496809E+02  0.51100000000E-03 0. -1.
        -11    1    3    3    0    0 -0.32119790106E+02 -0.23226014102E+01  0.80196196588E+01  0.33187191709E+02  0.51100000000E-03 0.  1.
         12    1    3    3    0    0  0.43997088259E+02  0.13085605898E+01 -0.12732987825E+01  0.44034956521E+02  0.00000000000E+00 0. -1.
</event>
<event>
 7    1  0.3795708E-015  0.9000773E+02  0.7816164E-02  0.1186339E+00
        -11   -1    0    0    0    0  0.00000000000E+00  0.00000000000E+00  0.45593999997E+02  0.45594000000E+02  0.51100000000E-03 0.  1.
         11   -1    0    0    0    0 -0.00000000000E+00 -0.00000000000E+00 -0.45593999997E+02  0.45594000000E+02  0.51100000000E-03 0. -1.
    9900012    2    1    2    0    0 -0.30332284586E+00  0.10757760877E+01  0.37912921305E+00  0.90007729734E+02  0.89999990967E+02 0.  0.
         12    1    1    2    0    0  0.30332284586E+00 -0.10757760877E+01 -0.37912921305E+00  0.11802702656E+01  0.00000000000E+00 0. -1.
         11    1    3    3    0    0 -0.21854255676E+02 -0.12581674400E+02 -0.27874941072E+02  0.37588819640E+02  0.51100000000E-03 0. -1.
        -11    1    3    3    0    0 -0.38477673871E+01  0.42842610867E+01 -0.62913545601E+01  0.85288539316E+01  0.51100000000E-03 0.  1.
        -12    1    3    3    0    0  0.25398700217E+02  0.93731894015E+01  0.34545424845E+02  0.43890056163E+02  0.00000000000E+00 0.  1.
</event>
<event>
 7    1  0.3795708E-015  0.9000772E+02  0.7816164E-02  0.1186339E+00
        -11   -1    0    0    0    0  0.00000000000E+00  0.00000000000E+00  0.45593999997E+02  0.45594000000E+02  0.51100000000E-03 0.  1.
         11   -1    0    0    0    0 -0.00000000000E+00 -0.00000000000E+00 -0.45593999997E+02  0.45594000000E+02  0.51100000000E-03 0. -1.
    9900012    2    1    2    0    0 -0.83060457062E-01  0.33373650824E+00  0.11290607708E+01  0.90007721507E+02  0.89999982631E+02 0.  0.
         12    1    1    2    0    0  0.83060457062E-01 -0.33373650824E+00 -0.11290607708E+01  0.11802784928E+01  0.00000000000E+00 0. -1.
         11    1    3    3    0    0  0.34067523360E+01  0.38389485562E+02  0.50762742863E+01  0.38873218597E+02  0.51100000000E-03 0. -1.
        -11    1    3    3    0    0 -0.64423888768E+01  0.30416143487E+01  0.53327556260E+01  0.88991052985E+01  0.51100000000E-03 0.  1.
        -12    1    3    3    0    0  0.29525760837E+01 -0.41097363402E+02 -0.92799691415E+01  0.42235397612E+02  0.00000000000E+00 0.  1.
</event>
<event>
 7    1  0.3795708E-015  0.9000773E+02  0.7816164E-02  0.1186339E+00
        -11   -1    0    0    0    0  0.00000000000E+00  0.00000000000E+00  0.45593999997E+02  0.45594000000E+02  0.51100000000E-03 0.  1.
         11   -1    0    0    0    0 -0.00000000000E+00 -0.00000000000E+00 -0.45593999997E+02  0.45594000000E+02  0.51100000000E-03 0. -1.
    9900012    2    1    2    0    0  0.27569725423E+00  0.11780395706E+00  0.11415554687E+01  0.90007730693E+02  0.89999991938E+02 0.  0.
         12    1    1    2    0    0 -0.27569725423E+00 -0.11780395706E+00 -0.11415554687E+01  0.11802693067E+01  0.00000000000E+00 0. -1.
         11    1    3    3    0    0 -0.34121615013E+02 -0.27922352648E+01 -0.45400949816E+01  0.34535397082E+02  0.51100000000E-03 0. -1.
        -11    1    3    3    0    0 -0.10348754952E+02  0.91854180255E+00  0.95316308445E+00  0.10433070892E+02  0.51100000000E-03 0.  1.
        -12    1    3    3    0    0  0.44746067220E+02  0.19914974193E+01  0.47284873659E+01  0.45039262720E+02  0.00000000000E+00 0.  1.
</event>
<event>
 7    1  0.3795708E-015  0.9000732E+02  0.7816164E-02  0.1186340E+00
        -11   -1    0    0    0    0  0.00000000000E+00  0.00000000000E+00  0.45593999997E+02  0.45594000000E+02  0.51100000000E-03 0.  1.
         11   -1    0    0    0    0 -0.00000000000E+00 -0.00000000000E+00 -0.45593999997E+02  0.45594000000E+02  0.51100000000E-03 0. -1.
    9900012    2    1    2    0    0 -0.65098440126E+00  0.38264274867E+00 -0.90764043872E+00  0.90007319124E+02  0.89999574936E+02 0.  0.
         12    1    1    2    0    0  0.65098440126E+00 -0.38264274867E+00  0.90764043872E+00  0.11806808755E+01  0.00000000000E+00 0. -1.
         11    1    3    3    0    0 -0.39386978342E+01 -0.48556422379E+01  0.88881664279E+01  0.10866927113E+02  0.51100000000E-03 0. -1.
        -11    1    3    3    0    0  0.34282178005E+02 -0.13533516806E+02  0.95357310713E+01  0.38070381837E+02  0.51100000000E-03 0.  1.
         12    1    3    3    0    0 -0.30994464572E+02  0.18771801792E+02 -0.19331537938E+02  0.41070010174E+02  0.00000000000E+00 0. -1.
</event>
<event>
 7    1  0.3795708E-015  0.9000773E+02  0.7816164E-02  0.1186339E+00
        -11   -1    0    0    0    0  0.00000000000E+00  0.00000000000E+00  0.45593999997E+02  0.45594000000E+02  0.51100000000E-03 0.  1.
         11   -1    0    0    0    0 -0.00000000000E+00 -0.00000000000E+00 -0.45593999997E+02  0.45594000000E+02  0.51100000000E-03 0. -1.
    9900012    2    1    2    0    0 -0.11664288677E+01  0.14355739074E+00 -0.10893843167E+00  0.90007731975E+02  0.89999993238E+02 0.  0.
         12    1    1    2    0    0  0.11664288677E+01 -0.14355739074E+00  0.10893843167E+00  0.11802680245E+01  0.00000000000E+00 0. -1.
         11    1    3    3    0    0 -0.13545222775E+01 -0.92602344682E+01  0.14529960748E+01  0.94708959904E+01  0.51100000000E-03 0. -1.
        -11    1    3    3    0    0  0.19823437632E+02 -0.85559325848E+01  0.31442063237E+02  0.38141525963E+02  0.51100000000E-03 0.  1.
         12    1    3    3    0    0 -0.19635344222E+02  0.17959724444E+02 -0.33003997744E+02  0.42395310022E+02  0.00000000000E+00 0. -1.
</event>
<event>
 7    1  0.3795708E-015  0.9000771E+02  0.7816164E-02  0.1186339E+00
        -11   -1    0    0    0    0  0.00000000000E+00  0.00000000000E+00  0.45593999997E+02  0.45594000000E+02  0.51100000000E-03 0.  1.
         11   -1    0    0    0    0 -0.00000000000E+00 -0.00000000000E+00 -0.45593999997E+02  0.45594000000E+02  0.51100000000E-03 0. -1.
    9900012    2    1    2    0    0  0.11518657269E+01 -0.25147722467E+00  0.55235461871E-01  0.90007709187E+02  0.89999970148E+02 0.  0.
         12    1    1    2    0    0 -0.11518657269E+01  0.25147722467E+00 -0.55235461871E-01  0.11802908132E+01  0.00000000000E+00 0. -1.
         11    1    3    3    0    0  0.67144828523E+01  0.45223076027E+01 -0.89773693660E+01  0.12088370735E+02  0.51100000000E-03 0. -1.
        -11    1    3    3    0    0  0.16927326559E+02 -0.32513900649E+01  0.37698542057E+02  0.41452213394E+02  0.51100000000E-03 0.  1.
         12    1    3    3    0    0 -0.22489943684E+02 -0.15223947625E+01 -0.28665937229E+02  0.36467125058E+02  0.00000000000E+00 0. -1.
</event>
<event>
 7    1  0.3795708E-015  0.9000777E+02  0.7816164E-02  0.1186339E+00
        -11   -1    0    0    0    0  0.00000000000E+00  0.00000000000E+00  0.45593999997E+02  0.45594000000E+02  0.51100000000E-03 0. -1.
         11   -1    0    0    0    0 -0.00000000000E+00 -0.00000000000E+00 -0.45593999997E+02  0.45594000000E+02  0.51100000000E-03 0.  1.
    9900012    2    1    2    0    0 -0.28988378940E+00 -0.78964400167E+00  0.82786646126E+00  0.90007774116E+02  0.90000035934E+02 0.  0.
         12    1    1    2    0    0  0.28988378940E+00  0.78964400167E+00 -0.82786646126E+00  0.11802258845E+01  0.00000000000E+00 0. -1.
         11    1    3    3    0    0 -0.17397063054E+02  0.22655239288E+02  0.21471391659E+02  0.35734273886E+02  0.51100000000E-03 0. -1.
        -11    1    3    3    0    0 -0.64556170860E+01  0.63965341987E+01  0.29151186883E+01  0.95440326353E+01  0.51100000000E-03 0.  1.
        -12    1    3    3    0    0  0.23562796350E+02 -0.29841417488E+02 -0.23558643886E+02  0.44729467595E+02  0.00000000000E+00 0.  1.
</event>
<event>
 7    1  0.3795708E-015  0.9000781E+02  0.7816164E-02  0.1186339E+00
        -11   -1    0    0    0    0  0.00000000000E+00  0.00000000000E+00  0.45593999997E+02  0.45594000000E+02  0.51100000000E-03 0. -1.
         11   -1    0    0    0    0 -0.00000000000E+00 -0.00000000000E+00 -0.45593999997E+02  0.45594000000E+02  0.51100000000E-03 0.  1.
    9900012    2    1    2    0    0 -0.10456595599E+01 -0.22962085553E+00  0.49670643969E+00  0.90007810634E+02  0.90000072934E+02 0.  0.
         12    1    1    2    0    0  0.10456595599E+01  0.22962085553E+00 -0.49670643969E+00  0.11801893660E+01  0.00000000000E+00 0. -1.
         11    1    3    3    0    0 -0.44525985466E+01  0.37214268951E+02  0.10321005659E+01  0.37493901894E+02  0.51100000000E-03 0. -1.
        -11    1    3    3    0    0 -0.52269772287E+01  0.61441322940E+01 -0.44412098196E+00  0.80789167779E+01  0.51100000000E-03 0.  1.
        -12    1    3    3    0    0  0.86339162155E+01 -0.43588022101E+02 -0.91273144278E-01  0.44434991962E+02  0.00000000000E+00 0.  1.
</event>
<event>
 7    1  0.3795708E-015  0.9000750E+02  0.7816164E-02  0.1186340E+00
        -11   -1    0    0    0    0  0.00000000000E+00  0.00000000000E+00  0.45593999997E+02  0.45594000000E+02  0.51100000000E-03 0.  1.
         11   -1    0    0    0    0 -0.00000000000E+00 -0.00000000000E+00 -0.45593999997E+02  0.45594000000E+02  0.51100000000E-03 0. -1.
    9900012    2    1    2    0    0 -0.63887193800E+00 -0.27151259020E+00  0.95482895356E+00  0.90007502321E+02  0.89999760551E+02 0.  0.
         12    1    1    2    0    0  0.63887193800E+00  0.27151259020E+00 -0.95482895356E+00  0.11804976791E+01  0.00000000000E+00 0. -1.
         11    1    3    3    0    0 -0.37002594993E+02 -0.30211691580E+01 -0.23779350699E+02  0.44088286644E+02  0.51100000000E-03 0. -1.
        -11    1    3    3    0    0  0.57502571569E+01  0.34037600270E+01  0.97733869280E+01  0.11839346772E+02  0.51100000000E-03 0.  1.
        -12    1    3    3    0    0  0.30613465898E+02 -0.65410345926E+00  0.14960792724E+02  0.34079868905E+02  0.00000000000E+00 0.  1.
</event>
<event>
 7    1  0.3795708E-015  0.9000781E+02  0.7816164E-02  0.1186339E+00
        -11   -1    0    0    0    0  0.00000000000E+00  0.00000000000E+00  0.45593999997E+02  0.45594000000E+02  0.51100000000E-03 0. -1.
         11   -1    0    0    0    0 -0.00000000000E+00 -0.00000000000E+00 -0.45593999997E+02  0.45594000000E+02  0.51100000000E-03 0.  1.
    9900012    2    1    2    0    0 -0.50918867557E+00 -0.10488129935E+01 -0.18321232904E+00  0.90007809947E+02  0.90000072239E+02 0.  0.
         12    1    1    2    0    0  0.50918867557E+00  0.10488129935E+01  0.18321232904E+00  0.11801900525E+01  0.00000000000E+00 0. -1.
         11    1    3    3    0    0 -0.34004587203E+02 -0.16040008487E+02  0.14836477703E+02  0.40419239156E+02  0.51100000000E-03 0. -1.
        -11    1    3    3    0    0 -0.35273108874E+01  0.54099468695E+01 -0.86881287391E+01  0.10825572894E+02  0.51100000000E-03 0.  1.
        -12    1    3    3    0    0  0.37022709415E+02  0.95812486239E+01 -0.63315612928E+01  0.38762997897E+02  0.00000000000E+00 0.  1.
</event>
<event>
 7    1  0.3795708E-015  0.9000771E+02  0.7816164E-02  0.1186339E+00
        -11   -1    0    0    0    0  0.00000000000E+00  0.00000000000E+00  0.45593999997E+02  0.45594000000E+02  0.51100000000E-03 0.  1.
         11   -1    0    0    0    0 -0.00000000000E+00 -0.00000000000E+00 -0.45593999997E+02  0.45594000000E+02  0.51100000000E-03 0. -1.
    9900012    2    1    2    0    0  0.40359000034E+00 -0.20934591863E+00  0.10892129805E+01  0.90007705325E+02  0.89999966236E+02 0.  0.
         12    1    1    2    0    0 -0.40359000034E+00  0.20934591863E+00 -0.10892129805E+01  0.11802946746E+01  0.00000000000E+00 0. -1.
         11    1    3    3    0    0 -0.23900160794E+01  0.28248883162E+01 -0.92699790025E+01  0.99812164502E+01  0.51100000000E-03 0. -1.
        -11    1    3    3    0    0 -0.21168873807E+02  0.30987206544E+02  0.19927660302E+01  0.37580570836E+02  0.51100000000E-03 0.  1.
         12    1    3    3    0    0  0.23962479887E+02 -0.34021440779E+02  0.83664259528E+01  0.42445918039E+02  0.00000000000E+00 0. -1.
</event>
<event>
 7    1  0.3795708E-015  0.9000781E+02  0.7816164E-02  0.1186339E+00
        -11   -1    0    0    0    0  0.00000000000E+00  0.00000000000E+00  0.45593999997E+02  0.45594000000E+02  0.51100000000E-03 0.  1.
         11   -1    0    0    0    0 -0.00000000000E+00 -0.00000000000E+00 -0.45593999997E+02  0.45594000000E+02  0.51100000000E-03 0. -1.
    9900012    2    1    2    0    0  0.36712870573E-01 -0.49351453195E-01  0.11785888708E+01  0.90007807165E+02  0.90000069420E+02 0.  0.
         12    1    1    2    0    0 -0.36712870573E-01  0.49351453195E-01 -0.11785888708E+01  0.11801928347E+01  0.00000000000E+00 0. -1.
         11    1    3    3    0    0  0.28331223824E+01  0.86298792270E+01  0.42176032624E+01  0.10014468306E+02  0.51100000000E-03 0. -1.
        -11    1    3    3    0    0  0.11839692010E+02 -0.15666359416E+02  0.34165895220E+02  0.39407125253E+02  0.51100000000E-03 0.  1.
         12    1    3    3    0    0 -0.14636101522E+02  0.69871287359E+01 -0.37204909611E+02  0.40586213607E+02  0.00000000000E+00 0. -1.
</event>
<event>
 7    1  0.3795708E-015  0.9000750E+02  0.7816164E-02  0.1186340E+00
        -11   -1    0    0    0    0  0.00000000000E+00  0.00000000000E+00  0.45593999997E+02  0.45594000000E+02  0.51100000000E-03 0.  1.
         11   -1    0    0    0    0 -0.00000000000E+00 -0.00000000000E+00 -0.45593999997E+02  0.45594000000E+02  0.51100000000E-03 0. -1.
    9900012    2    1    2    0    0  0.51924276730E+00 -0.57243611617E+00  0.89234294602E+00  0.90007503455E+02  0.89999761701E+02 0.  0.
         12    1    1    2    0    0 -0.51924276730E+00  0.57243611617E+00 -0.89234294602E+00  0.11804965446E+01  0.00000000000E+00 0. -1.
         11    1    3    3    0    0 -0.19175342794E+02  0.33142321817E+02 -0.19690548515E+02  0.43056067723E+02  0.51100000000E-03 0. -1.
        -11    1    3    3    0    0 -0.19069729564E+01 -0.38334684720E+01  0.58404818405E+01  0.72417715217E+01  0.51100000000E-03 0.  1.
        -12    1    3    3    0    0  0.21601558517E+02 -0.29881289462E+02  0.14742409621E+02  0.39709664210E+02  0.00000000000E+00 0.  1.
</event>
<event>
 7    1  0.3795708E-015  0.9000771E+02  0.7816164E-02  0.1186339E+00
        -11   -1    0    0    0    0  0.00000000000E+00  0.00000000000E+00  0.45593999997E+02  0.45594000000E+02  0.51100000000E-03 0. -1.
         11   -1    0    0    0    0 -0.00000000000E+00 -0.00000000000E+00 -0.45593999997E+02  0.45594000000E+02  0.51100000000E-03 0.  1.
    9900012    2    1    2    0    0 -0.95198228062E+00  0.16591652450E+00 -0.67770441509E+00  0.90007711124E+02  0.89999972111E+02 0.  0.
         12    1    1    2    0    0  0.95198228062E+00 -0.16591652450E+00  0.67770441509E+00  0.11802888756E+01  0.00000000000E+00 0. -1.
         11    1    3    3    0    0  0.17078409584E+02 -0.25531254785E+02  0.19885461707E+02  0.36591647030E+02  0.51100000000E-03 0. -1.
        -11    1    3    3    0    0 -0.51287825724E+01 -0.57525148995E+01 -0.17696968030E+02  0.19302293026E+02  0.51100000000E-03 0.  1.
        -12    1    3    3    0    0 -0.12901609292E+02  0.31449686209E+02 -0.28661980915E+01  0.34113771068E+02  0.00000000000E+00 0.  1.
</event>
<event>
 7    1  0.3795708E-015  0.9000770E+02  0.7816164E-02  0.1186339E+00
        -11   -1    0    0    0    0  0.00000000000E+00  0.00000000000E+00  0.45593999997E+02  0.45594000000E+02  0.51100000000E-03 0.  1.
         11   -1    0    0    0    0 -0.00000000000E+00 -0.00000000000E+00 -0.45593999997E+02  0.45594000000E+02  0.51100000000E-03 0. -1.
    9900012    2    1    2    0    0  0.19102296383E+00 -0.79119123595E+00 -0.85476743995E+00  0.90007703122E+02  0.89999964003E+02 0.  0.
         12    1    1    2    0    0 -0.19102296383E+00  0.79119123595E+00  0.85476743995E+00  0.11802968783E+01  0.00000000000E+00 0. -1.
         11    1    3    3    0    0  0.18365659506E+02  0.11077801002E+02 -0.36367755265E+02  0.42221188371E+02  0.51100000000E-03 0. -1.
        -11    1    3    3    0    0 -0.14770307566E+01  0.67200064063E+01  0.61249627155E+01  0.92116922704E+01  0.51100000000E-03 0.  1.
        -12    1    3    3    0    0 -0.16697605786E+02 -0.18588998644E+02  0.29388025110E+02  0.38574822481E+02  0.00000000000E+00 0.  1.
</event>
<event>
 7    1  0.3795708E-015  0.9000756E+02  0.7816164E-02  0.1186339E+00
        -11   -1    0    0    0    0  0.00000000000E+00  0.00000000000E+00  0.45593999997E+02  0.45594000000E+02  0.51100000000E-03 0. -1.
         11   -1    0    0    0    0 -0.00000000000E+00 -0.00000000000E+00 -0.45593999997E+02  0.45594000000E+02  0.51100000000E-03 0.  1.
    9900012    2    1    2    0    0 -0.57113300850E+00 -0.10142961317E+01 -0.19609456864E+00  0.90007558288E+02  0.89999817257E+02 0.  0.
         12    1    1    2    0    0  0.57113300850E+00  0.10142961317E+01  0.19609456864E+00  0.11804417122E+01  0.00000000000E+00 0. -1.
         11    1    3    3    0    0 -0.49353173843E+01 -0.45538176296E+01 -0.72257430428E+01  0.98643791224E+01  0.51100000000E-03 0. -1.
        -11    1    3    3    0    0 -0.27169773612E+02  0.19993578917E+02  0.23332436431E+02  0.41016367295E+02  0.51100000000E-03 0.  1.
         12    1    3    3    0    0  0.31533957988E+02 -0.16454057419E+02 -0.16302787957E+02  0.39126811870E+02  0.00000000000E+00 0. -1.
</event>
<event>
 7    1  0.3795708E-015  0.9000798E+02  0.7816164E-02  0.1186339E+00
        -11   -1    0    0    0    0  0.00000000000E+00  0.00000000000E+00  0.45593999997E+02  0.45594000000E+02  0.51100000000E-03 0.  1.
         11   -1    0    0    0    0 -0.00000000000E+00 -0.00000000000E+00 -0.45593999997E+02  0.45594000000E+02  0.51100000000E-03 0. -1.
    9900012    2    1    2    0    0 -0.38213451386E+00  0.10989958897E+01 -0.19656755838E+00  0.90007975612E+02  0.90000240089E+02 0.  0.
         12    1    1    2    0    0  0.38213451386E+00 -0.10989958897E+01  0.19656755838E+00  0.11800243884E+01  0.00000000000E+00 0. -1.
         11    1    3    3    0    0 -0.99019729491E+01  0.25395292161E+02  0.25901259067E+02  0.37601132347E+02  0.51100000000E-03 0. -1.
        -11    1    3    3    0    0  0.44485718802E+01  0.88780082732E+01 -0.59429998490E-01  0.99303753634E+01  0.51100000000E-03 0.  1.
        -12    1    3    3    0    0  0.50712665551E+01 -0.33174304545E+02 -0.26038396626E+02  0.42476467902E+02  0.00000000000E+00 0.  1.
</event>
<event>
 7    1  0.3795708E-015  0.9000776E+02  0.7816164E-02  0.1186339E+00
        -11   -1    0    0    0    0  0.00000000000E+00  0.00000000000E+00  0.45593999997E+02  0.45594000000E+02  0.51100000000E-03 0.  1.
         11   -1    0    0    0    0 -0.00000000000E+00 -0.00000000000E+00 -0.45593999997E+02  0.45594000000E+02  0.51100000000E-03 0. -1.
    9900012    2    1    2    0    0  0.99292892083E+00  0.31262785786E+00 -0.55617299785E+00  0.90007757473E+02  0.90000019071E+02 0.  0.
         12    1    1    2    0    0 -0.99292892083E+00 -0.31262785786E+00  0.55617299785E+00  0.11802425271E+01  0.00000000000E+00 0. -1.
         11    1    3    3    0    0  0.70591010073E+01 -0.55987336789E+01 -0.42563082372E+01  0.99645815723E+01  0.51100000000E-03 0. -1.
        -11    1    3    3    0    0  0.11278339004E+02  0.20732907743E+02  0.34446585943E+02  0.41756696201E+02  0.51100000000E-03 0.  1.
         12    1    3    3    0    0 -0.17344511091E+02 -0.14821546206E+02 -0.30746450704E+02  0.38286479700E+02  0.00000000000E+00 0. -1.
</event>
<event>
 7    1  0.3795708E-015  0.9000767E+02  0.7816164E-02  0.1186339E+00
        -11   -1    0    0    0    0  0.00000000000E+00  0.00000000000E+00  0.45593999997E+02  0.45594000000E+02  0.51100000000E-03 0.  1.
         11   -1    0    0    0    0 -0.00000000000E+00 -0.00000000000E+00 -0.45593999997E+02  0.45594000000E+02  0.51100000000E-03 0. -1.
    9900012    2    1    2    0    0  0.68179091587E-01  0.96025133017E+00  0.68296679807E+00  0.90007671803E+02  0.89999932271E+02 0.  0.
         12    1    1    2    0    0 -0.68179091587E-01 -0.96025133017E+00 -0.68296679807E+00  0.11803281971E+01  0.00000000000E+00 0. -1.
         11    1    3    3    0    0 -0.44489893056E+01  0.16632680670E+02 -0.35948672903E+02  0.39859084985E+02  0.51100000000E-03 0. -1.
        -11    1    3    3    0    0 -0.62338550585E+01 -0.58318040961E+01 -0.20782854193E+01  0.87857929893E+01  0.51100000000E-03 0.  1.
        -12    1    3    3    0    0  0.10751023456E+02 -0.98406252434E+01  0.38709925120E+02  0.41362793829E+02  0.00000000000E+00 0.  1.
</event>
<event>
 7    1  0.3795708E-015  0.9000776E+02  0.7816164E-02  0.1186339E+00
        -11   -1    0    0    0    0  0.00000000000E+00  0.00000000000E+00  0.45593999997E+02  0.45594000000E+02  0.51100000000E-03 0.  1.
         11   -1    0    0    0    0 -0.00000000000E+00 -0.00000000000E+00 -0.45593999997E+02  0.45594000000E+02  0.51100000000E-03 0. -1.
    9900012    2    1    2    0    0 -0.77244958890E+00 -0.72069851233E+00  0.52620276242E+00  0.90007756779E+02  0.90000018369E+02 0.  0.
         12    1    1    2    0    0  0.77244958890E+00  0.72069851233E+00 -0.52620276242E+00  0.11802432208E+01  0.00000000000E+00 0. -1.
         11    1    3    3    0    0 -0.19156037085E+02 -0.81092303395E+01 -0.25457906667E+02  0.32875802433E+02  0.51100000000E-03 0. -1.
        -11    1    3    3    0    0 -0.14751953036E+02 -0.10837080620E+01  0.10936164414E+01  0.14832078031E+02  0.51100000000E-03 0.  1.
        -12    1    3    3    0    0  0.33135540532E+02  0.84722398892E+01  0.24890492988E+02  0.42299876315E+02  0.00000000000E+00 0.  1.
</event>
<event>
 7    1  0.3795708E-015  0.9000806E+02  0.7816164E-02  0.1186338E+00
        -11   -1    0    0    0    0  0.00000000000E+00  0.00000000000E+00  0.45593999997E+02  0.45594000000E+02  0.51100000000E-03 0. -1.
         11   -1    0    0    0    0 -0.00000000000E+00 -0.00000000000E+00 -0.45593999997E+02  0.45594000000E+02  0.51100000000E-03 0.  1.
    9900012    2    1    2    0    0  0.10650747459E+01 -0.45216967874E+00 -0.23113339310E+00  0.90008057511E+02  0.90000323069E+02 0.  0.
         12    1    1    2    0    0 -0.10650747459E+01  0.45216967874E+00  0.23113339310E+00  0.11799424893E+01  0.00000000000E+00 0. -1.
         11    1    3    3    0    0 -0.36672176706E+01 -0.17850561356E+01  0.80425867544E+01  0.90176556162E+01  0.51100000000E-03 0. -1.
        -11    1    3    3    0    0  0.26515303734E+01  0.40709961669E+02 -0.79140235957E+01  0.41556748696E+02  0.51100000000E-03 0.  1.
         12    1    3    3    0    0  0.20807620431E+01 -0.39377075212E+02 -0.35969655177E+00  0.39433653198E+02  0.00000000000E+00 0. -1.
</event>
<event>
 7    1  0.3795708E-015  0.9000775E+02  0.7816164E-02  0.1186339E+00
        -11   -1    0    0    0    0  0.00000000000E+00  0.00000000000E+00  0.45593999997E+02  0.45594000000E+02  0.51100000000E-03 0.  1.
         11   -1    0    0    0    0 -0.00000000000E+00 -0.00000000000E+00 -0.45593999997E+02  0.45594000000E+02  0.51100000000E-03 0. -1.
    9900012    2    1    2    0    0 -0.67663117117E+00  0.96118907019E+00  0.10623169712E+00  0.90007746068E+02  0.90000007516E+02 0.  0.
         12    1    1    2    0    0  0.67663117117E+00 -0.96118907019E+00 -0.10623169712E+00  0.11802539320E+01  0.00000000000E+00 0. -1.
         11    1    3    3    0    0  0.14865169481E+02 -0.17946936735E+02 -0.24439389766E+02  0.33769062383E+02  0.51100000000E-03 0. -1.
        -11    1    3    3    0    0  0.72511599608E+01 -0.77054447077E+01 -0.37237473925E+01  0.11216928895E+02  0.51100000000E-03 0.  1.
        -12    1    3    3    0    0 -0.22792960613E+02  0.26613570513E+02  0.28269368855E+02  0.45021754790E+02  0.00000000000E+00 0.  1.
</event>
<event>
 7    1  0.3795708E-015  0.9000775E+02  0.7816164E-02  0.1186339E+00
        -11   -1    0    0    0    0  0.00000000000E+00  0.00000000000E+00  0.45593999997E+02  0.45594000000E+02  0.51100000000E-03 0.  1.
         11   -1    0    0    0    0 -0.00000000000E+00 -0.00000000000E+00 -0.45593999997E+02  0.45594000000E+02  0.51100000000E-03 0. -1.
    9900012    2    1    2    0    0  0.33696390163E+00 -0.11188113892E+01  0.16643057064E+00  0.90007753106E+02  0.90000014647E+02 0.  0.
         12    1    1    2    0    0 -0.33696390163E+00  0.11188113892E+01 -0.16643057064E+00  0.11802468939E+01  0.00000000000E+00 0. -1.
         11    1    3    3    0    0  0.13643713944E+02 -0.29498410246E+01  0.33675252266E+02  0.36453739283E+02  0.51100000000E-03 0. -1.
        -11    1    3    3    0    0 -0.10712293971E+02 -0.30612278958E+01  0.66768190492E+01  0.12988620836E+02  0.51100000000E-03 0.  1.
        -12    1    3    3    0    0 -0.25944560714E+01  0.48922575312E+01 -0.40185640745E+02  0.40565392986E+02  0.00000000000E+00 0.  1.
</event>
<event>
 7    1  0.3795708E-015  0.9000765E+02  0.7816164E-02  0.1186339E+00
        -11   -1    0    0    0    0  0.00000000000E+00  0.00000000000E+00  0.45593999997E+02  0.45594000000E+02  0.51100000000E-03 0.  1.
         11   -1    0    0    0    0 -0.00000000000E+00 -0.00000000000E+00 -0.45593999997E+02  0.45594000000E+02  0.51100000000E-03 0. -1.
    9900012    2    1    2    0    0  0.23116742126E+00  0.10481604489E+01  0.49107122465E+00  0.90007648505E+02  0.89999908666E+02 0.  0.
         12    1    1    2    0    0 -0.23116742126E+00 -0.10481604489E+01 -0.49107122465E+00  0.11803514947E+01  0.00000000000E+00 0. -1.
         11    1    3    3    0    0 -0.16961554278E+01 -0.84609762533E+01  0.70525305117E+00  0.86580854998E+01  0.51100000000E-03 0. -1.
        -11    1    3    3    0    0 -0.17072708122E+02 -0.60424616346E+01  0.34420794127E+02  0.38894469707E+02  0.51100000000E-03 0.  1.
         12    1    3    3    0    0  0.19000030971E+02  0.15551598337E+02 -0.34634975953E+02  0.42455093299E+02  0.00000000000E+00 0. -1.
</event>
<event>
 7    1  0.3795708E-015  0.9000773E+02  0.7816164E-02  0.1186339E+00
        -11   -1    0    0    0    0  0.00000000000E+00  0.00000000000E+00  0.45593999997E+02  0.45594000000E+02  0.51100000000E-03 0. -1.
         11   -1    0    0    0    0 -0.00000000000E+00 -0.00000000000E+00 -0.45593999997E+02  0.45594000000E+02  0.51100000000E-03 0.  1.
    9900012    2    1    2    0    0  0.72696858165E+00  0.92932944576E+00 -0.29980358508E-01  0.90007730811E+02  0.89999992057E+02 0.  0.
         12    1    1    2    0    0 -0.72696858165E+00 -0.92932944576E+00  0.29980358508E-01  0.11802691894E+01  0.00000000000E+00 0. -1.
         11    1    3    3    0    0 -0.12612943925E+01 -0.65460403839E+01 -0.18944491385E+01  0.69304001365E+01  0.51100000000E-03 0. -1.
        -11    1    3    3    0    0 -0.25902721376E+01  0.33414939994E+02 -0.27700213541E+02  0.43480680250E+02  0.51100000000E-03 0.  1.
         12    1    3    3    0    0  0.45785351118E+01 -0.25939570164E+02  0.29564682321E+02  0.39596650424E+02  0.00000000000E+00 0. -1.
</event>
<event>
 7    1  0.3795708E-015  0.9000774E+02  0.7816164E-02  0.1186339E+00
        -11   -1    0    0    0    0  0.00000000000E+00  0.00000000000E+00  0.45593999997E+02  0.45594000000E+02  0.51100000000E-03 0. -1.
         11   -1    0    0    0    0 -0.00000000000E+00 -0.00000000000E+00 -0.45593999997E+02  0.45594000000E+02  0.51100000000E-03 0.  1.
    9900012    2    1    2    0    0 -0.10249821460E+01 -0.53844611989E+00  0.22914475304E+00  0.90007737342E+02  0.89999998675E+02 0.  0.
         12    1    1    2    0    0  0.10249821460E+01  0.53844611989E+00 -0.22914475304E+00  0.11802626579E+01  0.00000000000E+00 0. -1.
         11    1    3    3    0    0  0.93176492958E+01 -0.44425704112E+01 -0.62767268857E+01  0.12081072838E+02  0.51100000000E-03 0. -1.
        -11    1    3    3    0    0  0.17841044988E+02 -0.20628224278E+02 -0.18509356903E+02  0.32960928633E+02  0.51100000000E-03 0.  1.
         12    1    3    3    0    0 -0.28183676430E+02  0.24532348569E+02  0.25015228542E+02  0.44965735871E+02  0.00000000000E+00 0. -1.
</event>
<event>
 7    1  0.3795708E-015  0.9000773E+02  0.7816164E-02  0.1186339E+00
        -11   -1    0    0    0    0  0.00000000000E+00  0.00000000000E+00  0.45593999997E+02  0.45594000000E+02  0.51100000000E-03 0.  1.
         11   -1    0    0    0    0 -0.00000000000E+00 -0.00000000000E+00 -0.45593999997E+02  0.45594000000E+02  0.51100000000E-03 0. -1.
    9900012    2    1    2    0    0  0.91887537765E-01 -0.44312229556E+00  0.10900585768E+01  0.90007733763E+02  0.89999995049E+02 0.  0.
         12    1    1    2    0    0 -0.91887537765E-01  0.44312229556E+00 -0.10900585768E+01  0.11802662366E+01  0.00000000000E+00 0. -1.
         11    1    3    3    0    0  0.18544535035E+01 -0.73459844355E+01  0.53223275701E+01  0.92590310588E+01  0.51100000000E-03 0. -1.
        -11    1    3    3    0    0 -0.35625501312E+02 -0.16430048059E+02  0.13107403062E+01  0.39253545870E+02  0.51100000000E-03 0.  1.
         12    1    3    3    0    0  0.33862935346E+02  0.23332910199E+02 -0.55430092996E+01  0.41495156835E+02  0.00000000000E+00 0. -1.
</event>
<event>
 7    1  0.3795708E-015  0.9000793E+02  0.7816164E-02  0.1186339E+00
        -11   -1    0    0    0    0  0.00000000000E+00  0.00000000000E+00  0.45593999997E+02  0.45594000000E+02  0.51100000000E-03 0.  1.
         11   -1    0    0    0    0 -0.00000000000E+00 -0.00000000000E+00 -0.45593999997E+02  0.45594000000E+02  0.51100000000E-03 0. -1.
    9900012    2    1    2    0    0  0.98198189081E+00 -0.52680555539E+00 -0.38825833369E+00  0.90007933451E+02  0.90000197372E+02 0.  0.
         12    1    1    2    0    0 -0.98198189081E+00  0.52680555539E+00  0.38825833369E+00  0.11800665493E+01  0.00000000000E+00 0. -1.
         11    1    3    3    0    0 -0.86345572617E+01  0.26697952553E+01  0.67149832526E+01  0.11259413224E+02  0.51100000000E-03 0. -1.
        -11    1    3    3    0    0 -0.25447294476E+02  0.14102870948E+02  0.16131367917E+02  0.33266752114E+02  0.51100000000E-03 0.  1.
         12    1    3    3    0    0  0.35063833628E+02 -0.17299471759E+02 -0.23234609503E+02  0.45481768112E+02  0.00000000000E+00 0. -1.
</event>
<event>
 7    1  0.3795708E-015  0.9000767E+02  0.7816164E-02  0.1186339E+00
        -11   -1    0    0    0    0  0.00000000000E+00  0.00000000000E+00  0.45593999997E+02  0.45594000000E+02  0.51100000000E-03 0.  1.
         11   -1    0    0    0    0 -0.00000000000E+00 -0.00000000000E+00 -0.45593999997E+02  0.45594000000E+02  0.51100000000E-03 0. -1.
    9900012    2    1    2    0    0 -0.11253388008E+01 -0.12758727628E+00  0.33243475803E+00  0.90007670047E+02  0.89999930492E+02 0.  0.
         12    1    1    2    0    0  0.11253388008E+01  0.12758727628E+00 -0.33243475803E+00  0.11803299530E+01  0.00000000000E+00 0. -1.
         11    1    3    3    0    0 -0.35917525535E+02  0.12779800497E+02 -0.15384728828E+02  0.41110604747E+02  0.51100000000E-03 0. -1.
        -11    1    3    3    0    0 -0.26055423966E+01 -0.78858833956E+01  0.49038759676E+01  0.96448954311E+01  0.51100000000E-03 0.  1.
        -12    1    3    3    0    0  0.37397729130E+02 -0.50215043780E+01  0.10813287618E+02  0.39252169869E+02  0.00000000000E+00 0.  1.
</event>
<event>
 7    1  0.3919457E-015  0.9000778E+02  0.7816164E-02  0.1186339E+00
        -11   -1    0    0    0    0  0.00000000000E+00  0.00000000000E+00  0.45593999997E+02  0.45594000000E+02  0.51100000000E-03 0.  1.
         11   -1    0    0    0    0 -0.00000000000E+00 -0.00000000000E+00 -0.45593999997E+02  0.45594000000E+02  0.51100000000E-03 0. -1.
    9900012    2    1    2    0    0  0.35914962194E+00 -0.64816841553E+00  0.91858727103E+00  0.90007782511E+02  0.90000044441E+02 0.  0.
         12    1    1    2    0    0 -0.35914962194E+00  0.64816841553E+00 -0.91858727103E+00  0.11802174886E+01  0.00000000000E+00 0. -1.
         11    1    3    3    0    0  0.30419439934E+02 -0.80857618721E+01 -0.30207537613E+02  0.43625877640E+02  0.51100000000E-03 0. -1.
        -11    1    3    3    0    0 -0.83244735779E+01 -0.29359267503E+01  0.29316655746E+01  0.93011391526E+01  0.51100000000E-03 0.  1.
        -12    1    3    3    0    0 -0.21735816734E+02  0.10373520207E+02  0.28194459309E+02  0.37080765719E+02  0.00000000000E+00 0.  1.
</event>
<event>
 7    1  0.3795708E-015  0.9000777E+02  0.7816164E-02  0.1186339E+00
        -11   -1    0    0    0    0  0.00000000000E+00  0.00000000000E+00  0.45593999997E+02  0.45594000000E+02  0.51100000000E-03 0. -1.
         11   -1    0    0    0    0 -0.00000000000E+00 -0.00000000000E+00 -0.45593999997E+02  0.45594000000E+02  0.51100000000E-03 0.  1.
    9900012    2    1    2    0    0 -0.20123996387E+00  0.65946700809E+00 -0.95788169323E+00  0.90007774769E+02  0.90000036596E+02 0.  0.
         12    1    1    2    0    0  0.20123996387E+00 -0.65946700809E+00  0.95788169323E+00  0.11802252311E+01  0.00000000000E+00 0. -1.
         11    1    3    3    0    0  0.44524376736E+01 -0.72110226640E+01 -0.55712469518E+01  0.10142082723E+02  0.51100000000E-03 0. -1.
        -11    1    3    3    0    0 -0.76382369604E+00 -0.30621374139E+02 -0.17526567037E+02  0.35290686209E+02  0.51100000000E-03 0.  1.
         12    1    3    3    0    0 -0.38898539415E+01  0.38491863811E+02  0.22139932295E+02  0.44575005837E+02  0.00000000000E+00 0. -1.
</event>
<event>
 7    1  0.3795708E-015  0.9000763E+02  0.7816164E-02  0.1186339E+00
        -11   -1    0    0    0    0  0.00000000000E+00  0.00000000000E+00  0.45593999997E+02  0.45594000000E+02  0.51100000000E-03 0. -1.
         11   -1    0    0    0    0 -0.00000000000E+00 -0.00000000000E+00 -0.45593999997E+02  0.45594000000E+02  0.51100000000E-03 0.  1.
    9900012    2    1    2    0    0 -0.94678300299E+00  0.36120965177E+00 -0.60531317820E+00  0.90007629503E+02  0.89999889412E+02 0.  0.
         12    1    1    2    0    0  0.94678300299E+00 -0.36120965177E+00  0.60531317820E+00  0.11803704973E+01  0.00000000000E+00 0. -1.
         11    1    3    3    0    0 -0.12338517282E+02  0.47867636791E+00 -0.33048750495E+01  0.12782423054E+02  0.51100000000E-03 0. -1.
        -11    1    3    3    0    0 -0.16783385163E+01  0.36727014316E+02 -0.57942032660E+01  0.37219124016E+02  0.51100000000E-03 0.  1.
         12    1    3    3    0    0  0.13070072795E+02 -0.36844481032E+02  0.84937651373E+01  0.40006082433E+02  0.00000000000E+00 0. -1.
</event>
<event>
 7    1  0.3795708E-015  0.9000770E+02  0.7816164E-02  0.1186339E+00
        -11   -1    0    0    0    0  0.00000000000E+00  0.00000000000E+00  0.45593999997E+02  0.45594000000E+02  0.51100000000E-03 0. -1.
         11   -1    0    0    0    0 -0.00000000000E+00 -0.00000000000E+00 -0.45593999997E+02  0.45594000000E+02  0.51100000000E-03 0.  1.
    9900012    2    1    2    0    0  0.61605745762E+00  0.92438302247E+00 -0.39887227424E+00  0.90007699253E+02  0.89999960083E+02 0.  0.
         12    1    1    2    0    0 -0.61605745762E+00 -0.92438302247E+00  0.39887227424E+00  0.11803007475E+01  0.00000000000E+00 0. -1.
         11    1    3    3    0    0 -0.56696706603E+01 -0.82494170085E-01  0.60653053092E+01  0.83030054462E+01  0.51100000000E-03 0. -1.
        -11    1    3    3    0    0  0.14586270563E+01  0.25526576972E+02 -0.35274369657E+02  0.43566212593E+02  0.51100000000E-03 0.  1.
         12    1    3    3    0    0  0.48271010616E+01 -0.24519699779E+02  0.28810192073E+02  0.38138481213E+02  0.00000000000E+00 0. -1.
</event>
<event>
 7    1  0.3795708E-015  0.9000765E+02  0.7816164E-02  0.1186339E+00
        -11   -1    0    0    0    0  0.00000000000E+00  0.00000000000E+00  0.45593999997E+02  0.45594000000E+02  0.51100000000E-03 0. -1.
         11   -1    0    0    0    0 -0.00000000000E+00 -0.00000000000E+00 -0.45593999997E+02  0.45594000000E+02  0.51100000000E-03 0.  1.
    9900012    2    1    2    0    0  0.68251218529E+00 -0.28267612570E+00 -0.92059530431E+00  0.90007650734E+02  0.89999910924E+02 0.  0.
         12    1    1    2    0    0 -0.68251218529E+00  0.28267612570E+00  0.92059530431E+00  0.11803492659E+01  0.00000000000E+00 0. -1.
         11    1    3    3    0    0 -0.69478569493E+01 -0.31542374210E+01 -0.49776943487E+01  0.91103990685E+01  0.51100000000E-03 0. -1.
        -11    1    3    3    0    0 -0.11393392502E+02 -0.20704758418E+02 -0.28100813810E+02  0.36717191490E+02  0.51100000000E-03 0.  1.
         12    1    3    3    0    0  0.19023761636E+02  0.23576319713E+02  0.32157912855E+02  0.44180060176E+02  0.00000000000E+00 0. -1.
</event>
<event>
 7    1  0.3795708E-015  0.9000778E+02  0.7816164E-02  0.1186339E+00
        -11   -1    0    0    0    0  0.00000000000E+00  0.00000000000E+00  0.45593999997E+02  0.45594000000E+02  0.51100000000E-03 0.  1.
         11   -1    0    0    0    0 -0.00000000000E+00 -0.00000000000E+00 -0.45593999997E+02  0.45594000000E+02  0.51100000000E-03 0. -1.
    9900012    2    1    2    0    0 -0.10983536038E+01 -0.14893492516E+00  0.40541045640E+00  0.90007779729E+02  0.90000041621E+02 0.  0.
         12    1    1    2    0    0  0.10983536038E+01  0.14893492516E+00 -0.40541045640E+00  0.11802202714E+01  0.00000000000E+00 0. -1.
         11    1    3    3    0    0 -0.36681896740E+02 -0.64707497361E+01 -0.21718004993E+02  0.43117327048E+02  0.51100000000E-03 0. -1.
        -11    1    3    3    0    0 -0.22481571655E+01  0.13209814717E+01 -0.30723935207E+00  0.26255664094E+01  0.51100000000E-03 0.  1.
        -12    1    3    3    0    0  0.37831700302E+02  0.50008333392E+01  0.22430654802E+02  0.44264886272E+02  0.00000000000E+00 0.  1.
</event>
<event>
 7    1  0.3795708E-015  0.9000777E+02  0.7816164E-02  0.1186339E+00
        -11   -1    0    0    0    0  0.00000000000E+00  0.00000000000E+00  0.45593999997E+02  0.45594000000E+02  0.51100000000E-03 0.  1.
         11   -1    0    0    0    0 -0.00000000000E+00 -0.00000000000E+00 -0.45593999997E+02  0.45594000000E+02  0.51100000000E-03 0. -1.
    9900012    2    1    2    0    0 -0.95362430769E+00 -0.39637121997E+00  0.57135185312E+00  0.90007765954E+02  0.90000027664E+02 0.  0.
         12    1    1    2    0    0  0.95362430769E+00  0.39637121997E+00 -0.57135185312E+00  0.11802340464E+01  0.00000000000E+00 0. -1.
         11    1    3    3    0    0  0.72346195897E+01  0.42837846207E+01  0.57440679179E+01  0.10182575695E+02  0.51100000000E-03 0. -1.
        -11    1    3    3    0    0  0.34968216280E+02  0.52758815847E+01 -0.26657876670E+01  0.35464313055E+02  0.51100000000E-03 0.  1.
         12    1    3    3    0    0 -0.43156460177E+02 -0.99560374254E+01 -0.25069283978E+01  0.44360877203E+02  0.00000000000E+00 0. -1.
</event>
<event>
 7    1  0.3795708E-015  0.9000770E+02  0.7816164E-02  0.1186339E+00
        -11   -1    0    0    0    0  0.00000000000E+00  0.00000000000E+00  0.45593999997E+02  0.45594000000E+02  0.51100000000E-03 0. -1.
         11   -1    0    0    0    0 -0.00000000000E+00 -0.00000000000E+00 -0.45593999997E+02  0.45594000000E+02  0.51100000000E-03 0.  1.
    9900012    2    1    2    0    0  0.64058126823E+00  0.88682302312E+00  0.44306676971E+00  0.90007700208E+02  0.89999961051E+02 0.  0.
         12    1    1    2    0    0 -0.64058126823E+00 -0.88682302312E+00 -0.44306676971E+00  0.11802997916E+01  0.00000000000E+00 0. -1.
         11    1    3    3    0    0  0.24196328257E+02 -0.85346257093E+01  0.29916460705E+01  0.25831223037E+02  0.51100000000E-03 0. -1.
        -11    1    3    3    0    0  0.91959198365E+01  0.25656730031E+02 -0.42386981422E+01  0.27582590519E+02  0.51100000000E-03 0.  1.
        -12    1    3    3    0    0 -0.32751666825E+02 -0.16235281299E+02  0.16901188414E+01  0.36593886653E+02  0.00000000000E+00 0.  1.
</event>
<event>
 7    1  0.3795708E-015  0.9000769E+02  0.7816164E-02  0.1186339E+00
        -11   -1    0    0    0    0  0.00000000000E+00  0.00000000000E+00  0.45593999997E+02  0.45594000000E+02  0.51100000000E-03 0. -1.
         11   -1    0    0    0    0 -0.00000000000E+00 -0.00000000000E+00 -0.45593999997E+02  0.45594000000E+02  0.51100000000E-03 0.  1.
    9900012    2    1    2    0    0 -0.71512013964E+00 -0.56703303954E+00 -0.74847052094E+00  0.90007690124E+02  0.89999950834E+02 0.  0.
         12    1    1    2    0    0  0.71512013964E+00  0.56703303954E+00  0.74847052094E+00  0.11803098757E+01  0.00000000000E+00 0. -1.
         11    1    3    3    0    0  0.95820687115E+01 -0.11670110435E+01 -0.32768737187E+01  0.10193912752E+02  0.51100000000E-03 0. -1.
        -11    1    3    3    0    0  0.19556526419E+02  0.28272705434E+02  0.14608573318E+02  0.37352563671E+02  0.51100000000E-03 0.  1.
         12    1    3    3    0    0 -0.29853715270E+02 -0.27672727430E+02 -0.12080170120E+02  0.42461213701E+02  0.00000000000E+00 0. -1.
</event>
<event>
 7    1  0.3795708E-015  0.9000799E+02  0.7816164E-02  0.1186339E+00
        -11   -1    0    0    0    0  0.00000000000E+00  0.00000000000E+00  0.45593999997E+02  0.45594000000E+02  0.51100000000E-03 0. -1.
         11   -1    0    0    0    0 -0.00000000000E+00 -0.00000000000E+00 -0.45593999997E+02  0.45594000000E+02  0.51100000000E-03 0.  1.
    9900012    2    1    2    0    0  0.43088935476E+00 -0.10221838254E+00 -0.10937559354E+01  0.90007993102E+02  0.90000257810E+02 0.  0.
         12    1    1    2    0    0 -0.43088935476E+00  0.10221838254E+00  0.10937559354E+01  0.11800068983E+01  0.00000000000E+00 0. -1.
         11    1    3    3    0    0 -0.46959304716E+01 -0.63260831201E+01  0.54586319154E+01  0.95847667309E+01  0.51100000000E-03 0. -1.
        -11    1    3    3    0    0 -0.94147101204E+01 -0.11048722813E+02 -0.38589382326E+02  0.41229255038E+02  0.51100000000E-03 0.  1.
         12    1    3    3    0    0  0.14541529947E+02  0.17272587550E+02  0.32036994475E+02  0.39193971333E+02  0.00000000000E+00 0. -1.
</event>
<event>
 7    1  0.3795708E-015  0.9000771E+02  0.7816164E-02  0.1186339E+00
        -11   -1    0    0    0    0  0.00000000000E+00  0.00000000000E+00  0.45593999997E+02  0.45594000000E+02  0.51100000000E-03 0.  1.
         11   -1    0    0    0    0 -0.00000000000E+00 -0.00000000000E+00 -0.45593999997E+02  0.45594000000E+02  0.51100000000E-03 0. -1.
    9900012    2    1    2    0    0 -0.32696713094E+00  0.17902095247E+00  0.11198828754E+01  0.90007706113E+02  0.89999967033E+02 0.  0.
         12    1    1    2    0    0  0.32696713094E+00 -0.17902095247E+00 -0.11198828754E+01  0.11802938875E+01  0.00000000000E+00 0. -1.
         11    1    3    3    0    0  0.28290194887E+02 -0.12922004771E+02 -0.11587930791E+02  0.33190261739E+02  0.51100000000E-03 0. -1.
        -11    1    3    3    0    0  0.96452773776E+01 -0.48992732399E+00 -0.67586833809E+01  0.11787756605E+02  0.51100000000E-03 0.  1.
        -12    1    3    3    0    0 -0.38262439395E+02  0.13590953048E+02  0.19466497047E+02  0.45029687768E+02  0.00000000000E+00 0.  1.
</event>
<event>
 7    1  0.3795708E-015  0.9000788E+02  0.7816164E-02  0.1186339E+00
        -11   -1    0    0    0    0  0.00000000000E+00  0.00000000000E+00  0.45593999997E+02  0.45594000000E+02  0.51100000000E-03 0.  1.
         11   -1    0    0    0    0 -0.00000000000E+00 -0.00000000000E+00 -0.45593999997E+02  0.45594000000E+02  0.51100000000E-03 0. -1.
    9900012    2    1    2    0    0 -0.46274614994E+00  0.79184582548E+00  0.74264554908E+00  0.90007882963E+02  0.90000146217E+02 0.  0.
         12    1    1    2    0    0  0.46274614994E+00 -0.79184582548E+00 -0.74264554908E+00  0.11801170375E+01  0.00000000000E+00 0. -1.
         11    1    3    3    0    0  0.69820635145E+01  0.75483058457E+01 -0.22164161773E+01  0.10518490053E+02  0.51100000000E-03 0. -1.
        -11    1    3    3    0    0  0.27971915775E+02 -0.20436618457E+01  0.24947561228E+02  0.37536454779E+02  0.51100000000E-03 0.  1.
         12    1    3    3    0    0 -0.35416725439E+02 -0.47127981745E+01 -0.21988499502E+02  0.41952938131E+02  0.00000000000E+00 0. -1.
</event>
<event>
 7    1  0.3795708E-015  0.9000775E+02  0.7816164E-02  0.1186339E+00
        -11   -1    0    0    0    0  0.00000000000E+00  0.00000000000E+00  0.45593999997E+02  0.45594000000E+02  0.51100000000E-03 0. -1.
         11   -1    0    0    0    0 -0.00000000000E+00 -0.00000000000E+00 -0.45593999997E+02  0.45594000000E+02  0.51100000000E-03 0.  1.
    9900012    2    1    2    0    0 -0.19903544256E+00 -0.10067094587E+01  0.58301066906E+00  0.90007754059E+02  0.90000015612E+02 0.  0.
         12    1    1    2    0    0  0.19903544256E+00  0.10067094587E+01 -0.58301066906E+00  0.11802459412E+01  0.00000000000E+00 0. -1.
         11    1    3    3    0    0 -0.24130623577E+02 -0.21076774027E+02  0.14584524304E+02  0.35202638354E+02  0.51100000000E-03 0. -1.
        -11    1    3    3    0    0 -0.86193064164E+01 -0.24055705801E+01  0.57040932947E+01  0.10612063583E+02  0.51100000000E-03 0.  1.
        -12    1    3    3    0    0  0.32550894551E+02  0.22475635148E+02 -0.19705606930E+02  0.44193052122E+02  0.00000000000E+00 0.  1.
</event>
<event>
 7    1  0.3795708E-015  0.9000773E+02  0.7816164E-02  0.1186339E+00
        -11   -1    0    0    0    0  0.00000000000E+00  0.00000000000E+00  0.45593999997E+02  0.45594000000E+02  0.51100000000E-03 0. -1.
         11   -1    0    0    0    0 -0.00000000000E+00 -0.00000000000E+00 -0.45593999997E+02  0.45594000000E+02  0.51100000000E-03 0.  1.
    9900012    2    1    2    0    0 -0.63827716377E+00 -0.63403561689E-01 -0.99076888300E+00  0.90007728536E+02  0.89999989753E+02 0.  0.
         12    1    1    2    0    0  0.63827716377E+00  0.63403561689E-01  0.99076888300E+00  0.11802714641E+01  0.00000000000E+00 0. -1.
         11    1    3    3    0    0 -0.71399618482E+01  0.42142839939E+01 -0.80356702542E+01  0.11546048738E+02  0.51100000000E-03 0. -1.
        -11    1    3    3    0    0 -0.34689744971E+02 -0.99287915875E+01 -0.10761629202E+01  0.36098717920E+02  0.51100000000E-03 0.  1.
         12    1    3    3    0    0  0.41191429656E+02  0.56511040319E+01  0.81210642913E+01  0.42362961878E+02  0.00000000000E+00 0. -1.
</event>
<event>
 7    1  0.3795708E-015  0.9000773E+02  0.7816164E-02  0.1186339E+00
        -11   -1    0    0    0    0  0.00000000000E+00  0.00000000000E+00  0.45593999997E+02  0.45594000000E+02  0.51100000000E-03 0. -1.
         11   -1    0    0    0    0 -0.00000000000E+00 -0.00000000000E+00 -0.45593999997E+02  0.45594000000E+02  0.51100000000E-03 0.  1.
    9900012    2    1    2    0    0 -0.20985613141E+00 -0.79602193449E+00 -0.84578234229E+00  0.90007729571E+02  0.89999990801E+02 0.  0.
         12    1    1    2    0    0  0.20985613141E+00  0.79602193449E+00  0.84578234229E+00  0.11802704294E+01  0.00000000000E+00 0. -1.
         11    1    3    3    0    0  0.30210605980E+02  0.20370148234E+02  0.88406632870E+01  0.37493745884E+02  0.51100000000E-03 0. -1.
        -11    1    3    3    0    0 -0.18861868592E+01  0.93696828335E+01  0.23136416657E+00  0.95604490954E+01  0.51100000000E-03 0.  1.
        -12    1    3    3    0    0 -0.28534275252E+02 -0.30535853002E+02 -0.99178097959E+01  0.42953534591E+02  0.00000000000E+00 0.  1.
</event>
<event>
 7    1  0.3795708E-015  0.9000788E+02  0.7816164E-02  0.1186339E+00
        -11   -1    0    0    0    0  0.00000000000E+00  0.00000000000E+00  0.45593999997E+02  0.45594000000E+02  0.51100000000E-03 0. -1.
         11   -1    0    0    0    0 -0.00000000000E+00 -0.00000000000E+00 -0.45593999997E+02  0.45594000000E+02  0.51100000000E-03 0.  1.
    9900012    2    1    2    0    0 -0.59605309484E+00  0.52708137324E+00 -0.87154173662E+00  0.90007881758E+02  0.90000144997E+02 0.  0.
         12    1    1    2    0    0  0.59605309484E+00 -0.52708137324E+00  0.87154173662E+00  0.11801182418E+01  0.00000000000E+00 0. -1.
         11    1    3    3    0    0  0.60930073231E+01 -0.40976356671E+01 -0.17217561286E+02  0.18717899807E+02  0.51100000000E-03 0. -1.
        -11    1    3    3    0    0  0.17686528752E+02 -0.24211331049E+02 -0.39712199923E+00  0.29985989339E+02  0.51100000000E-03 0.  1.
         12    1    3    3    0    0 -0.24375589170E+02  0.28836048090E+02  0.16743141549E+02  0.41303992612E+02  0.00000000000E+00 0. -1.
</event>
<event>
 7    1  0.3795708E-015  0.9000759E+02  0.7816164E-02  0.1186339E+00
        -11   -1    0    0    0    0  0.00000000000E+00  0.00000000000E+00  0.45593999997E+02  0.45594000000E+02  0.51100000000E-03 0. -1.
         11   -1    0    0    0    0 -0.00000000000E+00 -0.00000000000E+00 -0.45593999997E+02  0.45594000000E+02  0.51100000000E-03 0.  1.
    9900012    2    1    2    0    0 -0.20806296091E+00  0.60298186814E+00 -0.99322082707E+00  0.90007591198E+02  0.89999850601E+02 0.  0.
         12    1    1    2    0    0  0.20806296091E+00 -0.60298186814E+00  0.99322082707E+00  0.11804088022E+01  0.00000000000E+00 0. -1.
         11    1    3    3    0    0 -0.29687503048E+01  0.50101118174E+01 -0.92883225649E+01  0.10963012137E+02  0.51100000000E-03 0. -1.
        -11    1    3    3    0    0 -0.27077879331E+02 -0.17341237423E+02 -0.18331849199E+02  0.37013332189E+02  0.51100000000E-03 0.  1.
         12    1    3    3    0    0  0.29838566675E+02  0.12934107474E+02  0.26626950936E+02  0.42031246871E+02  0.00000000000E+00 0. -1.
</event>
<event>
 7    1  0.3795708E-015  0.9000760E+02  0.7816164E-02  0.1186339E+00
        -11   -1    0    0    0    0  0.00000000000E+00  0.00000000000E+00  0.45593999997E+02  0.45594000000E+02  0.51100000000E-03 0. -1.
         11   -1    0    0    0    0 -0.00000000000E+00 -0.00000000000E+00 -0.45593999997E+02  0.45594000000E+02  0.51100000000E-03 0.  1.
    9900012    2    1    2    0    0 -0.46941789806E+00  0.77692034296E+00 -0.75458104665E+00  0.90007597129E+02  0.89999856611E+02 0.  0.
         12    1    1    2    0    0  0.46941789806E+00 -0.77692034296E+00  0.75458104665E+00  0.11804028712E+01  0.00000000000E+00 0. -1.
         11    1    3    3    0    0 -0.31159717982E+02  0.22708860743E+02  0.84185675548E+01  0.39465081539E+02  0.51100000000E-03 0. -1.
        -11    1    3    3    0    0 -0.38345569830E+01 -0.81838371692E+01  0.55106175791E+01  0.10585174747E+02  0.51100000000E-03 0.  1.
        -12    1    3    3    0    0  0.34524857067E+02 -0.13748103231E+02 -0.14683766181E+02  0.39957340842E+02  0.00000000000E+00 0.  1.
</event>
<event>
 7    1  0.3795708E-015  0.9000776E+02  0.7816164E-02  0.1186339E+00
        -11   -1    0    0    0    0  0.00000000000E+00  0.00000000000E+00  0.45593999997E+02  0.45594000000E+02  0.51100000000E-03 0. -1.
         11   -1    0    0    0    0 -0.00000000000E+00 -0.00000000000E+00 -0.45593999997E+02  0.45594000000E+02  0.51100000000E-03 0.  1.
    9900012    2    1    2    0    0  0.48848965337E+00  0.87912279779E+00 -0.61765179148E+00  0.90007757326E+02  0.90000018922E+02 0.  0.
         12    1    1    2    0    0 -0.48848965337E+00 -0.87912279779E+00  0.61765179148E+00  0.11802426744E+01  0.00000000000E+00 0. -1.
         11    1    3    3    0    0 -0.10989639012E+02  0.60101437023E+01 -0.59990716890E+01  0.13888227184E+02  0.51100000000E-03 0. -1.
        -11    1    3    3    0    0  0.55326045770E+00  0.25786097509E+02 -0.21610288993E+02  0.33648677723E+02  0.51100000000E-03 0.  1.
         12    1    3    3    0    0  0.10924868207E+02 -0.30917118413E+02  0.26991708891E+02  0.42470852419E+02  0.00000000000E+00 0. -1.
</event>
<event>
 7    1  0.3795708E-015  0.9000756E+02  0.7816164E-02  0.1186339E+00
        -11   -1    0    0    0    0  0.00000000000E+00  0.00000000000E+00  0.45593999997E+02  0.45594000000E+02  0.51100000000E-03 0. -1.
         11   -1    0    0    0    0 -0.00000000000E+00 -0.00000000000E+00 -0.45593999997E+02  0.45594000000E+02  0.51100000000E-03 0.  1.
    9900012    2    1    2    0    0 -0.10567528724E+01  0.42238710411E+00 -0.31354173689E+00  0.90007556897E+02  0.89999815848E+02 0.  0.
         12    1    1    2    0    0  0.10567528724E+01 -0.42238710411E+00  0.31354173689E+00  0.11804431032E+01  0.00000000000E+00 0. -1.
         11    1    3    3    0    0  0.85305209165E+01  0.55866655506E+01 -0.51353201970E+01  0.11417185856E+02  0.51100000000E-03 0. -1.
        -11    1    3    3    0    0  0.31689406211E+02 -0.15672225595E+02  0.65832312027E+01  0.35960757145E+02  0.51100000000E-03 0.  1.
         12    1    3    3    0    0 -0.41276680000E+02  0.10507947149E+02 -0.17614527425E+01  0.42629613896E+02  0.00000000000E+00 0. -1.
</event>
<event>
 7    1  0.3795708E-015  0.9000781E+02  0.7816164E-02  0.1186339E+00
        -11   -1    0    0    0    0  0.00000000000E+00  0.00000000000E+00  0.45593999997E+02  0.45594000000E+02  0.51100000000E-03 0. -1.
         11   -1    0    0    0    0 -0.00000000000E+00 -0.00000000000E+00 -0.45593999997E+02  0.45594000000E+02  0.51100000000E-03 0.  1.
    9900012    2    1    2    0    0  0.10068153296E+01  0.34492579752E+00 -0.51008582670E+00  0.90007814225E+02  0.90000076572E+02 0.  0.
         12    1    1    2    0    0 -0.10068153296E+01 -0.34492579752E+00  0.51008582670E+00  0.11801857753E+01  0.00000000000E+00 0. -1.
         11    1    3    3    0    0  0.10186403565E+02 -0.28771213712E+02  0.19897729914E+02  0.36434396003E+02  0.51100000000E-03 0. -1.
        -11    1    3    3    0    0  0.18538799201E+01 -0.21679121522E+01  0.88768400629E+01  0.93238942305E+01  0.51100000000E-03 0.  1.
        -12    1    3    3    0    0 -0.11033468155E+02  0.31284051662E+02 -0.29284655804E+02  0.44249523992E+02  0.00000000000E+00 0.  1.
</event>
<event>
 7    1  0.3795708E-015  0.9000757E+02  0.7816164E-02  0.1186339E+00
        -11   -1    0    0    0    0  0.00000000000E+00  0.00000000000E+00  0.45593999997E+02  0.45594000000E+02  0.51100000000E-03 0.  1.
         11   -1    0    0    0    0 -0.00000000000E+00 -0.00000000000E+00 -0.45593999997E+02  0.45594000000E+02  0.51100000000E-03 0. -1.
    9900012    2    1    2    0    0  0.60517817758E+00 -0.53355748205E+00 -0.86168517857E+00  0.90007565521E+02  0.89999824585E+02 0.  0.
         12    1    1    2    0    0 -0.60517817758E+00  0.53355748205E+00  0.86168517857E+00  0.11804344794E+01  0.00000000000E+00 0. -1.
         11    1    3    3    0    0  0.87931156430E+01 -0.16116870372E+02 -0.34743526180E+02  0.39296119465E+02  0.51100000000E-03 0. -1.
        -11    1    3    3    0    0  0.48409846834E+01 -0.64086940498E+01 -0.29010067216E+00  0.80368308922E+01  0.51100000000E-03 0.  1.
        -12    1    3    3    0    0 -0.13028922149E+02  0.21992006940E+02  0.34171941674E+02  0.42674615164E+02  0.00000000000E+00 0.  1.
</event>
<event>
 7    1  0.3795708E-015  0.9000771E+02  0.7816164E-02  0.1186339E+00
        -11   -1    0    0    0    0  0.00000000000E+00  0.00000000000E+00  0.45593999997E+02  0.45594000000E+02  0.51100000000E-03 0.  1.
         11   -1    0    0    0    0 -0.00000000000E+00 -0.00000000000E+00 -0.45593999997E+02  0.45594000000E+02  0.51100000000E-03 0. -1.
    9900012    2    1    2    0    0 -0.98097674734E+00  0.61759528311E+00  0.22211639242E+00  0.90007714016E+02  0.89999975041E+02 0.  0.
         12    1    1    2    0    0  0.98097674734E+00 -0.61759528311E+00 -0.22211639242E+00  0.11802859841E+01  0.00000000000E+00 0. -1.
         11    1    3    3    0    0 -0.33535047798E+02 -0.12641622336E+02 -0.24323682868E+02  0.43313411255E+02  0.51100000000E-03 0. -1.
        -11    1    3    3    0    0  0.98584335682E+01 -0.34745996914E+01  0.21188472337E+01  0.10665414633E+02  0.51100000000E-03 0.  1.
        -12    1    3    3    0    0  0.22695637482E+02  0.16733817310E+02  0.22426952027E+02  0.36028888127E+02  0.00000000000E+00 0.  1.
</event>
<event>
 7    1  0.3795708E-015  0.9000773E+02  0.7816164E-02  0.1186339E+00
        -11   -1    0    0    0    0  0.00000000000E+00  0.00000000000E+00  0.45593999997E+02  0.45594000000E+02  0.51100000000E-03 0. -1.
         11   -1    0    0    0    0 -0.00000000000E+00 -0.00000000000E+00 -0.45593999997E+02  0.45594000000E+02  0.51100000000E-03 0.  1.
    9900012    2    1    2    0    0  0.11487944209E+01  0.27073041872E+00 -0.41095706441E-02  0.90007728646E+02  0.89999989864E+02 0.  0.
         12    1    1    2    0    0 -0.11487944209E+01 -0.27073041872E+00  0.41095706441E-02  0.11802713542E+01  0.00000000000E+00 0. -1.
         11    1    3    3    0    0  0.12587078708E+01 -0.40005724520E+01  0.75489295341E+01  0.86356970084E+01  0.51100000000E-03 0. -1.
        -11    1    3    3    0    0 -0.40426243783E+02  0.45014576276E+01 -0.27303085355E+01  0.40767620634E+02  0.51100000000E-03 0.  1.
         12    1    3    3    0    0  0.40316330334E+02 -0.23015475687E+00 -0.48227305693E+01  0.40604411003E+02  0.00000000000E+00 0. -1.
</event>
<event>
 7    1  0.3795708E-015  0.9000776E+02  0.7816164E-02  0.1186339E+00
        -11   -1    0    0    0    0  0.00000000000E+00  0.00000000000E+00  0.45593999997E+02  0.45594000000E+02  0.51100000000E-03 0. -1.
         11   -1    0    0    0    0 -0.00000000000E+00 -0.00000000000E+00 -0.45593999997E+02  0.45594000000E+02  0.51100000000E-03 0.  1.
    9900012    2    1    2    0    0 -0.54410322268E+00 -0.21862327645E+00 -0.10242644162E+01  0.90007761868E+02  0.90000023525E+02 0.  0.
         12    1    1    2    0    0  0.54410322268E+00  0.21862327645E+00  0.10242644162E+01  0.11802381320E+01  0.00000000000E+00 0. -1.
         11    1    3    3    0    0 -0.24137092502E+02 -0.24453546569E+02 -0.67529726838E+01  0.35016821880E+02  0.51100000000E-03 0. -1.
        -11    1    3    3    0    0 -0.47711130034E+00 -0.10702250240E+02 -0.40492913444E+01  0.11452622235E+02  0.51100000000E-03 0.  1.
        -12    1    3    3    0    0  0.24070100580E+02  0.34937173533E+02  0.97779996121E+01  0.43538317753E+02  0.00000000000E+00 0.  1.
</event>
<event>
 7    1  0.3795708E-015  0.9000778E+02  0.7816164E-02  0.1186339E+00
        -11   -1    0    0    0    0  0.00000000000E+00  0.00000000000E+00  0.45593999997E+02  0.45594000000E+02  0.51100000000E-03 0. -1.
         11   -1    0    0    0    0 -0.00000000000E+00 -0.00000000000E+00 -0.45593999997E+02  0.45594000000E+02  0.51100000000E-03 0.  1.
    9900012    2    1    2    0    0  0.56920166678E+00 -0.54969318879E+00 -0.87565171845E+00  0.90007780075E+02  0.90000041972E+02 0.  0.
         12    1    1    2    0    0 -0.56920166678E+00  0.54969318879E+00  0.87565171845E+00  0.11802199250E+01  0.00000000000E+00 0. -1.
         11    1    3    3    0    0  0.27228525028E+01  0.68938471824E+01  0.59316302867E+01  0.94933288601E+01  0.51100000000E-03 0. -1.
        -11    1    3    3    0    0 -0.31788916183E+02  0.31566499517E+01 -0.28074731808E+02  0.42528698515E+02  0.51100000000E-03 0.  1.
         12    1    3    3    0    0  0.29635265347E+02 -0.10600190323E+02  0.21267449803E+02  0.37985752700E+02  0.00000000000E+00 0. -1.
</event>
<event>
 7    1  0.3795708E-015  0.9000773E+02  0.7816164E-02  0.1186339E+00
        -11   -1    0    0    0    0  0.00000000000E+00  0.00000000000E+00  0.45593999997E+02  0.45594000000E+02  0.51100000000E-03 0. -1.
         11   -1    0    0    0    0 -0.00000000000E+00 -0.00000000000E+00 -0.45593999997E+02  0.45594000000E+02  0.51100000000E-03 0.  1.
    9900012    2    1    2    0    0 -0.94014388114E-01  0.58056123271E+00 -0.10233008868E+01  0.90007731067E+02  0.89999992317E+02 0.  0.
         12    1    1    2    0    0  0.94014388114E-01 -0.58056123271E+00  0.10233008868E+01  0.11802689333E+01  0.00000000000E+00 0. -1.
         11    1    3    3    0    0  0.27677190910E+01 -0.34317398286E+02  0.91358456330E+01  0.35620328041E+02  0.51100000000E-03 0. -1.
        -11    1    3    3    0    0  0.49166443370E+00 -0.91894745113E+01 -0.13030152699E+01  0.92944082525E+01  0.51100000000E-03 0.  1.
        -12    1    3    3    0    0 -0.33533979128E+01  0.44087434030E+02 -0.88561312499E+01  0.45092994773E+02  0.00000000000E+00 0.  1.
</event>
<event>
 7    1  0.3795708E-015  0.9000789E+02  0.7816164E-02  0.1186339E+00
        -11   -1    0    0    0    0  0.00000000000E+00  0.00000000000E+00  0.45593999997E+02  0.45594000000E+02  0.51100000000E-03 0.  1.
         11   -1    0    0    0    0 -0.00000000000E+00 -0.00000000000E+00 -0.45593999997E+02  0.45594000000E+02  0.51100000000E-03 0. -1.
    9900012    2    1    2    0    0  0.10483655839E+00 -0.88257931243E+00  0.77635785058E+00  0.90007886252E+02  0.90000149550E+02 0.  0.
         12    1    1    2    0    0 -0.10483655839E+00  0.88257931243E+00 -0.77635785058E+00  0.11801137483E+01  0.00000000000E+00 0. -1.
         11    1    3    3    0    0 -0.28345535552E+02 -0.30341287710E+02 -0.28268596506E+01  0.41617955997E+02  0.51100000000E-03 0. -1.
        -11    1    3    3    0    0  0.17994185411E+01  0.23243368171E+01 -0.80835344648E+01  0.86013939817E+01  0.51100000000E-03 0.  1.
        -12    1    3    3    0    0  0.26650953569E+02  0.27134371581E+02  0.11686751966E+02  0.39788536273E+02  0.00000000000E+00 0.  1.
</event>
<event>
 7    1  0.3795708E-015  0.9000769E+02  0.7816164E-02  0.1186339E+00
        -11   -1    0    0    0    0  0.00000000000E+00  0.00000000000E+00  0.45593999997E+02  0.45594000000E+02  0.51100000000E-03 0.  1.
         11   -1    0    0    0    0 -0.00000000000E+00 -0.00000000000E+00 -0.45593999997E+02  0.45594000000E+02  0.51100000000E-03 0. -1.
    9900012    2    1    2    0    0  0.32916745056E+00 -0.29296189028E+00  0.10949724026E+01  0.90007685448E+02  0.89999946096E+02 0.  0.
         12    1    1    2    0    0 -0.32916745056E+00  0.29296189028E+00 -0.10949724026E+01  0.11803145522E+01  0.00000000000E+00 0. -1.
         11    1    3    3    0    0  0.56656703143E+01 -0.89734011818E+00  0.29842723852E+01  0.64661365071E+01  0.51100000000E-03 0. -1.
        -11    1    3    3    0    0  0.37288742134E+02 -0.11690136365E+02 -0.26980797921E+01  0.39171280461E+02  0.51100000000E-03 0.  1.
         12    1    3    3    0    0 -0.42625244997E+02  0.12294514593E+02  0.80877980955E+00  0.44370268480E+02  0.00000000000E+00 0. -1.
</event>
<event>
 7    1  0.3795708E-015  0.9000776E+02  0.7816164E-02  0.1186339E+00
        -11   -1    0    0    0    0  0.00000000000E+00  0.00000000000E+00  0.45593999997E+02  0.45594000000E+02  0.51100000000E-03 0.  1.
         11   -1    0    0    0    0 -0.00000000000E+00 -0.00000000000E+00 -0.45593999997E+02  0.45594000000E+02  0.51100000000E-03 0. -1.
    9900012    2    1    2    0    0 -0.47100257330E+00 -0.38520788404E+00  0.10113003485E+01  0.90007764035E+02  0.90000025720E+02 0.  0.
         12    1    1    2    0    0  0.47100257330E+00  0.38520788404E+00 -0.10113003485E+01  0.11802359649E+01  0.00000000000E+00 0. -1.
         11    1    3    3    0    0 -0.43780219742E+01 -0.22149268176E+02 -0.33207802784E+02  0.40156136806E+02  0.51100000000E-03 0. -1.
        -11    1    3    3    0    0 -0.88402094789E+01 -0.14292249135E+01  0.43861018782E+01  0.99714531254E+01  0.51100000000E-03 0.  1.
        -12    1    3    3    0    0  0.12747228880E+02  0.23193285206E+02  0.29833001254E+02  0.39880174104E+02  0.00000000000E+00 0.  1.
</event>
<event>
 7    1  0.3795708E-015  0.9000764E+02  0.7816164E-02  0.1186339E+00
        -11   -1    0    0    0    0  0.00000000000E+00  0.00000000000E+00  0.45593999997E+02  0.45594000000E+02  0.51100000000E-03 0. -1.
         11   -1    0    0    0    0 -0.00000000000E+00 -0.00000000000E+00 -0.45593999997E+02  0.45594000000E+02  0.51100000000E-03 0.  1.
    9900012    2    1    2    0    0  0.67158406088E+00  0.18652342458E+00 -0.95258909414E+00  0.90007643223E+02  0.89999903313E+02 0.  0.
         12    1    1    2    0    0 -0.67158406088E+00 -0.18652342458E+00  0.95258909414E+00  0.11803567770E+01  0.00000000000E+00 0. -1.
         11    1    3    3    0    0  0.51864873061E+01  0.30919392954E+02  0.16440011523E+02  0.35400317659E+02  0.51100000000E-03 0. -1.
        -11    1    3    3    0    0 -0.20213301866E+01  0.93403739992E+01  0.23851440218E+01  0.98497347392E+01  0.51100000000E-03 0.  1.
        -12    1    3    3    0    0 -0.24935730587E+01 -0.40073243528E+02 -0.19777744639E+02  0.44757590825E+02  0.00000000000E+00 0.  1.
</event>
<event>
 7    1  0.3795708E-015  0.9000735E+02  0.7816164E-02  0.1186340E+00
        -11   -1    0    0    0    0  0.00000000000E+00  0.00000000000E+00  0.45593999997E+02  0.45594000000E+02  0.51100000000E-03 0.  1.
         11   -1    0    0    0    0 -0.00000000000E+00 -0.00000000000E+00 -0.45593999997E+02  0.45594000000E+02  0.51100000000E-03 0. -1.
    9900012    2    1    2    0    0  0.11172016297E+01 -0.36398515389E+00 -0.11537219018E+00  0.90007349579E+02  0.89999605793E+02 0.  0.
         12    1    1    2    0    0 -0.11172016297E+01  0.36398515389E+00  0.11537219018E+00  0.11806504207E+01  0.00000000000E+00 0. -1.
         11    1    3    3    0    0 -0.28316989285E+01 -0.11275831721E+02  0.80765672396E+01  0.14156053068E+02  0.51100000000E-03 0. -1.
        -11    1    3    3    0    0 -0.97729549648E+01 -0.21289749606E+02  0.20081913823E+02  0.30855264544E+02  0.51100000000E-03 0.  1.
         12    1    3    3    0    0  0.13721855523E+02  0.32201596173E+02 -0.28273853253E+02  0.44996031968E+02  0.00000000000E+00 0. -1.
</event>
<event>
 8    1  0.3795708E-015  0.9000766E+02  0.7816164E-02  0.1186339E+00
        -11   -1    0    0    0    0  0.00000000000E+00  0.00000000000E+00  0.45593999997E+02  0.45594000000E+02  0.51100000000E-03 0.  1.
         11   -1    0    0    0    0 -0.00000000000E+00 -0.00000000000E+00 -0.45593999997E+02  0.45594000000E+02  0.51100000000E-03 0. -1.
    9900012    2    1    2    0    0  0.11596388495E+01 -0.21931571317E+00  0.18163264251E-01  0.90007664646E+02  0.89999925019E+02 0.  0.
         23    2    3    3    0    0  0.44186826772E+00  0.13938521343E+02  0.14618129571E+02  0.69657761431E+02  0.66663606193E+02 0.  0.
         12    1    1    2    0    0 -0.11596388495E+01  0.21931571317E+00 -0.18163264251E-01  0.11803353538E+01  0.00000000000E+00 0. -1.
         11    1    4    4    0    0  0.18091699524E+02 -0.21229649199E+02  0.64019206090E+00  0.27900133386E+02  0.51100000000E-03 0. -1.
        -11    1    4    4    0    0 -0.17649831257E+02  0.35168170542E+02  0.13977937510E+02  0.41757628045E+02  0.51100000000E-03 0.  1.
         12    1    3    3    0    0  0.71777058181E+00 -0.14157837056E+02 -0.14599966306E+02  0.20349903215E+02  0.00000000000E+00 0. -1.
</event>
<event>
 7    1  0.3795708E-015  0.9000774E+02  0.7816164E-02  0.1186339E+00
        -11   -1    0    0    0    0  0.00000000000E+00  0.00000000000E+00  0.45593999997E+02  0.45594000000E+02  0.51100000000E-03 0. -1.
         11   -1    0    0    0    0 -0.00000000000E+00 -0.00000000000E+00 -0.45593999997E+02  0.45594000000E+02  0.51100000000E-03 0.  1.
    9900012    2    1    2    0    0 -0.50391950316E+00 -0.92786557876E+00 -0.52738321510E+00  0.90007744751E+02  0.90000006181E+02 0.  0.
         12    1    1    2    0    0  0.50391950316E+00  0.92786557876E+00  0.52738321510E+00  0.11802552493E+01  0.00000000000E+00 0. -1.
         11    1    3    3    0    0 -0.35430339622E+01  0.16543830049E+01  0.79519797908E+01  0.88613800076E+01  0.51100000000E-03 0. -1.
        -11    1    3    3    0    0  0.31890264508E+02 -0.22489610785E+02 -0.20512789206E+02  0.44085667568E+02  0.51100000000E-03 0.  1.
         12    1    3    3    0    0 -0.28851150049E+02  0.19907362202E+02  0.12033426200E+02  0.37060697175E+02  0.00000000000E+00 0. -1.
</event>
<event>
 7    1  0.3795708E-015  0.9000815E+02  0.7816164E-02  0.1186338E+00
        -11   -1    0    0    0    0  0.00000000000E+00  0.00000000000E+00  0.45593999997E+02  0.45594000000E+02  0.51100000000E-03 0. -1.
         11   -1    0    0    0    0 -0.00000000000E+00 -0.00000000000E+00 -0.45593999997E+02  0.45594000000E+02  0.51100000000E-03 0.  1.
    9900012    2    1    2    0    0 -0.10658190842E+01  0.36658944198E+00 -0.34883720790E+00  0.90008150206E+02  0.90000416988E+02 0.  0.
         12    1    1    2    0    0  0.10658190842E+01 -0.36658944198E+00  0.34883720790E+00  0.11798497941E+01  0.00000000000E+00 0. -1.
         11    1    3    3    0    0 -0.90692028397E+01 -0.24565400180E+02  0.22012619680E+02  0.34209132576E+02  0.51100000000E-03 0. -1.
        -11    1    3    3    0    0  0.94068739189E+00 -0.55877182553E+01  0.95352451694E+01  0.11091816297E+02  0.51100000000E-03 0.  1.
        -12    1    3    3    0    0  0.70626963636E+01  0.30519707878E+02 -0.31896702057E+02  0.44707201333E+02  0.00000000000E+00 0.  1.
</event>
<event>
 7    1  0.3795708E-015  0.9000787E+02  0.7816164E-02  0.1186339E+00
        -11   -1    0    0    0    0  0.00000000000E+00  0.00000000000E+00  0.45593999997E+02  0.45594000000E+02  0.51100000000E-03 0. -1.
         11   -1    0    0    0    0 -0.00000000000E+00 -0.00000000000E+00 -0.45593999997E+02  0.45594000000E+02  0.51100000000E-03 0.  1.
    9900012    2    1    2    0    0 -0.27783510895E+00 -0.11163769361E+01 -0.26308207571E+00  0.90007872045E+02  0.90000135156E+02 0.  0.
         12    1    1    2    0    0  0.27783510895E+00  0.11163769361E+01  0.26308207571E+00  0.11801279548E+01  0.00000000000E+00 0. -1.
         11    1    3    3    0    0 -0.79948631767E+00  0.17265184467E+02  0.44826772022E+01  0.17855536066E+02  0.51100000000E-03 0. -1.
        -11    1    3    3    0    0  0.23369738855E+02 -0.75092940907E+01 -0.28383892433E+02  0.37525718405E+02  0.51100000000E-03 0.  1.
         12    1    3    3    0    0 -0.22848087647E+02 -0.10872267312E+02  0.23638133155E+02  0.34626617575E+02  0.00000000000E+00 0. -1.
</event>
<event>
 7    1  0.3795708E-015  0.9000762E+02  0.7816164E-02  0.1186339E+00
        -11   -1    0    0    0    0  0.00000000000E+00  0.00000000000E+00  0.45593999997E+02  0.45594000000E+02  0.51100000000E-03 0. -1.
         11   -1    0    0    0    0 -0.00000000000E+00 -0.00000000000E+00 -0.45593999997E+02  0.45594000000E+02  0.51100000000E-03 0.  1.
    9900012    2    1    2    0    0  0.11128918014E+01 -0.39147341001E+00  0.38848844632E-01  0.90007623439E+02  0.89999883269E+02 0.  0.
         12    1    1    2    0    0 -0.11128918014E+01  0.39147341001E+00 -0.38848844632E-01  0.11803765607E+01  0.00000000000E+00 0. -1.
         11    1    3    3    0    0 -0.89109907825E+01 -0.40888879890E+02  0.71970220381E+01  0.42462964827E+02  0.51100000000E-03 0. -1.
        -11    1    3    3    0    0  0.66884860121E+01  0.54422754546E+01  0.53823392553E+01  0.10164830711E+02  0.51100000000E-03 0.  1.
        -12    1    3    3    0    0  0.33353965718E+01  0.35055131025E+02 -0.12540512449E+02  0.37379827902E+02  0.00000000000E+00 0.  1.
</event>
<event>
 7    1  0.3795708E-015  0.9000773E+02  0.7816164E-02  0.1186339E+00
        -11   -1    0    0    0    0  0.00000000000E+00  0.00000000000E+00  0.45593999997E+02  0.45594000000E+02  0.51100000000E-03 0.  1.
         11   -1    0    0    0    0 -0.00000000000E+00 -0.00000000000E+00 -0.45593999997E+02  0.45594000000E+02  0.51100000000E-03 0. -1.
    9900012    2    1    2    0    0 -0.10850087258E+01  0.44965532472E+00 -0.11660674663E+00  0.90007732666E+02  0.89999993937E+02 0.  0.
         12    1    1    2    0    0  0.10850087258E+01 -0.44965532472E+00  0.11660674663E+00  0.11802673339E+01  0.00000000000E+00 0. -1.
         11    1    3    3    0    0  0.12474896797E+02 -0.31442472754E+02 -0.10174270865E+02  0.35323758731E+02  0.51100000000E-03 0. -1.
        -11    1    3    3    0    0  0.25602800312E+01 -0.86957268928E+01  0.58974586055E+01  0.10814375539E+02  0.51100000000E-03 0.  1.
        -12    1    3    3    0    0 -0.16120185554E+02  0.40587854972E+02  0.41602055130E+01  0.43869598396E+02  0.00000000000E+00 0.  1.
</event>
<event>
 7    1  0.3795708E-015  0.9000769E+02  0.7816164E-02  0.1186339E+00
        -11   -1    0    0    0    0  0.00000000000E+00  0.00000000000E+00  0.45593999997E+02  0.45594000000E+02  0.51100000000E-03 0. -1.
         11   -1    0    0    0    0 -0.00000000000E+00 -0.00000000000E+00 -0.45593999997E+02  0.45594000000E+02  0.51100000000E-03 0.  1.
    9900012    2    1    2    0    0 -0.56992136959E+00 -0.61306124636E-01 -0.10317801491E+01  0.90007686870E+02  0.89999947537E+02 0.  0.
         12    1    1    2    0    0  0.56992136959E+00  0.61306124636E-01  0.10317801491E+01  0.11803131299E+01  0.00000000000E+00 0. -1.
         11    1    3    3    0    0 -0.38284945341E+01  0.49689150976E+01  0.71024330375E+01  0.94758663434E+01  0.51100000000E-03 0. -1.
        -11    1    3    3    0    0 -0.29444919265E+02  0.79486938826E+00 -0.28974245711E+02  0.41317574986E+02  0.51100000000E-03 0.  1.
         12    1    3    3    0    0  0.32703492430E+02 -0.58250906105E+01  0.20840032525E+02  0.39214245541E+02  0.00000000000E+00 0. -1.
</event>
<event>
 7    1  0.3795708E-015  0.9000780E+02  0.7816164E-02  0.1186339E+00
        -11   -1    0    0    0    0  0.00000000000E+00  0.00000000000E+00  0.45593999997E+02  0.45594000000E+02  0.51100000000E-03 0.  1.
         11   -1    0    0    0    0 -0.00000000000E+00 -0.00000000000E+00 -0.45593999997E+02  0.45594000000E+02  0.51100000000E-03 0. -1.
    9900012    2    1    2    0    0  0.67169252970E+00  0.94349403202E+00  0.22699848753E+00  0.90007796561E+02  0.90000058676E+02 0.  0.
         12    1    1    2    0    0 -0.67169252970E+00 -0.94349403202E+00 -0.22699848753E+00  0.11802034385E+01  0.00000000000E+00 0. -1.
         11    1    3    3    0    0 -0.42918558226E+02  0.61839431803E+00 -0.75129720159E+01  0.43575564260E+02  0.51100000000E-03 0. -1.
        -11    1    3    3    0    0  0.84088621016E+01 -0.55095116385E+01  0.66293553957E+00  0.10074877872E+02  0.51100000000E-03 0.  1.
        -12    1    3    3    0    0  0.35181388654E+02  0.58346113525E+01  0.70770349638E+01  0.36357354430E+02  0.00000000000E+00 0.  1.
</event>
<event>
 7    1  0.3795708E-015  0.9000758E+02  0.7816164E-02  0.1186339E+00
        -11   -1    0    0    0    0  0.00000000000E+00  0.00000000000E+00  0.45593999997E+02  0.45594000000E+02  0.51100000000E-03 0. -1.
         11   -1    0    0    0    0 -0.00000000000E+00 -0.00000000000E+00 -0.45593999997E+02  0.45594000000E+02  0.51100000000E-03 0.  1.
    9900012    2    1    2    0    0  0.66766850177E+00  0.97342643670E+00  0.70044931830E-02  0.90007580872E+02  0.89999840139E+02 0.  0.
         12    1    1    2    0    0 -0.66766850177E+00 -0.97342643670E+00 -0.70044931830E-02  0.11804191285E+01  0.00000000000E+00 0. -1.
         11    1    3    3    0    0 -0.70136037496E+01 -0.34153792436E+02  0.47521480952E+01  0.35188848903E+02  0.51100000000E-03 0. -1.
        -11    1    3    3    0    0 -0.53453898308E+01 -0.79527027975E+01 -0.14577815713E+01  0.96924610703E+01  0.51100000000E-03 0.  1.
        -12    1    3    3    0    0  0.13026662082E+02  0.43079921670E+02 -0.32873620307E+01  0.45126270899E+02  0.00000000000E+00 0.  1.
</event>
<event>
 7    1  0.3795708E-015  0.9000767E+02  0.7816164E-02  0.1186339E+00
        -11   -1    0    0    0    0  0.00000000000E+00  0.00000000000E+00  0.45593999997E+02  0.45594000000E+02  0.51100000000E-03 0. -1.
         11   -1    0    0    0    0 -0.00000000000E+00 -0.00000000000E+00 -0.45593999997E+02  0.45594000000E+02  0.51100000000E-03 0.  1.
    9900012    2    1    2    0    0  0.53842614817E+00  0.16667203601E+00 -0.10370662025E+01  0.90007665898E+02  0.89999926288E+02 0.  0.
         12    1    1    2    0    0 -0.53842614817E+00 -0.16667203601E+00  0.10370662025E+01  0.11803341022E+01  0.00000000000E+00 0. -1.
         11    1    3    3    0    0  0.37358957250E+01  0.80185796156E+01  0.14620622381E+01  0.89661676411E+01  0.51100000000E-03 0. -1.
        -11    1    3    3    0    0  0.28220137803E+02  0.13405669008E+02 -0.22171723104E+02  0.38310226374E+02  0.51100000000E-03 0.  1.
         12    1    3    3    0    0 -0.31417607380E+02 -0.21257576588E+02  0.19672594663E+02  0.42731271882E+02  0.00000000000E+00 0. -1.
</event>
<event>
 7    1  0.3795708E-015  0.9000756E+02  0.7816164E-02  0.1186339E+00
        -11   -1    0    0    0    0  0.00000000000E+00  0.00000000000E+00  0.45593999997E+02  0.45594000000E+02  0.51100000000E-03 0. -1.
         11   -1    0    0    0    0 -0.00000000000E+00 -0.00000000000E+00 -0.45593999997E+02  0.45594000000E+02  0.51100000000E-03 0.  1.
    9900012    2    1    2    0    0 -0.42963414399E+00  0.78072753193E+00 -0.77416096124E+00  0.90007556791E+02  0.89999815740E+02 0.  0.
         12    1    1    2    0    0  0.42963414399E+00 -0.78072753193E+00  0.77416096124E+00  0.11804432094E+01  0.00000000000E+00 0. -1.
         11    1    3    3    0    0 -0.36980053015E+01  0.96471879785E+00  0.34046644399E+02  0.34260471694E+02  0.51100000000E-03 0. -1.
        -11    1    3    3    0    0 -0.64657055442E+01 -0.36132941635E+01  0.84649700617E+01  0.11247975876E+02  0.51100000000E-03 0.  1.
        -12    1    3    3    0    0  0.97340767017E+01  0.34293028976E+01 -0.43285775422E+02  0.44499109221E+02  0.00000000000E+00 0.  1.
</event>
<event>
 7    1  0.3795708E-015  0.9000779E+02  0.7816164E-02  0.1186339E+00
        -11   -1    0    0    0    0  0.00000000000E+00  0.00000000000E+00  0.45593999997E+02  0.45594000000E+02  0.51100000000E-03 0. -1.
         11   -1    0    0    0    0 -0.00000000000E+00 -0.00000000000E+00 -0.45593999997E+02  0.45594000000E+02  0.51100000000E-03 0.  1.
    9900012    2    1    2    0    0  0.35068630399E+00  0.56418204544E+00 -0.97550742154E+00  0.90007789428E+02  0.90000051449E+02 0.  0.
         12    1    1    2    0    0 -0.35068630399E+00 -0.56418204544E+00  0.97550742154E+00  0.11802105718E+01  0.00000000000E+00 0. -1.
         11    1    3    3    0    0 -0.76171983414E+01  0.60128452213E+01  0.19281192064E+01  0.98941226070E+01  0.51100000000E-03 0. -1.
        -11    1    3    3    0    0 -0.11974927563E+02  0.25804433148E+02 -0.24208726329E+02  0.37354117457E+02  0.51100000000E-03 0.  1.
         12    1    3    3    0    0  0.19942812208E+02 -0.31253096324E+02  0.21305099702E+02  0.42759549365E+02  0.00000000000E+00 0. -1.
</event>
<event>
 7    1  0.3795708E-015  0.9000772E+02  0.7816164E-02  0.1186339E+00
        -11   -1    0    0    0    0  0.00000000000E+00  0.00000000000E+00  0.45593999997E+02  0.45594000000E+02  0.51100000000E-03 0.  1.
         11   -1    0    0    0    0 -0.00000000000E+00 -0.00000000000E+00 -0.45593999997E+02  0.45594000000E+02  0.51100000000E-03 0. -1.
    9900012    2    1    2    0    0  0.89927156575E+00  0.72030173763E+00 -0.25598124398E+00  0.90007724465E+02  0.89999985628E+02 0.  0.
         12    1    1    2    0    0 -0.89927156575E+00 -0.72030173763E+00  0.25598124398E+00  0.11802755354E+01  0.00000000000E+00 0. -1.
         11    1    3    3    0    0  0.15833100424E+02  0.10614355986E+02 -0.33328052168E+02  0.38394149081E+02  0.51100000000E-03 0. -1.
        -11    1    3    3    0    0  0.40507388032E+01  0.84083303290E+01  0.23059156985E-01  0.93332221531E+01  0.51100000000E-03 0.  1.
        -12    1    3    3    0    0 -0.18984567662E+02 -0.18302384577E+02  0.33049011767E+02  0.42280353231E+02  0.00000000000E+00 0.  1.
</event>
<event>
 7    1  0.3795708E-015  0.9000775E+02  0.7816164E-02  0.1186339E+00
        -11   -1    0    0    0    0  0.00000000000E+00  0.00000000000E+00  0.45593999997E+02  0.45594000000E+02  0.51100000000E-03 0.  1.
         11   -1    0    0    0    0 -0.00000000000E+00 -0.00000000000E+00 -0.45593999997E+02  0.45594000000E+02  0.51100000000E-03 0. -1.
    9900012    2    1    2    0    0 -0.67577533460E+00 -0.81532594174E+00 -0.52110787335E+00  0.90007753369E+02  0.90000014914E+02 0.  0.
         12    1    1    2    0    0  0.67577533460E+00  0.81532594174E+00  0.52110787335E+00  0.11802466309E+01  0.00000000000E+00 0. -1.
         11    1    3    3    0    0  0.52390539050E+01 -0.69944723979E+01 -0.34609493813E+01  0.93993883219E+01  0.51100000000E-03 0. -1.
        -11    1    3    3    0    0  0.24798202115E+02  0.31898650639E+02  0.33924197860E+01  0.40546063347E+02  0.51100000000E-03 0.  1.
         12    1    3    3    0    0 -0.30713031355E+02 -0.25719504183E+02 -0.45257827810E+00  0.40062301700E+02  0.00000000000E+00 0. -1.
</event>
<event>
 7    1  0.3795708E-015  0.9000786E+02  0.7816164E-02  0.1186339E+00
        -11   -1    0    0    0    0  0.00000000000E+00  0.00000000000E+00  0.45593999997E+02  0.45594000000E+02  0.51100000000E-03 0.  1.
         11   -1    0    0    0    0 -0.00000000000E+00 -0.00000000000E+00 -0.45593999997E+02  0.45594000000E+02  0.51100000000E-03 0. -1.
    9900012    2    1    2    0    0  0.15383928509E+00  0.14295261991E+00  0.11613054155E+01  0.90007859227E+02  0.90000122168E+02 0.  0.
         12    1    1    2    0    0 -0.15383928509E+00 -0.14295261991E+00 -0.11613054155E+01  0.11801407735E+01  0.00000000000E+00 0. -1.
         11    1    3    3    0    0 -0.33260141398E+02 -0.12335782397E+02  0.55142451152E+01  0.35900075663E+02  0.51100000000E-03 0. -1.
        -11    1    3    3    0    0 -0.79110356385E+01 -0.29996407480E+01 -0.52734636129E+01  0.99695410240E+01  0.51100000000E-03 0.  1.
        -12    1    3    3    0    0  0.41325016321E+02  0.15478375765E+02  0.92052391321E+00  0.44138242540E+02  0.00000000000E+00 0.  1.
</event>
<event>
 7    1  0.3795708E-015  0.9000665E+02  0.7816164E-02  0.1186341E+00
        -11   -1    0    0    0    0  0.00000000000E+00  0.00000000000E+00  0.45593999997E+02  0.45594000000E+02  0.51100000000E-03 0.  1.
         11   -1    0    0    0    0 -0.00000000000E+00 -0.00000000000E+00 -0.45593999997E+02  0.45594000000E+02  0.51100000000E-03 0. -1.
    9900012    2    1    2    0    0 -0.99807657642E+00  0.62441698557E+00  0.97598144641E-01  0.90006653809E+02  0.89998900833E+02 0.  0.
         12    1    1    2    0    0  0.99807657642E+00 -0.62441698557E+00 -0.97598144641E-01  0.11813461906E+01  0.00000000000E+00 0. -1.
         11    1    3    3    0    0  0.26411473755E+02  0.29347527753E+02  0.21569377057E+01  0.39541063613E+02  0.51100000000E-03 0. -1.
        -11    1    3    3    0    0  0.36385338631E+01 -0.34918106517E+01 -0.85583565204E+01  0.99336366398E+01  0.51100000000E-03 0.  1.
        -12    1    3    3    0    0 -0.31048084195E+02 -0.25231300116E+02  0.64990169593E+01  0.40531953557E+02  0.00000000000E+00 0.  1.
</event>
<event>
 7    1  0.3795708E-015  0.9000775E+02  0.7816164E-02  0.1186339E+00
        -11   -1    0    0    0    0  0.00000000000E+00  0.00000000000E+00  0.45593999997E+02  0.45594000000E+02  0.51100000000E-03 0. -1.
         11   -1    0    0    0    0 -0.00000000000E+00 -0.00000000000E+00 -0.45593999997E+02  0.45594000000E+02  0.51100000000E-03 0.  1.
    9900012    2    1    2    0    0  0.37164167401E+00 -0.10041197694E+01  0.49660141673E+00  0.90007751292E+02  0.90000012809E+02 0.  0.
         12    1    1    2    0    0 -0.37164167401E+00  0.10041197694E+01 -0.49660141673E+00  0.11802487078E+01  0.00000000000E+00 0. -1.
         11    1    3    3    0    0 -0.45058970484E+00  0.89850603513E+01 -0.41868865893E+01  0.99229209496E+01  0.51100000000E-03 0. -1.
        -11    1    3    3    0    0 -0.26090492104E+01  0.33743637757E+02 -0.72737637467E+01  0.34617161440E+02  0.51100000000E-03 0.  1.
         12    1    3    3    0    0  0.34312805893E+01 -0.43732817877E+02  0.11957251753E+02  0.45467668903E+02  0.00000000000E+00 0. -1.
</event>
<event>
 7    1  0.3795708E-015  0.9000771E+02  0.7816164E-02  0.1186339E+00
        -11   -1    0    0    0    0  0.00000000000E+00  0.00000000000E+00  0.45593999997E+02  0.45594000000E+02  0.51100000000E-03 0.  1.
         11   -1    0    0    0    0 -0.00000000000E+00 -0.00000000000E+00 -0.45593999997E+02  0.45594000000E+02  0.51100000000E-03 0. -1.
    9900012    2    1    2    0    0 -0.10115667464E+01 -0.46828447180E+00  0.38798270986E+00  0.90007708421E+02  0.89999969372E+02 0.  0.
         12    1    1    2    0    0  0.10115667464E+01  0.46828447180E+00 -0.38798270986E+00  0.11802915793E+01  0.00000000000E+00 0. -1.
         11    1    3    3    0    0 -0.75530984154E+01  0.47245335370E+01 -0.33509033933E+02  0.34673128907E+02  0.51100000000E-03 0. -1.
        -11    1    3    3    0    0 -0.59105543284E+01 -0.92502310185E+00 -0.88076235605E+01  0.10647279148E+02  0.51100000000E-03 0.  1.
        -12    1    3    3    0    0  0.12452085997E+02 -0.42677949069E+01  0.42704640204E+02  0.44687300366E+02  0.00000000000E+00 0.  1.
</event>
<event>
 7    1  0.3795708E-015  0.9000779E+02  0.7816164E-02  0.1186339E+00
        -11   -1    0    0    0    0  0.00000000000E+00  0.00000000000E+00  0.45593999997E+02  0.45594000000E+02  0.51100000000E-03 0. -1.
         11   -1    0    0    0    0 -0.00000000000E+00 -0.00000000000E+00 -0.45593999997E+02  0.45594000000E+02  0.51100000000E-03 0.  1.
    9900012    2    1    2    0    0  0.10046799445E+01  0.61684125111E+00 -0.54974195180E-01  0.90007789391E+02  0.90000051411E+02 0.  0.
         12    1    1    2    0    0 -0.10046799445E+01 -0.61684125111E+00  0.54974195180E-01  0.11802106092E+01  0.00000000000E+00 0. -1.
         11    1    3    3    0    0  0.33001012916E+01 -0.31246843478E+02  0.18553935537E+02  0.36489785146E+02  0.51100000000E-03 0. -1.
        -11    1    3    3    0    0  0.74344887677E+01 -0.56575858643E+01 -0.10242229235E+02  0.13863014138E+02  0.51100000000E-03 0.  1.
        -12    1    3    3    0    0 -0.97299101147E+01  0.37521270593E+02 -0.83666804972E+01  0.39654990106E+02  0.00000000000E+00 0.  1.
</event>
<event>
 7    1  0.3795708E-015  0.9000771E+02  0.7816164E-02  0.1186339E+00
        -11   -1    0    0    0    0  0.00000000000E+00  0.00000000000E+00  0.45593999997E+02  0.45594000000E+02  0.51100000000E-03 0. -1.
         11   -1    0    0    0    0 -0.00000000000E+00 -0.00000000000E+00 -0.45593999997E+02  0.45594000000E+02  0.51100000000E-03 0.  1.
    9900012    2    1    2    0    0 -0.11081798687E+01  0.77060606602E-01 -0.39884565313E+00  0.90007712402E+02  0.89999973406E+02 0.  0.
         12    1    1    2    0    0  0.11081798687E+01 -0.77060606602E-01  0.39884565313E+00  0.11802875978E+01  0.00000000000E+00 0. -1.
         11    1    3    3    0    0  0.20612068430E+02 -0.27643574817E+02  0.11623342092E+02  0.36388551431E+02  0.51100000000E-03 0. -1.
        -11    1    3    3    0    0  0.26264816086E+01 -0.81667690650E+01  0.13806477082E+00  0.85798359392E+01  0.51100000000E-03 0.  1.
        -12    1    3    3    0    0 -0.24346729907E+02  0.35887404488E+02 -0.12160252516E+02  0.45039325032E+02  0.00000000000E+00 0.  1.
</event>
<event>
 7    1  0.3795708E-015  0.9000774E+02  0.7816164E-02  0.1186339E+00
        -11   -1    0    0    0    0  0.00000000000E+00  0.00000000000E+00  0.45593999997E+02  0.45594000000E+02  0.51100000000E-03 0. -1.
         11   -1    0    0    0    0 -0.00000000000E+00 -0.00000000000E+00 -0.45593999997E+02  0.45594000000E+02  0.51100000000E-03 0.  1.
    9900012    2    1    2    0    0  0.36964976138E+00 -0.85869047389E+00 -0.72043365692E+00  0.90007739465E+02  0.90000000826E+02 0.  0.
         12    1    1    2    0    0 -0.36964976138E+00  0.85869047389E+00  0.72043365692E+00  0.11802605348E+01  0.00000000000E+00 0. -1.
         11    1    3    3    0    0 -0.22802504679E+01  0.40547372987E+00 -0.60775869030E+01  0.65039229674E+01  0.51100000000E-03 0. -1.
        -11    1    3    3    0    0 -0.26155424674E+02  0.16447813360E+02 -0.23683540924E+02  0.38930025882E+02  0.51100000000E-03 0.  1.
         12    1    3    3    0    0  0.28805324903E+02 -0.17711977564E+02  0.29040694170E+02  0.44573790616E+02  0.00000000000E+00 0. -1.
</event>
<event>
 7    1  0.3795708E-015  0.9000771E+02  0.7816164E-02  0.1186339E+00
        -11   -1    0    0    0    0  0.00000000000E+00  0.00000000000E+00  0.45593999997E+02  0.45594000000E+02  0.51100000000E-03 0. -1.
         11   -1    0    0    0    0 -0.00000000000E+00 -0.00000000000E+00 -0.45593999997E+02  0.45594000000E+02  0.51100000000E-03 0.  1.
    9900012    2    1    2    0    0 -0.14944797771E+00 -0.11448132321E+01  0.24524534686E+00  0.90007713037E+02  0.89999974049E+02 0.  0.
         12    1    1    2    0    0  0.14944797771E+00  0.11448132321E+01 -0.24524534686E+00  0.11802869628E+01  0.00000000000E+00 0. -1.
         11    1    3    3    0    0  0.65167621435E+01  0.38549750073E+01 -0.28909554871E+01  0.81047297939E+01  0.51100000000E-03 0. -1.
        -11    1    3    3    0    0  0.20154423433E+02  0.22594679969E+02 -0.20663656850E+02  0.36656610066E+02  0.51100000000E-03 0.  1.
         12    1    3    3    0    0 -0.26820633555E+02 -0.27594468208E+02  0.23799857684E+02  0.45246373178E+02  0.00000000000E+00 0. -1.
</event>
<event>
 7    1  0.3795708E-015  0.9000812E+02  0.7816164E-02  0.1186338E+00
        -11   -1    0    0    0    0  0.00000000000E+00  0.00000000000E+00  0.45593999997E+02  0.45594000000E+02  0.51100000000E-03 0. -1.
         11   -1    0    0    0    0 -0.00000000000E+00 -0.00000000000E+00 -0.45593999997E+02  0.45594000000E+02  0.51100000000E-03 0.  1.
    9900012    2    1    2    0    0 -0.12774301560E+00  0.11213540968E+01 -0.34403008247E+00  0.90008122894E+02  0.90000389315E+02 0.  0.
         12    1    1    2    0    0  0.12774301560E+00 -0.11213540968E+01  0.34403008247E+00  0.11798771064E+01  0.00000000000E+00 0. -1.
         11    1    3    3    0    0 -0.18929196588E+02  0.12266474942E+02 -0.13565390779E+02  0.26321107846E+02  0.51100000000E-03 0. -1.
        -11    1    3    3    0    0  0.24164039331E+02 -0.15644406892E+02 -0.16481403078E+02  0.33170542827E+02  0.51100000000E-03 0.  1.
         12    1    3    3    0    0 -0.53625857587E+01  0.44992860465E+01  0.29702763775E+02  0.30516472221E+02  0.00000000000E+00 0. -1.
</event>
<event>
 7    1  0.3795708E-015  0.9000769E+02  0.7816164E-02  0.1186339E+00
        -11   -1    0    0    0    0  0.00000000000E+00  0.00000000000E+00  0.45593999997E+02  0.45594000000E+02  0.51100000000E-03 0.  1.
         11   -1    0    0    0    0 -0.00000000000E+00 -0.00000000000E+00 -0.45593999997E+02  0.45594000000E+02  0.51100000000E-03 0. -1.
    9900012    2    1    2    0    0 -0.11456924548E+01 -0.21415437275E+00 -0.18616682007E+00  0.90007690133E+02  0.89999950843E+02 0.  0.
         12    1    1    2    0    0  0.11456924548E+01  0.21415437275E+00  0.18616682007E+00  0.11803098666E+01  0.00000000000E+00 0. -1.
         11    1    3    3    0    0  0.19490690233E+00 -0.78622364530E+01 -0.20871577628E+01  0.81368899791E+01  0.51100000000E-03 0. -1.
        -11    1    3    3    0    0  0.73648544589E+01 -0.26508322974E+02  0.27040366036E+02  0.38576076313E+02  0.51100000000E-03 0.  1.
         12    1    3    3    0    0 -0.87054538160E+01  0.34156405054E+02 -0.25139375094E+02  0.43294723841E+02  0.00000000000E+00 0. -1.
</event>
<event>
 7    1  0.3795708E-015  0.9000871E+02  0.7816164E-02  0.1186337E+00
        -11   -1    0    0    0    0  0.00000000000E+00  0.00000000000E+00  0.45593999997E+02  0.45594000000E+02  0.51100000000E-03 0. -1.
         11   -1    0    0    0    0 -0.00000000000E+00 -0.00000000000E+00 -0.45593999997E+02  0.45594000000E+02  0.51100000000E-03 0.  1.
    9900012    2    1    2    0    0 -0.91118150689E+00 -0.58995361521E+00 -0.46089916558E+00  0.90008709939E+02  0.90000984105E+02 0.  0.
         12    1    1    2    0    0  0.91118150689E+00  0.58995361521E+00  0.46089916558E+00  0.11792900608E+01  0.00000000000E+00 0. -1.
         11    1    3    3    0    0 -0.29321592096E+02 -0.11650291579E+02  0.16276869290E+02  0.35502415849E+02  0.51100000000E-03 0. -1.
        -11    1    3    3    0    0 -0.35410658731E+01 -0.46532904219E+01  0.88867356080E+01  0.10637966408E+02  0.51100000000E-03 0.  1.
        -12    1    3    3    0    0  0.31951476462E+02  0.15713628385E+02 -0.25624504064E+02  0.43868327683E+02  0.00000000000E+00 0.  1.
</event>
<event>
 7    1  0.3795708E-015  0.9000814E+02  0.7816164E-02  0.1186338E+00
        -11   -1    0    0    0    0  0.00000000000E+00  0.00000000000E+00  0.45593999997E+02  0.45594000000E+02  0.51100000000E-03 0.  1.
         11   -1    0    0    0    0 -0.00000000000E+00 -0.00000000000E+00 -0.45593999997E+02  0.45594000000E+02  0.51100000000E-03 0. -1.
    9900012    2    1    2    0    0 -0.25099837799E+00  0.11473180775E+01  0.11277966758E+00  0.90008144835E+02  0.90000411546E+02 0.  0.
         12    1    1    2    0    0  0.25099837799E+00 -0.11473180775E+01 -0.11277966758E+00  0.11798551649E+01  0.00000000000E+00 0. -1.
         11    1    3    3    0    0 -0.95077620278E+01  0.36750379419E+02  0.90540365067E+01  0.39025165003E+02  0.51100000000E-03 0. -1.
        -11    1    3    3    0    0 -0.34047111334E+00  0.50331536552E+01 -0.77062348988E+01  0.92105707137E+01  0.51100000000E-03 0.  1.
        -12    1    3    3    0    0  0.95972347631E+01 -0.40636214997E+02 -0.12350219403E+01  0.41772409118E+02  0.00000000000E+00 0.  1.
</event>
<event>
 7    1  0.3795708E-015  0.9000774E+02  0.7816164E-02  0.1186339E+00
        -11   -1    0    0    0    0  0.00000000000E+00  0.00000000000E+00  0.45593999997E+02  0.45594000000E+02  0.51100000000E-03 0. -1.
         11   -1    0    0    0    0 -0.00000000000E+00 -0.00000000000E+00 -0.45593999997E+02  0.45594000000E+02  0.51100000000E-03 0.  1.
    9900012    2    1    2    0    0 -0.11491127512E+01 -0.26679260228E+00  0.36971330668E-01  0.90007743550E+02  0.90000004965E+02 0.  0.
         12    1    1    2    0    0  0.11491127512E+01  0.26679260228E+00 -0.36971330668E-01  0.11802564496E+01  0.00000000000E+00 0. -1.
         11    1    3    3    0    0 -0.20496702544E+02  0.22605851340E+02  0.23272831637E+02  0.38376607753E+02  0.51100000000E-03 0. -1.
        -11    1    3    3    0    0 -0.84276298683E+01  0.15295592322E+01 -0.13615969662E+01  0.86728566921E+01  0.51100000000E-03 0.  1.
        -12    1    3    3    0    0  0.27775219661E+02 -0.24402203174E+02 -0.21874263340E+02  0.42958279105E+02  0.00000000000E+00 0.  1.
</event>
<event>
 7    1  0.3795708E-015  0.9000772E+02  0.7816164E-02  0.1186339E+00
        -11   -1    0    0    0    0  0.00000000000E+00  0.00000000000E+00  0.45593999997E+02  0.45594000000E+02  0.51100000000E-03 0.  1.
         11   -1    0    0    0    0 -0.00000000000E+00 -0.00000000000E+00 -0.45593999997E+02  0.45594000000E+02  0.51100000000E-03 0. -1.
    9900012    2    1    2    0    0  0.66758253112E-01 -0.90767932852E+00 -0.75148412428E+00  0.90007717484E+02  0.89999978555E+02 0.  0.
         12    1    1    2    0    0 -0.66758253112E-01  0.90767932852E+00  0.75148412428E+00  0.11802825157E+01  0.00000000000E+00 0. -1.
         11    1    3    3    0    0  0.80578882074E+01  0.26591507395E+01 -0.55284118069E+01  0.10127387737E+02  0.51100000000E-03 0. -1.
        -11    1    3    3    0    0 -0.25806190588E+02 -0.18238012976E+01  0.35736888357E+02  0.44118147213E+02  0.51100000000E-03 0.  1.
         12    1    3    3    0    0  0.17815060633E+02 -0.17430287704E+01 -0.30959960674E+02  0.35762182534E+02  0.00000000000E+00 0. -1.
</event>
<event>
 7    1  0.3795708E-015  0.9000771E+02  0.7816164E-02  0.1186339E+00
        -11   -1    0    0    0    0  0.00000000000E+00  0.00000000000E+00  0.45593999997E+02  0.45594000000E+02  0.51100000000E-03 0. -1.
         11   -1    0    0    0    0 -0.00000000000E+00 -0.00000000000E+00 -0.45593999997E+02  0.45594000000E+02  0.51100000000E-03 0.  1.
    9900012    2    1    2    0    0  0.53464047289E+00  0.31428016129E+00 -0.10042238267E+01  0.90007712768E+02  0.89999973777E+02 0.  0.
         12    1    1    2    0    0 -0.53464047289E+00 -0.31428016129E+00  0.10042238267E+01  0.11802872317E+01  0.00000000000E+00 0. -1.
         11    1    3    3    0    0  0.23467859438E+01  0.89520203039E+01  0.20179157652E+01  0.94719615753E+01  0.51100000000E-03 0. -1.
        -11    1    3    3    0    0  0.22209959300E+02  0.93730113120E+01 -0.31153846005E+02  0.39391594970E+02  0.51100000000E-03 0.  1.
         12    1    3    3    0    0 -0.24022104771E+02 -0.18010751455E+02  0.28131706413E+02  0.41144156223E+02  0.00000000000E+00 0. -1.
</event>
<event>
 7    1  0.3795708E-015  0.9000785E+02  0.7816164E-02  0.1186339E+00
        -11   -1    0    0    0    0  0.00000000000E+00  0.00000000000E+00  0.45593999997E+02  0.45594000000E+02  0.51100000000E-03 0.  1.
         11   -1    0    0    0    0 -0.00000000000E+00 -0.00000000000E+00 -0.45593999997E+02  0.45594000000E+02  0.51100000000E-03 0. -1.
    9900012    2    1    2    0    0  0.34815728268E+00 -0.58635852740E+00  0.96318295597E+00  0.90007851186E+02  0.90000114022E+02 0.  0.
         12    1    1    2    0    0 -0.34815728268E+00  0.58635852740E+00 -0.96318295597E+00  0.11801488138E+01  0.00000000000E+00 0. -1.
         11    1    3    3    0    0 -0.80529656898E+01 -0.16141751954E+01  0.31180330583E+01  0.87850980857E+01  0.51100000000E-03 0. -1.
        -11    1    3    3    0    0  0.10311520101E+02 -0.18420358653E+01  0.38766354824E+02  0.40156578658E+02  0.51100000000E-03 0.  1.
         12    1    3    3    0    0 -0.19103971286E+01  0.28698525333E+01 -0.40921204926E+02  0.41066174443E+02  0.00000000000E+00 0. -1.
</event>
<event>
 7    1  0.3795708E-015  0.9000771E+02  0.7816164E-02  0.1186339E+00
        -11   -1    0    0    0    0  0.00000000000E+00  0.00000000000E+00  0.45593999997E+02  0.45594000000E+02  0.51100000000E-03 0.  1.
         11   -1    0    0    0    0 -0.00000000000E+00 -0.00000000000E+00 -0.45593999997E+02  0.45594000000E+02  0.51100000000E-03 0. -1.
    9900012    2    1    2    0    0 -0.81497047590E+00  0.55012267475E+00  0.65289868587E+00  0.90007708287E+02  0.89999969236E+02 0.  0.
         12    1    1    2    0    0  0.81497047590E+00 -0.55012267475E+00 -0.65289868587E+00  0.11802917130E+01  0.00000000000E+00 0. -1.
         11    1    3    3    0    0  0.70525156789E+01 -0.57111473261E+01  0.60095296758E+01  0.10884375424E+02  0.51100000000E-03 0. -1.
        -11    1    3    3    0    0  0.35340194472E+02  0.80881969010E+00 -0.36836666358E+01  0.35540862887E+02  0.51100000000E-03 0.  1.
         12    1    3    3    0    0 -0.43207680626E+02  0.54524503108E+01 -0.16729643541E+01  0.43582469976E+02  0.00000000000E+00 0. -1.
</event>
<event>
 7    1  0.3795708E-015  0.9000777E+02  0.7816164E-02  0.1186339E+00
        -11   -1    0    0    0    0  0.00000000000E+00  0.00000000000E+00  0.45593999997E+02  0.45594000000E+02  0.51100000000E-03 0. -1.
         11   -1    0    0    0    0 -0.00000000000E+00 -0.00000000000E+00 -0.45593999997E+02  0.45594000000E+02  0.51100000000E-03 0.  1.
    9900012    2    1    2    0    0 -0.95757897145E+00  0.47489630459E+00 -0.50046002176E+00  0.90007769421E+02  0.90000031177E+02 0.  0.
         12    1    1    2    0    0  0.95757897145E+00 -0.47489630459E+00  0.50046002176E+00  0.11802305792E+01  0.00000000000E+00 0. -1.
         11    1    3    3    0    0 -0.23505273536E+02  0.36222830169E+02  0.68340820939E+01  0.43718371284E+02  0.51100000000E-03 0. -1.
        -11    1    3    3    0    0 -0.23050386522E+01 -0.67550301744E+01 -0.33825888768E+01  0.78984519759E+01  0.51100000000E-03 0.  1.
        -12    1    3    3    0    0  0.24852733217E+02 -0.28992903690E+02 -0.39519532389E+01  0.38390946161E+02  0.00000000000E+00 0.  1.
</event>
<event>
 7    1  0.3795708E-015  0.9000780E+02  0.7816164E-02  0.1186339E+00
        -11   -1    0    0    0    0  0.00000000000E+00  0.00000000000E+00  0.45593999997E+02  0.45594000000E+02  0.51100000000E-03 0.  1.
         11   -1    0    0    0    0 -0.00000000000E+00 -0.00000000000E+00 -0.45593999997E+02  0.45594000000E+02  0.51100000000E-03 0. -1.
    9900012    2    1    2    0    0 -0.94112307500E+00  0.61994463557E+00  0.35047614087E+00  0.90007797679E+02  0.90000059808E+02 0.  0.
         12    1    1    2    0    0  0.94112307500E+00 -0.61994463557E+00 -0.35047614087E+00  0.11802023211E+01  0.00000000000E+00 0. -1.
         11    1    3    3    0    0 -0.10362452036E+02 -0.11186026917E+01 -0.53606574546E-01  0.10422790322E+02  0.51100000000E-03 0. -1.
        -11    1    3    3    0    0  0.11308867973E+02  0.33232771294E+02  0.21929424037E+02  0.41390907475E+02  0.51100000000E-03 0.  1.
         12    1    3    3    0    0 -0.18875390127E+01 -0.31494223967E+02 -0.21525341321E+02  0.38194099882E+02  0.00000000000E+00 0. -1.
</event>
<event>
 7    1  0.3795708E-015  0.9000795E+02  0.7816164E-02  0.1186339E+00
        -11   -1    0    0    0    0  0.00000000000E+00  0.00000000000E+00  0.45593999997E+02  0.45594000000E+02  0.51100000000E-03 0. -1.
         11   -1    0    0    0    0 -0.00000000000E+00 -0.00000000000E+00 -0.45593999997E+02  0.45594000000E+02  0.51100000000E-03 0.  1.
    9900012    2    1    2    0    0  0.10264066532E+01  0.57715760306E+00 -0.76712060384E-01  0.90007954977E+02  0.90000219182E+02 0.  0.
         12    1    1    2    0    0 -0.10264066532E+01 -0.57715760306E+00  0.76712060384E-01  0.11800450231E+01  0.00000000000E+00 0. -1.
         11    1    3    3    0    0 -0.45015128469E+01  0.49745407668E+01 -0.70558951123E+01  0.97362893265E+01  0.51100000000E-03 0. -1.
        -11    1    3    3    0    0  0.26664359394E+01 -0.19154202141E+02 -0.32616513140E+02  0.37918732441E+02  0.51100000000E-03 0.  1.
         12    1    3    3    0    0  0.28614835607E+01  0.14756818977E+02  0.39595696192E+02  0.42352933209E+02  0.00000000000E+00 0. -1.
</event>
<event>
 7    1  0.3795708E-015  0.9000776E+02  0.7816164E-02  0.1186339E+00
        -11   -1    0    0    0    0  0.00000000000E+00  0.00000000000E+00  0.45593999997E+02  0.45594000000E+02  0.51100000000E-03 0.  1.
         11   -1    0    0    0    0 -0.00000000000E+00 -0.00000000000E+00 -0.45593999997E+02  0.45594000000E+02  0.51100000000E-03 0. -1.
    9900012    2    1    2    0    0  0.53368343281E+00  0.91813247761E+00  0.51496353538E+00  0.90007757357E+02  0.90000018954E+02 0.  0.
         12    1    1    2    0    0 -0.53368343281E+00 -0.91813247761E+00 -0.51496353538E+00  0.11802426427E+01  0.00000000000E+00 0. -1.
         11    1    3    3    0    0  0.18616187247E+02 -0.13737065263E+01 -0.36042844030E+02  0.40589852220E+02  0.51100000000E-03 0. -1.
        -11    1    3    3    0    0  0.26060286052E+01 -0.81861113844E+01  0.40804008967E+01  0.95107032562E+01  0.51100000000E-03 0.  1.
        -12    1    3    3    0    0 -0.20688532420E+02  0.10477950388E+02  0.32477406669E+02  0.39907201881E+02  0.00000000000E+00 0.  1.
</event>
<event>
 7    1  0.3795708E-015  0.9000773E+02  0.7816164E-02  0.1186339E+00
        -11   -1    0    0    0    0  0.00000000000E+00  0.00000000000E+00  0.45593999997E+02  0.45594000000E+02  0.51100000000E-03 0.  1.
         11   -1    0    0    0    0 -0.00000000000E+00 -0.00000000000E+00 -0.45593999997E+02  0.45594000000E+02  0.51100000000E-03 0. -1.
    9900012    2    1    2    0    0  0.10201477451E+01  0.55298771597E+00  0.21574223022E+00  0.90007728190E+02  0.89999989402E+02 0.  0.
         12    1    1    2    0    0 -0.10201477451E+01 -0.55298771597E+00 -0.21574223022E+00  0.11802718102E+01  0.00000000000E+00 0. -1.
         11    1    3    3    0    0  0.12404387598E+02 -0.18081873376E+02 -0.34074215174E+02  0.40520058199E+02  0.51100000000E-03 0. -1.
        -11    1    3    3    0    0  0.73383942694E+01  0.66865476614E+01  0.17355084469E+01  0.10078389748E+02  0.51100000000E-03 0.  1.
        -12    1    3    3    0    0 -0.18722634122E+02  0.11948313430E+02  0.32554448958E+02  0.39409280243E+02  0.00000000000E+00 0.  1.
</event>
<event>
 7    1  0.3795708E-015  0.9000784E+02  0.7816164E-02  0.1186339E+00
        -11   -1    0    0    0    0  0.00000000000E+00  0.00000000000E+00  0.45593999997E+02  0.45594000000E+02  0.51100000000E-03 0.  1.
         11   -1    0    0    0    0 -0.00000000000E+00 -0.00000000000E+00 -0.45593999997E+02  0.45594000000E+02  0.51100000000E-03 0. -1.
    9900012    2    1    2    0    0 -0.56039401142E+00 -0.57062770214E+00  0.86782321330E+00  0.90007841302E+02  0.90000104007E+02 0.  0.
         12    1    1    2    0    0  0.56039401142E+00  0.57062770214E+00 -0.86782321330E+00  0.11801586978E+01  0.00000000000E+00 0. -1.
         11    1    3    3    0    0 -0.10239455009E+00 -0.73041879585E+01  0.66013776101E+01  0.98458028108E+01  0.51100000000E-03 0. -1.
        -11    1    3    3    0    0  0.10377157317E+02  0.96779118779E+00  0.35574163940E+02  0.37069436927E+02  0.51100000000E-03 0.  1.
         12    1    3    3    0    0 -0.10835156778E+02  0.57657690686E+01 -0.41307718337E+02  0.43092601564E+02  0.00000000000E+00 0. -1.
</event>
<event>
 7    1  0.3795708E-015  0.9000783E+02  0.7816164E-02  0.1186339E+00
        -11   -1    0    0    0    0  0.00000000000E+00  0.00000000000E+00  0.45593999997E+02  0.45594000000E+02  0.51100000000E-03 0. -1.
         11   -1    0    0    0    0 -0.00000000000E+00 -0.00000000000E+00 -0.45593999997E+02  0.45594000000E+02  0.51100000000E-03 0.  1.
    9900012    2    1    2    0    0 -0.67118760749E-01 -0.62094528288E+00 -0.10013652872E+01  0.90007826110E+02  0.90000088615E+02 0.  0.
         12    1    1    2    0    0  0.67118760749E-01  0.62094528288E+00  0.10013652872E+01  0.11801738901E+01  0.00000000000E+00 0. -1.
         11    1    3    3    0    0 -0.24041006517E+01 -0.71863352148E+00 -0.10577170619E+02  0.10870725489E+02  0.51100000000E-03 0. -1.
        -11    1    3    3    0    0 -0.29796750211E+01 -0.11138129679E+02 -0.32909471284E+02  0.34870757039E+02  0.51100000000E-03 0.  1.
         12    1    3    3    0    0  0.53166569120E+01  0.11235817918E+02  0.42485276616E+02  0.44266343582E+02  0.00000000000E+00 0. -1.
</event>
<event>
 7    1  0.3795708E-015  0.9000787E+02  0.7816164E-02  0.1186339E+00
        -11   -1    0    0    0    0  0.00000000000E+00  0.00000000000E+00  0.45593999997E+02  0.45594000000E+02  0.51100000000E-03 0.  1.
         11   -1    0    0    0    0 -0.00000000000E+00 -0.00000000000E+00 -0.45593999997E+02  0.45594000000E+02  0.51100000000E-03 0. -1.
    9900012    2    1    2    0    0  0.10463903519E+01  0.37304862259E+00 -0.39825064185E+00  0.90007872203E+02  0.90000135316E+02 0.  0.
         12    1    1    2    0    0 -0.10463903519E+01 -0.37304862259E+00  0.39825064185E+00  0.11801277969E+01  0.00000000000E+00 0. -1.
         11    1    3    3    0    0  0.23698288042E+01 -0.91546245419E+01 -0.14925903517E+01  0.95734562872E+01  0.51100000000E-03 0. -1.
        -11    1    3    3    0    0  0.30878685136E+02 -0.14077923768E+02 -0.15358417889E+02  0.37249995082E+02  0.51100000000E-03 0.  1.
         12    1    3    3    0    0 -0.32202123588E+02  0.23605596932E+02  0.16452757599E+02  0.43184420833E+02  0.00000000000E+00 0. -1.
</event>
<event>
 7    1  0.3795708E-015  0.9000772E+02  0.7816164E-02  0.1186339E+00
        -11   -1    0    0    0    0  0.00000000000E+00  0.00000000000E+00  0.45593999997E+02  0.45594000000E+02  0.51100000000E-03 0.  1.
         11   -1    0    0    0    0 -0.00000000000E+00 -0.00000000000E+00 -0.45593999997E+02  0.45594000000E+02  0.51100000000E-03 0. -1.
    9900012    2    1    2    0    0 -0.99795947331E+00  0.10234236536E+00 -0.62182510342E+00  0.90007718877E+02  0.89999979966E+02 0.  0.
         12    1    1    2    0    0  0.99795947331E+00 -0.10234236536E+00  0.62182510342E+00  0.11802811230E+01  0.00000000000E+00 0. -1.
         11    1    3    3    0    0  0.58163203529E+01 -0.29559677173E+01  0.73690288993E+01  0.98422515093E+01  0.51100000000E-03 0. -1.
        -11    1    3    3    0    0  0.29579540333E+02 -0.15753189572E+02  0.10638101993E+02  0.35160793538E+02  0.51100000000E-03 0.  1.
         12    1    3    3    0    0 -0.36393820159E+02  0.18811499655E+02 -0.18628955995E+02  0.45004673829E+02  0.00000000000E+00 0. -1.
</event>
<event>
 7    1  0.3795708E-015  0.9000764E+02  0.7816164E-02  0.1186339E+00
        -11   -1    0    0    0    0  0.00000000000E+00  0.00000000000E+00  0.45593999997E+02  0.45594000000E+02  0.51100000000E-03 0.  1.
         11   -1    0    0    0    0 -0.00000000000E+00 -0.00000000000E+00 -0.45593999997E+02  0.45594000000E+02  0.51100000000E-03 0. -1.
    9900012    2    1    2    0    0 -0.44264196061E+00 -0.10901856715E+01  0.93922957263E-01  0.90007636401E+02  0.89999896402E+02 0.  0.
         12    1    1    2    0    0  0.44264196061E+00  0.10901856715E+01 -0.93922957263E-01  0.11803635989E+01  0.00000000000E+00 0. -1.
         11    1    3    3    0    0  0.84826364535E+01  0.19077332908E+02 -0.28022725738E+02  0.34945284519E+02  0.51100000000E-03 0. -1.
        -11    1    3    3    0    0 -0.41044611140E+01  0.21355718811E+01 -0.97840441358E+01  0.10822882620E+02  0.51100000000E-03 0.  1.
        -12    1    3    3    0    0 -0.48208173000E+01 -0.22303090460E+02  0.37900692831E+02  0.44239469262E+02  0.00000000000E+00 0.  1.
</event>
<event>
 7    1  0.3795708E-015  0.9000729E+02  0.7816164E-02  0.1186340E+00
        -11   -1    0    0    0    0  0.00000000000E+00  0.00000000000E+00  0.45593999997E+02  0.45594000000E+02  0.51100000000E-03 0.  1.
         11   -1    0    0    0    0 -0.00000000000E+00 -0.00000000000E+00 -0.45593999997E+02  0.45594000000E+02  0.51100000000E-03 0. -1.
    9900012    2    1    2    0    0  0.19400378810E+00 -0.41619162843E+00  0.10877567809E+01  0.90007293535E+02  0.89999549009E+02 0.  0.
         12    1    1    2    0    0 -0.19400378810E+00  0.41619162843E+00 -0.10877567809E+01  0.11807064647E+01  0.00000000000E+00 0. -1.
         11    1    3    3    0    0  0.13501156968E+02 -0.46870445107E+01  0.16905671524E+01  0.14391234946E+02  0.51100000000E-03 0. -1.
        -11    1    3    3    0    0  0.85871709539E+00  0.34303638799E+02 -0.17321841072E+02  0.38438564077E+02  0.51100000000E-03 0.  1.
         12    1    3    3    0    0 -0.14165870275E+02 -0.30032785917E+02  0.16719030701E+02  0.37177494512E+02  0.00000000000E+00 0. -1.
</event>
<event>
 7    1  0.3795708E-015  0.9000782E+02  0.7816164E-02  0.1186339E+00
        -11   -1    0    0    0    0  0.00000000000E+00  0.00000000000E+00  0.45593999997E+02  0.45594000000E+02  0.51100000000E-03 0.  1.
         11   -1    0    0    0    0 -0.00000000000E+00 -0.00000000000E+00 -0.45593999997E+02  0.45594000000E+02  0.51100000000E-03 0. -1.
    9900012    2    1    2    0    0 -0.55266562521E+00  0.25456047473E+00 -0.10112244469E+01  0.90007824076E+02  0.90000086554E+02 0.  0.
         12    1    1    2    0    0  0.55266562521E+00 -0.25456047473E+00  0.10112244469E+01  0.11801759235E+01  0.00000000000E+00 0. -1.
         11    1    3    3    0    0 -0.37205087502E+02  0.49191741533E+01 -0.14561107402E+02  0.40254722200E+02  0.51100000000E-03 0. -1.
        -11    1    3    3    0    0 -0.11439612947E+01  0.75385293605E+01 -0.45585977303E+00  0.76384475358E+01  0.51100000000E-03 0.  1.
        -12    1    3    3    0    0  0.37796383171E+02 -0.12203143039E+02  0.14005742728E+02  0.42114654341E+02  0.00000000000E+00 0.  1.
</event>
<event>
 7    1  0.3795708E-015  0.9000768E+02  0.7816164E-02  0.1186339E+00
        -11   -1    0    0    0    0  0.00000000000E+00  0.00000000000E+00  0.45593999997E+02  0.45594000000E+02  0.51100000000E-03 0. -1.
         11   -1    0    0    0    0 -0.00000000000E+00 -0.00000000000E+00 -0.45593999997E+02  0.45594000000E+02  0.51100000000E-03 0.  1.
    9900012    2    1    2    0    0  0.84650667296E+00  0.79595049239E+00  0.20748271723E+00  0.90007678090E+02  0.89999938641E+02 0.  0.
         12    1    1    2    0    0 -0.84650667296E+00 -0.79595049239E+00 -0.20748271723E+00  0.11803219102E+01  0.00000000000E+00 0. -1.
         11    1    3    3    0    0  0.93930662792E+00  0.27046799535E+01 -0.96162886271E+01  0.10033473866E+02  0.51100000000E-03 0. -1.
        -11    1    3    3    0    0 -0.25254718283E+02  0.20569076968E+02 -0.17119720951E+02  0.36796366241E+02  0.51100000000E-03 0.  1.
         12    1    3    3    0    0  0.25161918328E+02 -0.22477806430E+02  0.26943492295E+02  0.43177837983E+02  0.00000000000E+00 0. -1.
</event>
<event>
 7    1  0.3795708E-015  0.9000748E+02  0.7816164E-02  0.1186340E+00
        -11   -1    0    0    0    0  0.00000000000E+00  0.00000000000E+00  0.45593999997E+02  0.45594000000E+02  0.51100000000E-03 0.  1.
         11   -1    0    0    0    0 -0.00000000000E+00 -0.00000000000E+00 -0.45593999997E+02  0.45594000000E+02  0.51100000000E-03 0. -1.
    9900012    2    1    2    0    0  0.30069725141E-01 -0.88188910209E+00  0.78421350628E+00  0.90007481724E+02  0.89999739682E+02 0.  0.
         12    1    1    2    0    0 -0.30069725141E-01  0.88188910209E+00 -0.78421350628E+00  0.11805182761E+01  0.00000000000E+00 0. -1.
         11    1    3    3    0    0  0.14440721925E+01  0.92130769892E+01 -0.35171520419E+01  0.99667693287E+01  0.51100000000E-03 0. -1.
        -11    1    3    3    0    0 -0.22868589355E+02  0.14557269484E+01  0.34388837721E+02  0.41324129514E+02  0.51100000000E-03 0.  1.
         12    1    3    3    0    0  0.21454586888E+02 -0.11550693040E+02 -0.30087472173E+02  0.38716582881E+02  0.00000000000E+00 0. -1.
</event>
<event>
 7    1  0.3795708E-015  0.9000769E+02  0.7816164E-02  0.1186339E+00
        -11   -1    0    0    0    0  0.00000000000E+00  0.00000000000E+00  0.45593999997E+02  0.45594000000E+02  0.51100000000E-03 0. -1.
         11   -1    0    0    0    0 -0.00000000000E+00 -0.00000000000E+00 -0.45593999997E+02  0.45594000000E+02  0.51100000000E-03 0.  1.
    9900012    2    1    2    0    0 -0.10910794395E+01 -0.44310172868E+00  0.79584066023E-01  0.90007691943E+02  0.89999952677E+02 0.  0.
         12    1    1    2    0    0  0.10910794395E+01  0.44310172868E+00 -0.79584066023E-01  0.11803080568E+01  0.00000000000E+00 0. -1.
         11    1    3    3    0    0 -0.31654030306E+01 -0.78220174360E+01 -0.38883785750E+01  0.92910290774E+01  0.51100000000E-03 0. -1.
        -11    1    3    3    0    0 -0.32575958626E+02 -0.18367217008E+02  0.37476860202E+00  0.37399039998E+02  0.51100000000E-03 0.  1.
         12    1    3    3    0    0  0.34650282217E+02  0.25746132715E+02  0.35931940390E+01  0.43317622868E+02  0.00000000000E+00 0. -1.
</event>
<event>
 7    1  0.3795708E-015  0.9000771E+02  0.7816164E-02  0.1186339E+00
        -11   -1    0    0    0    0  0.00000000000E+00  0.00000000000E+00  0.45593999997E+02  0.45594000000E+02  0.51100000000E-03 0.  1.
         11   -1    0    0    0    0 -0.00000000000E+00 -0.00000000000E+00 -0.45593999997E+02  0.45594000000E+02  0.51100000000E-03 0. -1.
    9900012    2    1    2    0    0 -0.44753297211E+00 -0.72324896801E+00  0.81836409753E+00  0.90007705703E+02  0.89999966619E+02 0.  0.
         12    1    1    2    0    0  0.44753297211E+00  0.72324896801E+00 -0.81836409753E+00  0.11802942968E+01  0.00000000000E+00 0. -1.
         11    1    3    3    0    0 -0.50693169624E+00 -0.74202507881E+01  0.86237470454E+01  0.11387981159E+02  0.51100000000E-03 0. -1.
        -11    1    3    3    0    0  0.37254110362E+02  0.11236267136E+02  0.45214337341E+01  0.39173534450E+02  0.51100000000E-03 0.  1.
         12    1    3    3    0    0 -0.37194711638E+02 -0.45392653157E+01 -0.12326816682E+02  0.39446190095E+02  0.00000000000E+00 0. -1.
</event>
<event>
 7    1  0.3795708E-015  0.9000764E+02  0.7816164E-02  0.1186339E+00
        -11   -1    0    0    0    0  0.00000000000E+00  0.00000000000E+00  0.45593999997E+02  0.45594000000E+02  0.51100000000E-03 0.  1.
         11   -1    0    0    0    0 -0.00000000000E+00 -0.00000000000E+00 -0.45593999997E+02  0.45594000000E+02  0.51100000000E-03 0. -1.
    9900012    2    1    2    0    0  0.10188392607E+01 -0.42670583253E+00 -0.41609444950E+00  0.90007641623E+02  0.89999901693E+02 0.  0.
         12    1    1    2    0    0 -0.10188392607E+01  0.42670583253E+00  0.41609444950E+00  0.11803583768E+01  0.00000000000E+00 0. -1.
         11    1    3    3    0    0  0.31256510672E+01 -0.76598635683E+01  0.11654069425E+01  0.83547219033E+01  0.51100000000E-03 0. -1.
        -11    1    3    3    0    0  0.36023802164E+02 -0.13196928936E+02  0.33591268500E-02  0.38365000550E+02  0.51100000000E-03 0.  1.
         12    1    3    3    0    0 -0.38130613970E+02  0.20430086672E+02 -0.15848605189E+01  0.43287919170E+02  0.00000000000E+00 0. -1.
</event>
<event>
 7    1  0.3795708E-015  0.9000772E+02  0.7816164E-02  0.1186339E+00
        -11   -1    0    0    0    0  0.00000000000E+00  0.00000000000E+00  0.45593999997E+02  0.45594000000E+02  0.51100000000E-03 0.  1.
         11   -1    0    0    0    0 -0.00000000000E+00 -0.00000000000E+00 -0.45593999997E+02  0.45594000000E+02  0.51100000000E-03 0. -1.
    9900012    2    1    2    0    0  0.10702526775E+01  0.73476894059E-01  0.49215344888E+00  0.90007722632E+02  0.89999983771E+02 0.  0.
         12    1    1    2    0    0 -0.10702526775E+01 -0.73476894059E-01 -0.49215344888E+00  0.11802773678E+01  0.00000000000E+00 0. -1.
         11    1    3    3    0    0 -0.16013656497E+02  0.21431011003E+02 -0.11599677779E+02  0.29159525920E+02  0.51100000000E-03 0. -1.
        -11    1    3    3    0    0 -0.91639835768E+01  0.12331059791E+02  0.94988601153E+01  0.18062723336E+02  0.51100000000E-03 0.  1.
        -12    1    3    3    0    0  0.26247892752E+02 -0.33688593900E+02  0.25929711127E+01  0.42785473376E+02  0.00000000000E+00 0.  1.
</event>
<event>
 7    1  0.3795708E-015  0.9000761E+02  0.7816164E-02  0.1186339E+00
        -11   -1    0    0    0    0  0.00000000000E+00  0.00000000000E+00  0.45593999997E+02  0.45594000000E+02  0.51100000000E-03 0.  1.
         11   -1    0    0    0    0 -0.00000000000E+00 -0.00000000000E+00 -0.45593999997E+02  0.45594000000E+02  0.51100000000E-03 0. -1.
    9900012    2    1    2    0    0  0.81224017805E+00  0.85552922272E+00 -0.40783430412E-01  0.90007606995E+02  0.89999866607E+02 0.  0.
         12    1    1    2    0    0 -0.81224017805E+00 -0.85552922272E+00  0.40783430412E-01  0.11803930049E+01  0.00000000000E+00 0. -1.
         11    1    3    3    0    0 -0.33140591189E+01 -0.30329493798E+01  0.83436378022E+01  0.94761839271E+01  0.51100000000E-03 0. -1.
        -11    1    3    3    0    0  0.10313051903E+02  0.93836079408E+01  0.34313961531E+02  0.37038616250E+02  0.51100000000E-03 0.  1.
         12    1    3    3    0    0 -0.61867526058E+01 -0.54951293383E+01 -0.42698382764E+02  0.43492806818E+02  0.00000000000E+00 0. -1.
</event>
<event>
 7    1  0.3795708E-015  0.9000775E+02  0.7816164E-02  0.1186339E+00
        -11   -1    0    0    0    0  0.00000000000E+00  0.00000000000E+00  0.45593999997E+02  0.45594000000E+02  0.51100000000E-03 0. -1.
         11   -1    0    0    0    0 -0.00000000000E+00 -0.00000000000E+00 -0.45593999997E+02  0.45594000000E+02  0.51100000000E-03 0.  1.
    9900012    2    1    2    0    0 -0.89373775117E+00 -0.11355644562E+00  0.76245178514E+00  0.90007747926E+02  0.90000009398E+02 0.  0.
         12    1    1    2    0    0  0.89373775117E+00  0.11355644562E+00 -0.76245178514E+00  0.11802520743E+01  0.00000000000E+00 0. -1.
         11    1    3    3    0    0  0.14267246824E+01 -0.18582096777E+01 -0.89438666217E+01  0.92456063584E+01  0.51100000000E-03 0. -1.
        -11    1    3    3    0    0  0.99308694764E+00  0.51854687622E+01 -0.35204392967E+02  0.35598098157E+02  0.51100000000E-03 0.  1.
         12    1    3    3    0    0 -0.33135493812E+01 -0.34408155301E+01  0.44910711374E+02  0.45164043410E+02  0.00000000000E+00 0. -1.
</event>
<event>
 7    1  0.3795708E-015  0.9000826E+02  0.7816164E-02  0.1186338E+00
        -11   -1    0    0    0    0  0.00000000000E+00  0.00000000000E+00  0.45593999997E+02  0.45594000000E+02  0.51100000000E-03 0. -1.
         11   -1    0    0    0    0 -0.00000000000E+00 -0.00000000000E+00 -0.45593999997E+02  0.45594000000E+02  0.51100000000E-03 0.  1.
    9900012    2    1    2    0    0  0.11131165026E+01  0.32753069288E+00  0.21326600789E+00  0.90008259735E+02  0.90000527962E+02 0.  0.
         12    1    1    2    0    0 -0.11131165026E+01 -0.32753069288E+00 -0.21326600789E+00  0.11797402652E+01  0.00000000000E+00 0. -1.
         11    1    3    3    0    0  0.64345865434E+01 -0.60560072909E+01 -0.15501773054E+01  0.89711859991E+01  0.51100000000E-03 0. -1.
        -11    1    3    3    0    0  0.21891281920E+02 -0.27809153096E+02  0.95301615276E+01  0.36652437832E+02  0.51100000000E-03 0.  1.
         12    1    3    3    0    0 -0.27212751961E+02  0.34192691079E+02 -0.77667182143E+01  0.44384635904E+02  0.00000000000E+00 0. -1.
</event>
<event>
 7    1  0.3795708E-015  0.9000777E+02  0.7816164E-02  0.1186339E+00
        -11   -1    0    0    0    0  0.00000000000E+00  0.00000000000E+00  0.45593999997E+02  0.45594000000E+02  0.51100000000E-03 0. -1.
         11   -1    0    0    0    0 -0.00000000000E+00 -0.00000000000E+00 -0.45593999997E+02  0.45594000000E+02  0.51100000000E-03 0.  1.
    9900012    2    1    2    0    0  0.40525875453E+00 -0.49319899416E+00 -0.99270249818E+00  0.90007771990E+02  0.90000033780E+02 0.  0.
         12    1    1    2    0    0 -0.40525875453E+00  0.49319899416E+00  0.99270249818E+00  0.11802280101E+01  0.00000000000E+00 0. -1.
         11    1    3    3    0    0  0.21870003323E+02  0.32506950407E+02 -0.45873615049E+01  0.39446707796E+02  0.51100000000E-03 0. -1.
        -11    1    3    3    0    0  0.30186295225E+01 -0.88214049529E+01 -0.99002894263E+01  0.13599450008E+02  0.51100000000E-03 0.  1.
        -12    1    3    3    0    0 -0.24483374091E+02 -0.24178744448E+02  0.13494948433E+02  0.36961614185E+02  0.00000000000E+00 0.  1.
</event>
<event>
 7    1  0.3795708E-015  0.9000778E+02  0.7816164E-02  0.1186339E+00
        -11   -1    0    0    0    0  0.00000000000E+00  0.00000000000E+00  0.45593999997E+02  0.45594000000E+02  0.51100000000E-03 0.  1.
         11   -1    0    0    0    0 -0.00000000000E+00 -0.00000000000E+00 -0.45593999997E+02  0.45594000000E+02  0.51100000000E-03 0. -1.
    9900012    2    1    2    0    0 -0.26582625849E+00  0.89826661961E+00  0.71790128222E+00  0.90007775966E+02  0.90000037809E+02 0.  0.
         12    1    1    2    0    0  0.26582625849E+00 -0.89826661961E+00 -0.71790128222E+00  0.11802240341E+01  0.00000000000E+00 0. -1.
         11    1    3    3    0    0  0.12170491088E+02 -0.29345483989E+02 -0.15581586299E+02  0.35384518023E+02  0.51100000000E-03 0. -1.
        -11    1    3    3    0    0  0.86705856771E+01 -0.49411688375E+01 -0.11320346905E+01  0.10043689973E+02  0.51100000000E-03 0.  1.
        -12    1    3    3    0    0 -0.21106903024E+02  0.35184919446E+02  0.17431522272E+02  0.44579567970E+02  0.00000000000E+00 0.  1.
</event>
<event>
 7    1  0.3795708E-015  0.9000775E+02  0.7816164E-02  0.1186339E+00
        -11   -1    0    0    0    0  0.00000000000E+00  0.00000000000E+00  0.45593999997E+02  0.45594000000E+02  0.51100000000E-03 0.  1.
         11   -1    0    0    0    0 -0.00000000000E+00 -0.00000000000E+00 -0.45593999997E+02  0.45594000000E+02  0.51100000000E-03 0. -1.
    9900012    2    1    2    0    0 -0.10790153572E+01  0.47796384328E+00 -0.16575111154E-01  0.90007746506E+02  0.90000007960E+02 0.  0.
         12    1    1    2    0    0  0.10790153572E+01 -0.47796384328E+00  0.16575111154E-01  0.11802534944E+01  0.00000000000E+00 0. -1.
         11    1    3    3    0    0 -0.78687190583E+01  0.25817434616E+02  0.21795539060E+02  0.34691529124E+02  0.51100000000E-03 0. -1.
        -11    1    3    3    0    0 -0.85454128642E+01  0.38074469232E+01 -0.20293777453E+02  0.22346322665E+02  0.51100000000E-03 0.  1.
        -12    1    3    3    0    0  0.15335116565E+02 -0.29146917696E+02 -0.15183367186E+01  0.32969894716E+02  0.00000000000E+00 0.  1.
</event>
<event>
 7    1  0.3795708E-015  0.9000776E+02  0.7816164E-02  0.1186339E+00
        -11   -1    0    0    0    0  0.00000000000E+00  0.00000000000E+00  0.45593999997E+02  0.45594000000E+02  0.51100000000E-03 0. -1.
         11   -1    0    0    0    0 -0.00000000000E+00 -0.00000000000E+00 -0.45593999997E+02  0.45594000000E+02  0.51100000000E-03 0.  1.
    9900012    2    1    2    0    0 -0.25011049412E-01  0.77888701070E+00 -0.88637707443E+00  0.90007764919E+02  0.90000026616E+02 0.  0.
         12    1    1    2    0    0  0.25011049412E-01 -0.77888701070E+00  0.88637707443E+00  0.11802350809E+01  0.00000000000E+00 0. -1.
         11    1    3    3    0    0  0.38007814419E+01  0.76088527241E+01 -0.12132883897E+01  0.85914287708E+01  0.51100000000E-03 0. -1.
        -11    1    3    3    0    0  0.14420421720E+02  0.13229452852E+02 -0.33052044245E+02  0.38410996009E+02  0.51100000000E-03 0.  1.
         12    1    3    3    0    0 -0.18246214211E+02 -0.20059418565E+02  0.33378955561E+02  0.43005340140E+02  0.00000000000E+00 0. -1.
</event>
<event>
 7    1  0.3795708E-015  0.9000779E+02  0.7816164E-02  0.1186339E+00
        -11   -1    0    0    0    0  0.00000000000E+00  0.00000000000E+00  0.45593999997E+02  0.45594000000E+02  0.51100000000E-03 0. -1.
         11   -1    0    0    0    0 -0.00000000000E+00 -0.00000000000E+00 -0.45593999997E+02  0.45594000000E+02  0.51100000000E-03 0.  1.
    9900012    2    1    2    0    0 -0.10244709906E+01 -0.40846780672E+00  0.42011893659E+00  0.90007793797E+02  0.90000055875E+02 0.  0.
         12    1    1    2    0    0  0.10244709906E+01  0.40846780672E+00 -0.42011893659E+00  0.11802062026E+01  0.00000000000E+00 0. -1.
         11    1    3    3    0    0 -0.21621877507E+02 -0.12673701280E+02  0.32339390959E+02  0.40914111245E+02  0.51100000000E-03 0. -1.
        -11    1    3    3    0    0 -0.69112466498E+01  0.28170685201E+01 -0.28997226680E+01  0.80068468897E+01  0.51100000000E-03 0.  1.
        -12    1    3    3    0    0  0.27508653167E+02  0.94481649533E+01 -0.29019549355E+02  0.41086835663E+02  0.00000000000E+00 0.  1.
</event>
<event>
 7    1  0.3795708E-015  0.9000775E+02  0.7816164E-02  0.1186339E+00
        -11   -1    0    0    0    0  0.00000000000E+00  0.00000000000E+00  0.45593999997E+02  0.45594000000E+02  0.51100000000E-03 0.  1.
         11   -1    0    0    0    0 -0.00000000000E+00 -0.00000000000E+00 -0.45593999997E+02  0.45594000000E+02  0.51100000000E-03 0. -1.
    9900012    2    1    2    0    0 -0.67750728628E+00 -0.90577474202E+00 -0.33697079750E+00  0.90007748618E+02  0.90000010100E+02 0.  0.
         12    1    1    2    0    0  0.67750728628E+00  0.90577474202E+00  0.33697079750E+00  0.11802513820E+01  0.00000000000E+00 0. -1.
         11    1    3    3    0    0  0.31716963506E+02 -0.10984269192E+02 -0.11562381268E+02  0.35500825407E+02  0.51100000000E-03 0. -1.
        -11    1    3    3    0    0  0.78366201356E+01 -0.48833769258E+01 -0.22767508517E+01  0.95101829662E+01  0.51100000000E-03 0.  1.
        -12    1    3    3    0    0 -0.40231090928E+02  0.14961871376E+02  0.13502161322E+02  0.44996740245E+02  0.00000000000E+00 0.  1.
</event>
<event>
 7    1  0.3795708E-015  0.9000754E+02  0.7816164E-02  0.1186339E+00
        -11   -1    0    0    0    0  0.00000000000E+00  0.00000000000E+00  0.45593999997E+02  0.45594000000E+02  0.51100000000E-03 0. -1.
         11   -1    0    0    0    0 -0.00000000000E+00 -0.00000000000E+00 -0.45593999997E+02  0.45594000000E+02  0.51100000000E-03 0.  1.
    9900012    2    1    2    0    0 -0.10305266943E+01 -0.57459694051E+00  0.36621683619E-01  0.90007539048E+02  0.89999797763E+02 0.  0.
         12    1    1    2    0    0  0.10305266943E+01  0.57459694051E+00 -0.36621683619E-01  0.11804609521E+01  0.00000000000E+00 0. -1.
         11    1    3    3    0    0 -0.14474499959E+02 -0.12771198561E+02  0.30193255547E+02  0.35836396897E+02  0.51100000000E-03 0. -1.
        -11    1    3    3    0    0 -0.37979994386E+01 -0.40649863099E+01  0.77048161860E+01  0.95033207963E+01  0.51100000000E-03 0.  1.
        -12    1    3    3    0    0  0.17241972703E+02  0.16261587930E+02 -0.37861450050E+02  0.44667821355E+02  0.00000000000E+00 0.  1.
</event>
<event>
 7    1  0.3795708E-015  0.9000769E+02  0.7816164E-02  0.1186339E+00
        -11   -1    0    0    0    0  0.00000000000E+00  0.00000000000E+00  0.45593999997E+02  0.45594000000E+02  0.51100000000E-03 0.  1.
         11   -1    0    0    0    0 -0.00000000000E+00 -0.00000000000E+00 -0.45593999997E+02  0.45594000000E+02  0.51100000000E-03 0. -1.
    9900012    2    1    2    0    0 -0.12222918401E+00  0.39514415295E+00  0.11054679453E+01  0.90007687222E+02  0.89999947894E+02 0.  0.
         12    1    1    2    0    0  0.12222918401E+00 -0.39514415295E+00 -0.11054679453E+01  0.11803127777E+01  0.00000000000E+00 0. -1.
         11    1    3    3    0    0  0.24188927929E+02  0.24824937339E+01 -0.24947967570E+02  0.34837739531E+02  0.51100000000E-03 0. -1.
        -11    1    3    3    0    0 -0.68554789040E+01 -0.97055372087E+01 -0.92488366340E+01  0.15057756236E+02  0.51100000000E-03 0.  1.
        -12    1    3    3    0    0 -0.17455678209E+02  0.76181876278E+01  0.35302272149E+02  0.40112191456E+02  0.00000000000E+00 0.  1.
</event>
<event>
 7    1  0.3795708E-015  0.9000778E+02  0.7816164E-02  0.1186339E+00
        -11   -1    0    0    0    0  0.00000000000E+00  0.00000000000E+00  0.45593999997E+02  0.45594000000E+02  0.51100000000E-03 0. -1.
         11   -1    0    0    0    0 -0.00000000000E+00 -0.00000000000E+00 -0.45593999997E+02  0.45594000000E+02  0.51100000000E-03 0.  1.
    9900012    2    1    2    0    0 -0.52161187348E-01 -0.87235161192E+00 -0.79322363742E+00  0.90007778892E+02  0.90000040774E+02 0.  0.
         12    1    1    2    0    0  0.52161187348E-01  0.87235161192E+00  0.79322363742E+00  0.11802211078E+01  0.00000000000E+00 0. -1.
         11    1    3    3    0    0 -0.25613867995E+02 -0.23072702367E+02  0.24587409928E+02  0.42343364951E+02  0.51100000000E-03 0. -1.
        -11    1    3    3    0    0  0.18997064850E+01  0.50795110520E+01  0.36082790936E+01  0.65138310950E+01  0.51100000000E-03 0.  1.
        -12    1    3    3    0    0  0.23662000323E+02  0.17120839703E+02 -0.28988912659E+02  0.41150582846E+02  0.00000000000E+00 0.  1.
</event>
<event>
 7    1  0.3795708E-015  0.9000773E+02  0.7816164E-02  0.1186339E+00
        -11   -1    0    0    0    0  0.00000000000E+00  0.00000000000E+00  0.45593999997E+02  0.45594000000E+02  0.51100000000E-03 0.  1.
         11   -1    0    0    0    0 -0.00000000000E+00 -0.00000000000E+00 -0.45593999997E+02  0.45594000000E+02  0.51100000000E-03 0. -1.
    9900012    2    1    2    0    0 -0.17496917121E+00 -0.17776194544E+00  0.11536164774E+01  0.90007726940E+02  0.89999988135E+02 0.  0.
         12    1    1    2    0    0  0.17496917121E+00  0.17776194544E+00 -0.11536164774E+01  0.11802730604E+01  0.00000000000E+00 0. -1.
         11    1    3    3    0    0 -0.42456467807E+00  0.13376918654E+02 -0.34052842848E+02  0.36588499753E+02  0.51100000000E-03 0. -1.
        -11    1    3    3    0    0  0.48435520925E+01 -0.42960063777E+01 -0.72516326852E+01  0.97212059197E+01  0.51100000000E-03 0.  1.
        -12    1    3    3    0    0 -0.45939565857E+01 -0.92586742214E+01  0.42458092011E+02  0.43698021267E+02  0.00000000000E+00 0.  1.
</event>
<event>
 7    1  0.3795708E-015  0.9000771E+02  0.7816164E-02  0.1186339E+00
        -11   -1    0    0    0    0  0.00000000000E+00  0.00000000000E+00  0.45593999997E+02  0.45594000000E+02  0.51100000000E-03 0.  1.
         11   -1    0    0    0    0 -0.00000000000E+00 -0.00000000000E+00 -0.45593999997E+02  0.45594000000E+02  0.51100000000E-03 0. -1.
    9900012    2    1    2    0    0 -0.37792875803E+00 -0.82293813261E+00  0.75697794402E+00  0.90007714897E+02  0.89999975934E+02 0.  0.
         12    1    1    2    0    0  0.37792875803E+00  0.82293813261E+00 -0.75697794402E+00  0.11802851028E+01  0.00000000000E+00 0. -1.
         11    1    3    3    0    0 -0.21596508440E+02 -0.27473636960E+02 -0.12503977141E+02  0.37115486649E+02  0.51100000000E-03 0. -1.
        -11    1    3    3    0    0 -0.59750456270E+01  0.13346132539E+01 -0.80089396297E+01  0.10080946237E+02  0.51100000000E-03 0.  1.
        -12    1    3    3    0    0  0.27193625309E+02  0.25316085574E+02  0.21269894715E+02  0.42811282011E+02  0.00000000000E+00 0.  1.
</event>
<event>
 7    1  0.3795708E-015  0.9000772E+02  0.7816164E-02  0.1186339E+00
        -11   -1    0    0    0    0  0.00000000000E+00  0.00000000000E+00  0.45593999997E+02  0.45594000000E+02  0.51100000000E-03 0.  1.
         11   -1    0    0    0    0 -0.00000000000E+00 -0.00000000000E+00 -0.45593999997E+02  0.45594000000E+02  0.51100000000E-03 0. -1.
    9900012    2    1    2    0    0 -0.29316528602E+00 -0.10604842573E+01  0.42719089852E+00  0.90007718335E+02  0.89999979417E+02 0.  0.
         12    1    1    2    0    0  0.29316528602E+00  0.10604842573E+01 -0.42719089852E+00  0.11802816650E+01  0.00000000000E+00 0. -1.
         11    1    3    3    0    0  0.28215917298E+01 -0.31123743468E+01  0.73236342609E+01  0.84429777337E+01  0.51100000000E-03 0. -1.
        -11    1    3    3    0    0  0.10275329271E+02 -0.35440245341E+02  0.10130229355E+02  0.38265061460E+02  0.51100000000E-03 0.  1.
         12    1    3    3    0    0 -0.13390086287E+02  0.37492135431E+02 -0.17026672717E+02  0.43299679141E+02  0.00000000000E+00 0. -1.
</event>
<event>
 7    1  0.3795708E-015  0.9000748E+02  0.7816164E-02  0.1186340E+00
        -11   -1    0    0    0    0  0.00000000000E+00  0.00000000000E+00  0.45593999997E+02  0.45594000000E+02  0.51100000000E-03 0.  1.
         11   -1    0    0    0    0 -0.00000000000E+00 -0.00000000000E+00 -0.45593999997E+02  0.45594000000E+02  0.51100000000E-03 0. -1.
    9900012    2    1    2    0    0 -0.73552461870E-01  0.41757310912E+00  0.11017514878E+01  0.90007477401E+02  0.89999735302E+02 0.  0.
         12    1    1    2    0    0  0.73552461870E-01 -0.41757310912E+00 -0.11017514878E+01  0.11805225991E+01  0.00000000000E+00 0. -1.
         11    1    3    3    0    0 -0.36360550702E+02  0.12726930417E+02 -0.29427196375E+01  0.38635786575E+02  0.51100000000E-03 0. -1.
        -11    1    3    3    0    0  0.13080452297E+01  0.95651329481E+01  0.29754958725E+01  0.10102293135E+02  0.51100000000E-03 0.  1.
        -12    1    3    3    0    0  0.34978953010E+02 -0.21874490256E+02  0.10689752527E+01  0.41269397691E+02  0.00000000000E+00 0.  1.
</event>
<event>
 7    1  0.3795708E-015  0.9000776E+02  0.7816164E-02  0.1186339E+00
        -11   -1    0    0    0    0  0.00000000000E+00  0.00000000000E+00  0.45593999997E+02  0.45594000000E+02  0.51100000000E-03 0. -1.
         11   -1    0    0    0    0 -0.00000000000E+00 -0.00000000000E+00 -0.45593999997E+02  0.45594000000E+02  0.51100000000E-03 0.  1.
    9900012    2    1    2    0    0  0.20189006466E+00 -0.11628060757E+01  0.98554915794E-02  0.90007756509E+02  0.90000018095E+02 0.  0.
         12    1    1    2    0    0 -0.20189006466E+00  0.11628060757E+01 -0.98554915794E-02  0.11802434913E+01  0.00000000000E+00 0. -1.
         11    1    3    3    0    0  0.97504313489E+01 -0.89693641915E+01  0.48428085139E+01  0.14105786049E+02  0.51100000000E-03 0. -1.
        -11    1    3    3    0    0  0.18015229694E+02 -0.19055201213E+02  0.17384097911E+02  0.31461977920E+02  0.51100000000E-03 0.  1.
         12    1    3    3    0    0 -0.27563770978E+02  0.26861759329E+02 -0.22217050934E+02  0.44439992540E+02  0.00000000000E+00 0. -1.
</event>
<event>
 7    1  0.3795708E-015  0.9000778E+02  0.7816164E-02  0.1186339E+00
        -11   -1    0    0    0    0  0.00000000000E+00  0.00000000000E+00  0.45593999997E+02  0.45594000000E+02  0.51100000000E-03 0. -1.
         11   -1    0    0    0    0 -0.00000000000E+00 -0.00000000000E+00 -0.45593999997E+02  0.45594000000E+02  0.51100000000E-03 0.  1.
    9900012    2    1    2    0    0 -0.15426473450E+00 -0.64628311956E+00 -0.97542271940E+00  0.90007775885E+02  0.90000037727E+02 0.  0.
         12    1    1    2    0    0  0.15426473450E+00  0.64628311956E+00  0.97542271940E+00  0.11802241145E+01  0.00000000000E+00 0. -1.
         11    1    3    3    0    0  0.34712951379E+02 -0.11795839015E+01  0.81210411627E+01  0.35669759201E+02  0.51100000000E-03 0. -1.
        -11    1    3    3    0    0 -0.95099903610E+01 -0.18828330834E+02 -0.75236037451E+01  0.22395324786E+02  0.51100000000E-03 0.  1.
        -12    1    3    3    0    0 -0.25357225753E+02  0.19361631616E+02 -0.15728601371E+01  0.31942691899E+02  0.00000000000E+00 0.  1.
</event>
<event>
 7    1  0.3795708E-015  0.9000764E+02  0.7816164E-02  0.1186339E+00
        -11   -1    0    0    0    0  0.00000000000E+00  0.00000000000E+00  0.45593999997E+02  0.45594000000E+02  0.51100000000E-03 0.  1.
         11   -1    0    0    0    0 -0.00000000000E+00 -0.00000000000E+00 -0.45593999997E+02  0.45594000000E+02  0.51100000000E-03 0. -1.
    9900012    2    1    2    0    0  0.35432488099E+00 -0.51337393438E+00  0.10020784974E+01  0.90007635551E+02  0.89999895540E+02 0.  0.
         12    1    1    2    0    0 -0.35432488099E+00  0.51337393438E+00 -0.10020784974E+01  0.11803644492E+01  0.00000000000E+00 0. -1.
         11    1    3    3    0    0 -0.19844608152E+02  0.29799785291E+02  0.15475548137E+02  0.39004208317E+02  0.51100000000E-03 0. -1.
        -11    1    3    3    0    0 -0.63166159355E+01 -0.62053026959E+01 -0.12226929246E+02  0.15096463741E+02  0.51100000000E-03 0.  1.
        -12    1    3    3    0    0  0.26515548968E+02 -0.24107856529E+02 -0.22465403928E+01  0.35906963493E+02  0.00000000000E+00 0.  1.
</event>
<event>
 7    1  0.3795708E-015  0.9000768E+02  0.7816164E-02  0.1186339E+00
        -11   -1    0    0    0    0  0.00000000000E+00  0.00000000000E+00  0.45593999997E+02  0.45594000000E+02  0.51100000000E-03 0. -1.
         11   -1    0    0    0    0 -0.00000000000E+00 -0.00000000000E+00 -0.45593999997E+02  0.45594000000E+02  0.51100000000E-03 0.  1.
    9900012    2    1    2    0    0  0.88151210303E-01 -0.40751898432E+00 -0.11042288787E+01  0.90007676411E+02  0.89999936940E+02 0.  0.
         12    1    1    2    0    0 -0.88151210303E-01  0.40751898432E+00  0.11042288787E+01  0.11803235891E+01  0.00000000000E+00 0. -1.
         11    1    3    3    0    0 -0.14552065217E+02  0.33548429416E+02  0.15295633537E+02  0.39638568641E+02  0.51100000000E-03 0. -1.
        -11    1    3    3    0    0  0.59421782666E+01  0.10010241539E+01  0.55444525534E+01  0.81885582545E+01  0.51100000000E-03 0.  1.
        -12    1    3    3    0    0  0.86980381608E+01 -0.34956972554E+02 -0.21944314969E+02  0.42180549516E+02  0.00000000000E+00 0.  1.
</event>
<event>
 7    1  0.3795708E-015  0.9000783E+02  0.7816164E-02  0.1186339E+00
        -11   -1    0    0    0    0  0.00000000000E+00  0.00000000000E+00  0.45593999997E+02  0.45594000000E+02  0.51100000000E-03 0.  1.
         11   -1    0    0    0    0 -0.00000000000E+00 -0.00000000000E+00 -0.45593999997E+02  0.45594000000E+02  0.51100000000E-03 0. -1.
    9900012    2    1    2    0    0 -0.11234547661E+01 -0.40105763142E-01  0.35923678351E+00  0.90007826220E+02  0.90000088726E+02 0.  0.
         12    1    1    2    0    0  0.11234547661E+01  0.40105763142E-01 -0.35923678351E+00  0.11801737797E+01  0.00000000000E+00 0. -1.
         11    1    3    3    0    0  0.31893373351E+01  0.40345629460E+01  0.77738976789E+01  0.93211080986E+01  0.51100000000E-03 0. -1.
        -11    1    3    3    0    0  0.29081180987E+02  0.23086666180E+02 -0.82629538735E+00  0.37140167033E+02  0.51100000000E-03 0.  1.
         12    1    3    3    0    0 -0.33393973088E+02 -0.27161334890E+02 -0.65883655080E+01  0.43546551088E+02  0.00000000000E+00 0. -1.
</event>
<event>
 7    1  0.3795708E-015  0.9000776E+02  0.7816164E-02  0.1186339E+00
        -11   -1    0    0    0    0  0.00000000000E+00  0.00000000000E+00  0.45593999997E+02  0.45594000000E+02  0.51100000000E-03 0.  1.
         11   -1    0    0    0    0 -0.00000000000E+00 -0.00000000000E+00 -0.45593999997E+02  0.45594000000E+02  0.51100000000E-03 0. -1.
    9900012    2    1    2    0    0 -0.81875347345E+00 -0.74280730194E+00 -0.41333658087E+00  0.90007759742E+02  0.90000021370E+02 0.  0.
         12    1    1    2    0    0  0.81875347345E+00  0.74280730194E+00  0.41333658087E+00  0.11802402582E+01  0.00000000000E+00 0. -1.
         11    1    3    3    0    0  0.39077495170E+00 -0.38560776925E+02 -0.32716771757E+01  0.38701293181E+02  0.51100000000E-03 0. -1.
        -11    1    3    3    0    0  0.14045294949E+01 -0.15982584746E+01 -0.96412528369E+01  0.98732410981E+01  0.51100000000E-03 0.  1.
        -12    1    3    3    0    0 -0.26140579201E+01  0.39416228098E+02  0.12499593432E+02  0.41433225462E+02  0.00000000000E+00 0.  1.
</event>
<event>
 7    1  0.3795708E-015  0.9000775E+02  0.7816164E-02  0.1186339E+00
        -11   -1    0    0    0    0  0.00000000000E+00  0.00000000000E+00  0.45593999997E+02  0.45594000000E+02  0.51100000000E-03 0. -1.
         11   -1    0    0    0    0 -0.00000000000E+00 -0.00000000000E+00 -0.45593999997E+02  0.45594000000E+02  0.51100000000E-03 0.  1.
    9900012    2    1    2    0    0  0.77375155926E+00  0.82281532361E+00  0.34245971152E+00  0.90007747829E+02  0.90000009301E+02 0.  0.
         12    1    1    2    0    0 -0.77375155926E+00 -0.82281532361E+00 -0.34245971152E+00  0.11802521706E+01  0.00000000000E+00 0. -1.
         11    1    3    3    0    0  0.20969793396E+01 -0.21827865054E+02 -0.33004178184E+02  0.39624850701E+02  0.51100000000E-03 0. -1.
        -11    1    3    3    0    0 -0.21889718837E+00 -0.17843024291E+01 -0.47675200754E+01  0.50951839092E+01  0.51100000000E-03 0.  1.
        -12    1    3    3    0    0 -0.11043305920E+01  0.24434982807E+02  0.38114157971E+02  0.45287713220E+02  0.00000000000E+00 0.  1.
</event>
<event>
 7    1  0.3795708E-015  0.9000778E+02  0.7816164E-02  0.1186339E+00
        -11   -1    0    0    0    0  0.00000000000E+00  0.00000000000E+00  0.45593999997E+02  0.45594000000E+02  0.51100000000E-03 0.  1.
         11   -1    0    0    0    0 -0.00000000000E+00 -0.00000000000E+00 -0.45593999997E+02  0.45594000000E+02  0.51100000000E-03 0. -1.
    9900012    2    1    2    0    0  0.11264142458E+01 -0.27446330101E+00  0.22084378855E+00  0.90007783437E+02  0.90000045378E+02 0.  0.
         12    1    1    2    0    0 -0.11264142458E+01  0.27446330101E+00 -0.22084378855E+00  0.11802165631E+01  0.00000000000E+00 0. -1.
         11    1    3    3    0    0  0.43967881468E+01  0.37956624181E+01  0.87400461113E+01  0.10494151013E+02  0.51100000000E-03 0. -1.
        -11    1    3    3    0    0  0.53949962594E+01  0.11518071071E+02  0.32437650374E+02  0.34842116868E+02  0.51100000000E-03 0.  1.
         12    1    3    3    0    0 -0.86653701603E+01 -0.15588196790E+02 -0.40956852697E+02  0.44671515555E+02  0.00000000000E+00 0. -1.
</event>
<event>
 7    1  0.3795708E-015  0.9000779E+02  0.7816164E-02  0.1186339E+00
        -11   -1    0    0    0    0  0.00000000000E+00  0.00000000000E+00  0.45593999997E+02  0.45594000000E+02  0.51100000000E-03 0.  1.
         11   -1    0    0    0    0 -0.00000000000E+00 -0.00000000000E+00 -0.45593999997E+02  0.45594000000E+02  0.51100000000E-03 0. -1.
    9900012    2    1    2    0    0  0.23076005080E-02 -0.27856545458E+00  0.11468666088E+01  0.90007785165E+02  0.90000047130E+02 0.  0.
         12    1    1    2    0    0 -0.23076005080E-02  0.27856545458E+00 -0.11468666088E+01  0.11802148346E+01  0.00000000000E+00 0. -1.
         11    1    3    3    0    0  0.12387985149E+02 -0.33614330857E+02 -0.13061623626E+02  0.38131239515E+02  0.51100000000E-03 0. -1.
        -11    1    3    3    0    0 -0.14066530260E+00 -0.57816159460E+01 -0.39929983245E+01  0.70278663586E+01  0.51100000000E-03 0.  1.
        -12    1    3    3    0    0 -0.12245012246E+02  0.39117381348E+02  0.18201488559E+02  0.44848679291E+02  0.00000000000E+00 0.  1.
</event>
<event>
 7    1  0.3795708E-015  0.9000761E+02  0.7816164E-02  0.1186339E+00
        -11   -1    0    0    0    0  0.00000000000E+00  0.00000000000E+00  0.45593999997E+02  0.45594000000E+02  0.51100000000E-03 0.  1.
         11   -1    0    0    0    0 -0.00000000000E+00 -0.00000000000E+00 -0.45593999997E+02  0.45594000000E+02  0.51100000000E-03 0. -1.
    9900012    2    1    2    0    0  0.94076687073E+00  0.20360966949E+00  0.68324538371E+00  0.90007608770E+02  0.89999868405E+02 0.  0.
         12    1    1    2    0    0 -0.94076687073E+00 -0.20360966949E+00 -0.68324538371E+00  0.11803912305E+01  0.00000000000E+00 0. -1.
         11    1    3    3    0    0 -0.51199444855E+01  0.35286100506E+01  0.67339632039E+01  0.91657613495E+01  0.51100000000E-03 0. -1.
        -11    1    3    3    0    0  0.78154319910E+01  0.22057945444E+02  0.29167089017E+02  0.37394558647E+02  0.51100000000E-03 0.  1.
         12    1    3    3    0    0 -0.17547206347E+01 -0.25382945826E+02 -0.35217806837E+02  0.43447288773E+02  0.00000000000E+00 0. -1.
</event>
<event>
 7    1  0.3795708E-015  0.9000768E+02  0.7816164E-02  0.1186339E+00
        -11   -1    0    0    0    0  0.00000000000E+00  0.00000000000E+00  0.45593999997E+02  0.45594000000E+02  0.51100000000E-03 0. -1.
         11   -1    0    0    0    0 -0.00000000000E+00 -0.00000000000E+00 -0.45593999997E+02  0.45594000000E+02  0.51100000000E-03 0.  1.
    9900012    2    1    2    0    0 -0.66338454402E+00  0.63774710671E+00 -0.73916602044E+00  0.90007675116E+02  0.89999935628E+02 0.  0.
         12    1    1    2    0    0  0.66338454402E+00 -0.63774710671E+00  0.73916602044E+00  0.11803248837E+01  0.00000000000E+00 0. -1.
         11    1    3    3    0    0 -0.53559803340E+01 -0.86952176489E+00  0.65827340332E+01  0.85308253440E+01  0.51100000000E-03 0. -1.
        -11    1    3    3    0    0  0.26255650280E+02 -0.13062560262E+02 -0.33528677499E+02  0.44543931880E+02  0.51100000000E-03 0.  1.
         12    1    3    3    0    0 -0.21563054490E+02  0.14569829134E+02  0.26206777446E+02  0.36932917892E+02  0.00000000000E+00 0. -1.
</event>
<event>
 7    1  0.3795708E-015  0.9000775E+02  0.7816164E-02  0.1186339E+00
        -11   -1    0    0    0    0  0.00000000000E+00  0.00000000000E+00  0.45593999997E+02  0.45594000000E+02  0.51100000000E-03 0. -1.
         11   -1    0    0    0    0 -0.00000000000E+00 -0.00000000000E+00 -0.45593999997E+02  0.45594000000E+02  0.51100000000E-03 0.  1.
    9900012    2    1    2    0    0 -0.11077386025E+01 -0.37120111582E+00  0.16770695298E+00  0.90007745493E+02  0.90000006933E+02 0.  0.
         12    1    1    2    0    0  0.11077386025E+01  0.37120111582E+00 -0.16770695298E+00  0.11802545073E+01  0.00000000000E+00 0. -1.
         11    1    3    3    0    0  0.11368116800E+01 -0.86025072733E+01 -0.41403229406E+01  0.96144550806E+01  0.51100000000E-03 0. -1.
        -11    1    3    3    0    0  0.21237117867E+02  0.12770590488E+02  0.34122477252E+02  0.42171632774E+02  0.51100000000E-03 0.  1.
         12    1    3    3    0    0 -0.23481668150E+02 -0.45392843301E+01 -0.29814447359E+02  0.38221657638E+02  0.00000000000E+00 0. -1.
</event>
<event>
 7    1  0.3795708E-015  0.9000771E+02  0.7816164E-02  0.1186339E+00
        -11   -1    0    0    0    0  0.00000000000E+00  0.00000000000E+00  0.45593999997E+02  0.45594000000E+02  0.51100000000E-03 0. -1.
         11   -1    0    0    0    0 -0.00000000000E+00 -0.00000000000E+00 -0.45593999997E+02  0.45594000000E+02  0.51100000000E-03 0.  1.
    9900012    2    1    2    0    0  0.10228354803E+01 -0.25500899475E+00 -0.53090280437E+00  0.90007711987E+02  0.89999972985E+02 0.  0.
         12    1    1    2    0    0 -0.10228354803E+01  0.25500899475E+00  0.53090280437E+00  0.11802880135E+01  0.00000000000E+00 0. -1.
         11    1    3    3    0    0 -0.26249821957E+01  0.25398819925E+01 -0.91754214072E+01  0.98757222685E+01  0.51100000000E-03 0. -1.
        -11    1    3    3    0    0 -0.29812935274E+02 -0.20780195898E+02  0.18652393924E+02  0.40847759432E+02  0.51100000000E-03 0.  1.
         12    1    3    3    0    0  0.33460752950E+02  0.17985304911E+02 -0.10007875321E+02  0.39284230286E+02  0.00000000000E+00 0. -1.
</event>
<event>
 7    1  0.3795708E-015  0.9000775E+02  0.7816164E-02  0.1186339E+00
        -11   -1    0    0    0    0  0.00000000000E+00  0.00000000000E+00  0.45593999997E+02  0.45594000000E+02  0.51100000000E-03 0.  1.
         11   -1    0    0    0    0 -0.00000000000E+00 -0.00000000000E+00 -0.45593999997E+02  0.45594000000E+02  0.51100000000E-03 0. -1.
    9900012    2    1    2    0    0  0.84998344447E+00 -0.76075220994E+00 -0.30295676341E+00  0.90007746391E+02  0.90000007843E+02 0.  0.
         12    1    1    2    0    0 -0.84998344447E+00  0.76075220994E+00  0.30295676341E+00  0.11802536089E+01  0.00000000000E+00 0. -1.
         11    1    3    3    0    0 -0.64644972219E+01  0.86780075170E+01 -0.18398732415E+02  0.21345043770E+02  0.51100000000E-03 0. -1.
        -11    1    3    3    0    0 -0.20600924267E+02 -0.26436609196E+02  0.80231661456E+01  0.34462495291E+02  0.51100000000E-03 0.  1.
         12    1    3    3    0    0  0.27915404933E+02  0.16997849469E+02  0.10072609506E+02  0.34200207330E+02  0.00000000000E+00 0. -1.
</event>
<event>
 7    1  0.3795708E-015  0.9000781E+02  0.7816164E-02  0.1186339E+00
        -11   -1    0    0    0    0  0.00000000000E+00  0.00000000000E+00  0.45593999997E+02  0.45594000000E+02  0.51100000000E-03 0.  1.
         11   -1    0    0    0    0 -0.00000000000E+00 -0.00000000000E+00 -0.45593999997E+02  0.45594000000E+02  0.51100000000E-03 0. -1.
    9900012    2    1    2    0    0  0.18248041913E+00  0.13308650374E+00  0.11583761054E+01  0.90007810895E+02  0.90000073199E+02 0.  0.
         12    1    1    2    0    0 -0.18248041913E+00 -0.13308650374E+00 -0.11583761054E+01  0.11801891045E+01  0.00000000000E+00 0. -1.
         11    1    3    3    0    0 -0.77470887392E+00 -0.99602397466E+01  0.57356926676E+01  0.11519753482E+02  0.51100000000E-03 0. -1.
        -11    1    3    3    0    0 -0.21567613854E+02 -0.17988931363E+02 -0.24564585454E+02  0.37311961590E+02  0.51100000000E-03 0.  1.
         12    1    3    3    0    0  0.22524803147E+02  0.28082257614E+02  0.19987268892E+02  0.41176095823E+02  0.00000000000E+00 0. -1.
</event>
<event>
 7    1  0.3795708E-015  0.9000859E+02  0.7816164E-02  0.1186337E+00
        -11   -1    0    0    0    0  0.00000000000E+00  0.00000000000E+00  0.45593999997E+02  0.45594000000E+02  0.51100000000E-03 0.  1.
         11   -1    0    0    0    0 -0.00000000000E+00 -0.00000000000E+00 -0.45593999997E+02  0.45594000000E+02  0.51100000000E-03 0. -1.
    9900012    2    1    2    0    0  0.56279285154E+00 -0.75535452793E+00 -0.70972396043E+00  0.90008591523E+02  0.90000864127E+02 0.  0.
         12    1    1    2    0    0 -0.56279285154E+00  0.75535452793E+00  0.70972396043E+00  0.11794084774E+01  0.00000000000E+00 0. -1.
         11    1    3    3    0    0 -0.65238738597E+01 -0.53024542759E+01  0.36300321998E+01  0.91571876424E+01  0.51100000000E-03 0. -1.
        -11    1    3    3    0    0  0.13972995456E+01  0.52007019137E+01  0.37871999285E+02  0.38252948599E+02  0.51100000000E-03 0.  1.
         12    1    3    3    0    0  0.56893671657E+01 -0.65360216571E+00 -0.42211755445E+02  0.42598455281E+02  0.00000000000E+00 0. -1.
</event>
<event>
 7    1  0.3795708E-015  0.9000773E+02  0.7816164E-02  0.1186339E+00
        -11   -1    0    0    0    0  0.00000000000E+00  0.00000000000E+00  0.45593999997E+02  0.45594000000E+02  0.51100000000E-03 0. -1.
         11   -1    0    0    0    0 -0.00000000000E+00 -0.00000000000E+00 -0.45593999997E+02  0.45594000000E+02  0.51100000000E-03 0.  1.
    9900012    2    1    2    0    0 -0.33190310853E+00 -0.92094875002E+00 -0.65934226410E+00  0.90007729482E+02  0.89999990712E+02 0.  0.
         12    1    1    2    0    0  0.33190310853E+00  0.92094875002E+00  0.65934226410E+00  0.11802705177E+01  0.00000000000E+00 0. -1.
         11    1    3    3    0    0 -0.15753845934E+00  0.58887254646E+01  0.61000465116E+01  0.84801222673E+01  0.51100000000E-03 0. -1.
        -11    1    3    3    0    0 -0.39967545047E+02 -0.98936567832E+01 -0.87120173830E+00  0.41183104477E+02  0.51100000000E-03 0.  1.
         12    1    3    3    0    0  0.39793180397E+02  0.30839825686E+01 -0.58881870374E+01  0.40344502738E+02  0.00000000000E+00 0. -1.
</event>
<event>
 7    1  0.3795708E-015  0.9000775E+02  0.7816164E-02  0.1186339E+00
        -11   -1    0    0    0    0  0.00000000000E+00  0.00000000000E+00  0.45593999997E+02  0.45594000000E+02  0.51100000000E-03 0.  1.
         11   -1    0    0    0    0 -0.00000000000E+00 -0.00000000000E+00 -0.45593999997E+02  0.45594000000E+02  0.51100000000E-03 0. -1.
    9900012    2    1    2    0    0 -0.10380918931E+01  0.30158674048E+00  0.47371181980E+00  0.90007749082E+02  0.90000010570E+02 0.  0.
         12    1    1    2    0    0  0.10380918931E+01 -0.30158674048E+00 -0.47371181980E+00  0.11802509177E+01  0.00000000000E+00 0. -1.
         11    1    3    3    0    0  0.17196585387E+02  0.25786520493E+02  0.10583017715E+02  0.32751602286E+02  0.51100000000E-03 0. -1.
        -11    1    3    3    0    0 -0.32332045163E+01  0.65018546287E+01 -0.19408974459E+02  0.20722838002E+02  0.51100000000E-03 0.  1.
        -12    1    3    3    0    0 -0.15001472763E+02 -0.31986788381E+02  0.92996685640E+01  0.36533308794E+02  0.00000000000E+00 0.  1.
</event>
<event>
 7    1  0.3795708E-015  0.9000774E+02  0.7816164E-02  0.1186339E+00
        -11   -1    0    0    0    0  0.00000000000E+00  0.00000000000E+00  0.45593999997E+02  0.45594000000E+02  0.51100000000E-03 0.  1.
         11   -1    0    0    0    0 -0.00000000000E+00 -0.00000000000E+00 -0.45593999997E+02  0.45594000000E+02  0.51100000000E-03 0. -1.
    9900012    2    1    2    0    0 -0.58330473062E+00 -0.81459580616E+00  0.62386383208E+00  0.90007738666E+02  0.90000000016E+02 0.  0.
         12    1    1    2    0    0  0.58330473062E+00  0.81459580616E+00 -0.62386383208E+00  0.11802613343E+01  0.00000000000E+00 0. -1.
         11    1    3    3    0    0  0.16896565054E+01 -0.11501763760E+02 -0.37615618105E+02  0.39371058334E+02  0.51100000000E-03 0. -1.
        -11    1    3    3    0    0 -0.67690213871E+01  0.81015259988E+00 -0.33916034255E+01  0.76143924138E+01  0.51100000000E-03 0.  1.
        -12    1    3    3    0    0  0.44960601510E+01  0.98770153537E+01  0.41631085363E+02  0.43022287917E+02  0.00000000000E+00 0.  1.
</event>
<event>
 7    1  0.3795708E-015  0.9000776E+02  0.7816164E-02  0.1186339E+00
        -11   -1    0    0    0    0  0.00000000000E+00  0.00000000000E+00  0.45593999997E+02  0.45594000000E+02  0.51100000000E-03 0.  1.
         11   -1    0    0    0    0 -0.00000000000E+00 -0.00000000000E+00 -0.45593999997E+02  0.45594000000E+02  0.51100000000E-03 0. -1.
    9900012    2    1    2    0    0  0.28389376993E+00  0.10125699685E+00 -0.11411086294E+01  0.90007755298E+02  0.90000016868E+02 0.  0.
         12    1    1    2    0    0 -0.28389376993E+00 -0.10125699685E+00  0.11411086294E+01  0.11802447018E+01  0.00000000000E+00 0. -1.
         11    1    3    3    0    0  0.10658882193E+01 -0.10178718185E+00 -0.99134894730E+01  0.99711459783E+01  0.51100000000E-03 0. -1.
        -11    1    3    3    0    0 -0.35761257963E+02  0.16915880961E+02 -0.25726227401E+01  0.39643826604E+02  0.51100000000E-03 0.  1.
         12    1    3    3    0    0  0.34979263513E+02 -0.16712836782E+02  0.11345003584E+02  0.40392782716E+02  0.00000000000E+00 0. -1.
</event>
<event>
 7    1  0.3795708E-015  0.9000774E+02  0.7816164E-02  0.1186339E+00
        -11   -1    0    0    0    0  0.00000000000E+00  0.00000000000E+00  0.45593999997E+02  0.45594000000E+02  0.51100000000E-03 0.  1.
         11   -1    0    0    0    0 -0.00000000000E+00 -0.00000000000E+00 -0.45593999997E+02  0.45594000000E+02  0.51100000000E-03 0. -1.
    9900012    2    1    2    0    0  0.68612816190E+00  0.93571123675E+00  0.21607792501E+00  0.90007738570E+02  0.89999999919E+02 0.  0.
         12    1    1    2    0    0 -0.68612816190E+00 -0.93571123675E+00 -0.21607792501E+00  0.11802614299E+01  0.00000000000E+00 0. -1.
         11    1    3    3    0    0 -0.95785497200E+01  0.99288807019E+00  0.68776459901E+00  0.96544011654E+01  0.51100000000E-03 0. -1.
        -11    1    3    3    0    0 -0.15370652299E+02  0.77540651440E+01  0.33152496106E+02  0.37355996529E+02  0.51100000000E-03 0.  1.
         12    1    3    3    0    0  0.25635330181E+02 -0.78112419774E+01 -0.33624182780E+02  0.42997340875E+02  0.00000000000E+00 0. -1.
</event>
<event>
 7    1  0.3795708E-015  0.9000775E+02  0.7816164E-02  0.1186339E+00
        -11   -1    0    0    0    0  0.00000000000E+00  0.00000000000E+00  0.45593999997E+02  0.45594000000E+02  0.51100000000E-03 0.  1.
         11   -1    0    0    0    0 -0.00000000000E+00 -0.00000000000E+00 -0.45593999997E+02  0.45594000000E+02  0.51100000000E-03 0. -1.
    9900012    2    1    2    0    0 -0.18618280951E+00  0.11435645334E+01  0.22490922843E+00  0.90007750856E+02  0.90000012367E+02 0.  0.
         12    1    1    2    0    0  0.18618280951E+00 -0.11435645334E+01 -0.22490922843E+00  0.11802491439E+01  0.00000000000E+00 0. -1.
         11    1    3    3    0    0  0.63689344052E+01  0.52776161777E+00  0.88601628045E+01  0.10924483648E+02  0.51100000000E-03 0. -1.
        -11    1    3    3    0    0  0.71963334861E+01  0.34832940142E+02  0.11096340236E+02  0.37259223039E+02  0.51100000000E-03 0.  1.
         12    1    3    3    0    0 -0.13751450701E+02 -0.34217137226E+02 -0.19731593812E+02  0.41824044170E+02  0.00000000000E+00 0. -1.
</event>
<event>
 7    1  0.3795708E-015  0.9000773E+02  0.7816164E-02  0.1186339E+00
        -11   -1    0    0    0    0  0.00000000000E+00  0.00000000000E+00  0.45593999997E+02  0.45594000000E+02  0.51100000000E-03 0.  1.
         11   -1    0    0    0    0 -0.00000000000E+00 -0.00000000000E+00 -0.45593999997E+02  0.45594000000E+02  0.51100000000E-03 0. -1.
    9900012    2    1    2    0    0 -0.11621000772E+01  0.91078114101E-01  0.18510189416E+00  0.90007731165E+02  0.89999992416E+02 0.  0.
         12    1    1    2    0    0  0.11621000772E+01 -0.91078114101E-01 -0.18510189416E+00  0.11802688352E+01  0.00000000000E+00 0. -1.
         11    1    3    3    0    0  0.35155008171E+02  0.89981659374E-01 -0.14038724206E+02  0.37854570051E+02  0.51100000000E-03 0. -1.
        -11    1    3    3    0    0 -0.45253793212E+01  0.37035325064E+01 -0.10291369973E+02  0.11836701703E+02  0.51100000000E-03 0.  1.
        -12    1    3    3    0    0 -0.31791728927E+02 -0.37024360517E+01  0.24515196073E+02  0.40316459410E+02  0.00000000000E+00 0.  1.
</event>
<event>
 7    1  0.3795708E-015  0.9000785E+02  0.7816164E-02  0.1186339E+00
        -11   -1    0    0    0    0  0.00000000000E+00  0.00000000000E+00  0.45593999997E+02  0.45594000000E+02  0.51100000000E-03 0. -1.
         11   -1    0    0    0    0 -0.00000000000E+00 -0.00000000000E+00 -0.45593999997E+02  0.45594000000E+02  0.51100000000E-03 0.  1.
    9900012    2    1    2    0    0 -0.69489134922E+00  0.69008265230E+00 -0.65854068378E+00  0.90007845821E+02  0.90000108586E+02 0.  0.
         12    1    1    2    0    0  0.69489134922E+00 -0.69008265230E+00  0.65854068378E+00  0.11801541791E+01  0.00000000000E+00 0. -1.
         11    1    3    3    0    0 -0.28329398008E+01 -0.21935260957E+02  0.72503105357E+01  0.23275485479E+02  0.51100000000E-03 0. -1.
        -11    1    3    3    0    0  0.20830203784E+02  0.15958662366E+02  0.19642220880E+02  0.32777936719E+02  0.51100000000E-03 0.  1.
         12    1    3    3    0    0 -0.18692155332E+02  0.66666812433E+01 -0.27551072099E+02  0.33954423623E+02  0.00000000000E+00 0. -1.
</event>
<event>
 7    1  0.3795708E-015  0.9000761E+02  0.7816164E-02  0.1186339E+00
        -11   -1    0    0    0    0  0.00000000000E+00  0.00000000000E+00  0.45593999997E+02  0.45594000000E+02  0.51100000000E-03 0.  1.
         11   -1    0    0    0    0 -0.00000000000E+00 -0.00000000000E+00 -0.45593999997E+02  0.45594000000E+02  0.51100000000E-03 0. -1.
    9900012    2    1    2    0    0  0.55855937467E+00 -0.69732840644E+00  0.77140997089E+00  0.90007606496E+02  0.89999866101E+02 0.  0.
         12    1    1    2    0    0 -0.55855937467E+00  0.69732840644E+00 -0.77140997089E+00  0.11803935042E+01  0.00000000000E+00 0. -1.
         11    1    3    3    0    0  0.60645027815E+01  0.24649067567E+01  0.59306988108E+01  0.88332976827E+01  0.51100000000E-03 0. -1.
        -11    1    3    3    0    0 -0.38151693209E+02  0.17613534339E+02 -0.61307347400E+01  0.42466153527E+02  0.51100000000E-03 0.  1.
         12    1    3    3    0    0  0.32645749802E+02 -0.20775769502E+02  0.97144590004E+00  0.38708155287E+02  0.00000000000E+00 0. -1.
</event>
<event>
 7    1  0.4411700E-015  0.9000762E+02  0.7816164E-02  0.1186339E+00
        -11   -1    0    0    0    0  0.00000000000E+00  0.00000000000E+00  0.45593999997E+02  0.45594000000E+02  0.51100000000E-03 0.  1.
         11   -1    0    0    0    0 -0.00000000000E+00 -0.00000000000E+00 -0.45593999997E+02  0.45594000000E+02  0.51100000000E-03 0. -1.
    9900012    2    1    2    0    0 -0.54001337031E+00  0.68505682782E+00  0.79522073050E+00  0.90007621540E+02  0.89999881345E+02 0.  0.
         12    1    1    2    0    0  0.54001337031E+00 -0.68505682782E+00 -0.79522073050E+00  0.11803784595E+01  0.00000000000E+00 0. -1.
         11    1    3    3    0    0  0.11584394724E+02  0.29467501474E+02 -0.23116461128E+02  0.39203349596E+02  0.51100000000E-03 0. -1.
        -11    1    3    3    0    0  0.13635920967E+01 -0.53710883139E+01 -0.75293827494E+01  0.93487741405E+01  0.51100000000E-03 0.  1.
        -12    1    3    3    0    0 -0.13488000191E+02 -0.23411356332E+02  0.31441064608E+02  0.41455497804E+02  0.00000000000E+00 0.  1.
</event>
<event>
 7    1  0.3795708E-015  0.9000761E+02  0.7816164E-02  0.1186339E+00
        -11   -1    0    0    0    0  0.00000000000E+00  0.00000000000E+00  0.45593999997E+02  0.45594000000E+02  0.51100000000E-03 0.  1.
         11   -1    0    0    0    0 -0.00000000000E+00 -0.00000000000E+00 -0.45593999997E+02  0.45594000000E+02  0.51100000000E-03 0. -1.
    9900012    2    1    2    0    0 -0.12983358579E-02 -0.75171003774E+00  0.91008880908E+00  0.90007605444E+02  0.89999865036E+02 0.  0.
         12    1    1    2    0    0  0.12983358579E-02  0.75171003774E+00 -0.91008880908E+00  0.11803945556E+01  0.00000000000E+00 0. -1.
         11    1    3    3    0    0  0.48413236780E+01 -0.86507005295E+01 -0.24153379006E+01  0.10203278495E+02  0.51100000000E-03 0. -1.
        -11    1    3    3    0    0 -0.72420074021E+01 -0.10673419841E+02  0.38145881166E+02  0.40267565267E+02  0.51100000000E-03 0.  1.
         12    1    3    3    0    0  0.23993853883E+01  0.18572410333E+02 -0.34820454457E+02  0.39536761683E+02  0.00000000000E+00 0. -1.
</event>
<event>
 7    1  0.3795708E-015  0.9000777E+02  0.7816164E-02  0.1186339E+00
        -11   -1    0    0    0    0  0.00000000000E+00  0.00000000000E+00  0.45593999997E+02  0.45594000000E+02  0.51100000000E-03 0.  1.
         11   -1    0    0    0    0 -0.00000000000E+00 -0.00000000000E+00 -0.45593999997E+02  0.45594000000E+02  0.51100000000E-03 0. -1.
    9900012    2    1    2    0    0  0.84367789890E+00 -0.61849259373E-01  0.82299140854E+00  0.90007774349E+02  0.90000036171E+02 0.  0.
         12    1    1    2    0    0 -0.84367789890E+00  0.61849259373E-01 -0.82299140854E+00  0.11802256507E+01  0.00000000000E+00 0. -1.
         11    1    3    3    0    0  0.16187902364E+02 -0.10588630728E+02 -0.26477436126E+02  0.32790576508E+02  0.51100000000E-03 0. -1.
        -11    1    3    3    0    0 -0.25193901476E+02 -0.56088766288E+01  0.23551062851E+01  0.25917922264E+02  0.51100000000E-03 0.  1.
        -12    1    3    3    0    0  0.98496770105E+01  0.16135658097E+02  0.24945321249E+02  0.31299275577E+02  0.00000000000E+00 0.  1.
</event>
<event>
 7    1  0.3795708E-015  0.9000768E+02  0.7816164E-02  0.1186339E+00
        -11   -1    0    0    0    0  0.00000000000E+00  0.00000000000E+00  0.45593999997E+02  0.45594000000E+02  0.51100000000E-03 0.  1.
         11   -1    0    0    0    0 -0.00000000000E+00 -0.00000000000E+00 -0.45593999997E+02  0.45594000000E+02  0.51100000000E-03 0. -1.
    9900012    2    1    2    0    0 -0.15170909387E+00 -0.10395513698E+01 -0.53801662920E+00  0.90007684537E+02  0.89999945173E+02 0.  0.
         12    1    1    2    0    0  0.15170909387E+00  0.10395513698E+01  0.53801662920E+00  0.11803154633E+01  0.00000000000E+00 0. -1.
         11    1    3    3    0    0 -0.32882197269E+02  0.15123241140E+02 -0.15748100432E+02  0.39470925848E+02  0.51100000000E-03 0. -1.
        -11    1    3    3    0    0  0.29011804544E+01 -0.13652159089E+01 -0.88781044311E+01  0.94393538474E+01  0.51100000000E-03 0.  1.
        -12    1    3    3    0    0  0.29829307721E+02 -0.14797576601E+02  0.24088188233E+02  0.41097404842E+02  0.00000000000E+00 0.  1.
</event>
<event>
 7    1  0.3795708E-015  0.9000804E+02  0.7816164E-02  0.1186338E+00
        -11   -1    0    0    0    0  0.00000000000E+00  0.00000000000E+00  0.45593999997E+02  0.45594000000E+02  0.51100000000E-03 0. -1.
         11   -1    0    0    0    0 -0.00000000000E+00 -0.00000000000E+00 -0.45593999997E+02  0.45594000000E+02  0.51100000000E-03 0.  1.
    9900012    2    1    2    0    0 -0.23647663252E+00  0.11247704918E+01 -0.26697595505E+00  0.90008039824E+02  0.90000305149E+02 0.  0.
         12    1    1    2    0    0  0.23647663252E+00 -0.11247704918E+01  0.26697595505E+00  0.11799601763E+01  0.00000000000E+00 0. -1.
         11    1    3    3    0    0 -0.13773317750E+02 -0.25529704561E+02  0.26921385470E+02  0.39575637616E+02  0.51100000000E-03 0. -1.
        -11    1    3    3    0    0  0.75224520257E+01  0.31397565459E+01  0.54152591887E+01  0.97862346175E+01  0.51100000000E-03 0.  1.
        -12    1    3    3    0    0  0.60143890916E+01  0.23514718507E+02 -0.32603620614E+02  0.40646167590E+02  0.00000000000E+00 0.  1.
</event>
<event>
 7    1  0.3795708E-015  0.9000772E+02  0.7816164E-02  0.1186339E+00
        -11   -1    0    0    0    0  0.00000000000E+00  0.00000000000E+00  0.45593999997E+02  0.45594000000E+02  0.51100000000E-03 0.  1.
         11   -1    0    0    0    0 -0.00000000000E+00 -0.00000000000E+00 -0.45593999997E+02  0.45594000000E+02  0.51100000000E-03 0. -1.
    9900012    2    1    2    0    0 -0.73975156914E+00 -0.46254354407E+00  0.79491657294E+00  0.90007715597E+02  0.89999976643E+02 0.  0.
         12    1    1    2    0    0  0.73975156914E+00  0.46254354407E+00 -0.79491657294E+00  0.11802844031E+01  0.00000000000E+00 0. -1.
         11    1    3    3    0    0  0.47022287148E+01  0.52499060583E+01 -0.25308569187E+01  0.74885048915E+01  0.51100000000E-03 0. -1.
        -11    1    3    3    0    0  0.16180580718E+02  0.14707927999E+02  0.33594703230E+02  0.40084141799E+02  0.51100000000E-03 0.  1.
         12    1    3    3    0    0 -0.21622561002E+02 -0.20420377601E+02 -0.30268929738E+02  0.42435068907E+02  0.00000000000E+00 0. -1.
</event>
<event>
 7    1  0.3795708E-015  0.9000779E+02  0.7816164E-02  0.1186339E+00
        -11   -1    0    0    0    0  0.00000000000E+00  0.00000000000E+00  0.45593999997E+02  0.45594000000E+02  0.51100000000E-03 0.  1.
         11   -1    0    0    0    0 -0.00000000000E+00 -0.00000000000E+00 -0.45593999997E+02  0.45594000000E+02  0.51100000000E-03 0. -1.
    9900012    2    1    2    0    0  0.11110142847E+00 -0.48861504033E+00  0.10685587763E+01  0.90007785594E+02  0.90000047564E+02 0.  0.
         12    1    1    2    0    0 -0.11110142847E+00  0.48861504033E+00 -0.10685587763E+01  0.11802144057E+01  0.00000000000E+00 0. -1.
         11    1    3    3    0    0 -0.82064396721E+00 -0.55713246796E-01  0.32434708886E+01  0.33461416816E+01  0.51100000000E-03 0. -1.
        -11    1    3    3    0    0 -0.36552766197E+02 -0.12029738498E+01  0.21399818282E+02  0.42373388884E+02  0.51100000000E-03 0.  1.
         12    1    3    3    0    0  0.37484511593E+02  0.77007205631E+00 -0.23574730394E+02  0.44288255029E+02  0.00000000000E+00 0. -1.
</event>
<event>
 7    1  0.3795708E-015  0.9000757E+02  0.7816164E-02  0.1186339E+00
        -11   -1    0    0    0    0  0.00000000000E+00  0.00000000000E+00  0.45593999997E+02  0.45594000000E+02  0.51100000000E-03 0. -1.
         11   -1    0    0    0    0 -0.00000000000E+00 -0.00000000000E+00 -0.45593999997E+02  0.45594000000E+02  0.51100000000E-03 0.  1.
    9900012    2    1    2    0    0 -0.78608515216E+00  0.83136625384E+00  0.29036376038E+00  0.90007571761E+02  0.89999830908E+02 0.  0.
         12    1    1    2    0    0  0.78608515216E+00 -0.83136625384E+00 -0.29036376038E+00  0.11804282392E+01  0.00000000000E+00 0. -1.
         11    1    3    3    0    0 -0.48293457519E+01 -0.84241073194E+00 -0.80580698202E+01  0.94321114137E+01  0.51100000000E-03 0. -1.
        -11    1    3    3    0    0 -0.31544962814E+02 -0.15828416166E+02 -0.10278746220E+02  0.36759707036E+02  0.51100000000E-03 0.  1.
         12    1    3    3    0    0  0.35588223414E+02  0.17502193151E+02  0.18627179801E+02  0.43815753311E+02  0.00000000000E+00 0. -1.
</event>
<event>
 7    1  0.3795708E-015  0.9000776E+02  0.7816164E-02  0.1186339E+00
        -11   -1    0    0    0    0  0.00000000000E+00  0.00000000000E+00  0.45593999997E+02  0.45594000000E+02  0.51100000000E-03 0.  1.
         11   -1    0    0    0    0 -0.00000000000E+00 -0.00000000000E+00 -0.45593999997E+02  0.45594000000E+02  0.51100000000E-03 0. -1.
    9900012    2    1    2    0    0 -0.91114057301E+00  0.58433355681E+00 -0.47046696819E+00  0.90007761881E+02  0.90000023538E+02 0.  0.
         12    1    1    2    0    0  0.91114057301E+00 -0.58433355681E+00  0.47046696819E+00  0.11802381190E+01  0.00000000000E+00 0. -1.
         11    1    3    3    0    0  0.89865399846E+01 -0.20376202138E+01  0.42015749841E+01  0.10127340699E+02  0.51100000000E-03 0. -1.
        -11    1    3    3    0    0  0.82064668408E+01  0.35781466458E+02 -0.16562341769E+02  0.40273696192E+02  0.51100000000E-03 0.  1.
         12    1    3    3    0    0 -0.18104147398E+02 -0.33159512687E+02  0.11890299817E+02  0.39606724989E+02  0.00000000000E+00 0. -1.
</event>
<event>
 7    1  0.3795708E-015  0.9000770E+02  0.7816164E-02  0.1186339E+00
        -11   -1    0    0    0    0  0.00000000000E+00  0.00000000000E+00  0.45593999997E+02  0.45594000000E+02  0.51100000000E-03 0.  1.
         11   -1    0    0    0    0 -0.00000000000E+00 -0.00000000000E+00 -0.45593999997E+02  0.45594000000E+02  0.51100000000E-03 0. -1.
    9900012    2    1    2    0    0  0.37286111847E+00 -0.91613912579E+00  0.64403347830E+00  0.90007696890E+02  0.89999957688E+02 0.  0.
         12    1    1    2    0    0 -0.37286111847E+00  0.91613912579E+00 -0.64403347830E+00  0.11803031105E+01  0.00000000000E+00 0. -1.
         11    1    3    3    0    0 -0.27173566622E+02 -0.28759158400E+02  0.16129429572E+02  0.42727630562E+02  0.51100000000E-03 0. -1.
        -11    1    3    3    0    0 -0.86252640359E+00  0.78077449100E+00 -0.70532984644E+01  0.71486068637E+01  0.51100000000E-03 0.  1.
        -12    1    3    3    0    0  0.28408954144E+02  0.27062244783E+02 -0.84320976296E+01  0.40131459464E+02  0.00000000000E+00 0.  1.
</event>
<event>
 7    1  0.3795708E-015  0.9000773E+02  0.7816164E-02  0.1186339E+00
        -11   -1    0    0    0    0  0.00000000000E+00  0.00000000000E+00  0.45593999997E+02  0.45594000000E+02  0.51100000000E-03 0.  1.
         11   -1    0    0    0    0 -0.00000000000E+00 -0.00000000000E+00 -0.45593999997E+02  0.45594000000E+02  0.51100000000E-03 0. -1.
    9900012    2    1    2    0    0  0.94209950021E+00 -0.44690836284E+00  0.55296320670E+00  0.90007725938E+02  0.89999987121E+02 0.  0.
         12    1    1    2    0    0 -0.94209950021E+00  0.44690836284E+00 -0.55296320670E+00  0.11802740618E+01  0.00000000000E+00 0. -1.
         11    1    3    3    0    0  0.91063012918E+01  0.17369109248E+01  0.68536549825E+01  0.11528840777E+02  0.51100000000E-03 0. -1.
        -11    1    3    3    0    0 -0.87051539556E+01  0.34736130856E+02  0.11332423338E+02  0.37560648439E+02  0.51100000000E-03 0.  1.
         12    1    3    3    0    0  0.54095216403E+00 -0.36919950143E+02 -0.17633115114E+02  0.40918236722E+02  0.00000000000E+00 0. -1.
</event>
<event>
 7    1  0.3795708E-015  0.9000773E+02  0.7816164E-02  0.1186339E+00
        -11   -1    0    0    0    0  0.00000000000E+00  0.00000000000E+00  0.45593999997E+02  0.45594000000E+02  0.51100000000E-03 0. -1.
         11   -1    0    0    0    0 -0.00000000000E+00 -0.00000000000E+00 -0.45593999997E+02  0.45594000000E+02  0.51100000000E-03 0.  1.
    9900012    2    1    2    0    0 -0.79006897726E+00  0.46483575519E+00 -0.74347461711E+00  0.90007730635E+02  0.89999991879E+02 0.  0.
         12    1    1    2    0    0  0.79006897726E+00 -0.46483575519E+00  0.74347461711E+00  0.11802693652E+01  0.00000000000E+00 0. -1.
         11    1    3    3    0    0  0.59863731010E+01  0.41675854029E+01 -0.74918087776E+01  0.10456224463E+02  0.51100000000E-03 0. -1.
        -11    1    3    3    0    0  0.52022069181E+01  0.20524662106E+02 -0.28267641636E+02  0.35318327753E+02  0.51100000000E-03 0.  1.
         12    1    3    3    0    0 -0.11978648996E+02 -0.24227411753E+02  0.35015975796E+02  0.44233178419E+02  0.00000000000E+00 0. -1.
</event>
<event>
 7    1  0.3795708E-015  0.9000771E+02  0.7816164E-02  0.1186339E+00
        -11   -1    0    0    0    0  0.00000000000E+00  0.00000000000E+00  0.45593999997E+02  0.45594000000E+02  0.51100000000E-03 0. -1.
         11   -1    0    0    0    0 -0.00000000000E+00 -0.00000000000E+00 -0.45593999997E+02  0.45594000000E+02  0.51100000000E-03 0.  1.
    9900012    2    1    2    0    0 -0.41924278808E+00  0.97825460858E+00 -0.51023632516E+00  0.90007708637E+02  0.89999969591E+02 0.  0.
         12    1    1    2    0    0  0.41924278808E+00 -0.97825460858E+00  0.51023632516E+00  0.11802913632E+01  0.00000000000E+00 0. -1.
         11    1    3    3    0    0  0.30671847110E+02  0.74461422661E+01  0.22134082103E+02  0.38550289631E+02  0.51100000000E-03 0. -1.
        -11    1    3    3    0    0  0.11944981588E+01 -0.66695534025E+01  0.54216328393E+01  0.86777803237E+01  0.51100000000E-03 0.  1.
        -12    1    3    3    0    0 -0.32285588057E+02  0.20166574495E+00 -0.28065951267E+02  0.42779638683E+02  0.00000000000E+00 0.  1.
</event>
<event>
 7    1  0.3795708E-015  0.9000771E+02  0.7816164E-02  0.1186339E+00
        -11   -1    0    0    0    0  0.00000000000E+00  0.00000000000E+00  0.45593999997E+02  0.45594000000E+02  0.51100000000E-03 0. -1.
         11   -1    0    0    0    0 -0.00000000000E+00 -0.00000000000E+00 -0.45593999997E+02  0.45594000000E+02  0.51100000000E-03 0.  1.
    9900012    2    1    2    0    0 -0.55751496713E+00  0.41070954093E+00 -0.95580779416E+00  0.90007714524E+02  0.89999975556E+02 0.  0.
         12    1    1    2    0    0  0.55751496713E+00 -0.41070954093E+00  0.95580779416E+00  0.11802854760E+01  0.00000000000E+00 0. -1.
         11    1    3    3    0    0  0.25706291264E+01 -0.11832144422E+01  0.60011632177E+01  0.66349145246E+01  0.51100000000E-03 0. -1.
        -11    1    3    3    0    0 -0.42646024823E+02  0.60550074781E+01 -0.67763668045E+01  0.43603505548E+02  0.51100000000E-03 0.  1.
         12    1    3    3    0    0  0.39517880729E+02 -0.44610834949E+01 -0.18060420736E+00  0.39769294451E+02  0.00000000000E+00 0. -1.
</event>
<event>
 7    1  0.3795708E-015  0.9000790E+02  0.7816164E-02  0.1186339E+00
        -11   -1    0    0    0    0  0.00000000000E+00  0.00000000000E+00  0.45593999997E+02  0.45594000000E+02  0.51100000000E-03 0. -1.
         11   -1    0    0    0    0 -0.00000000000E+00 -0.00000000000E+00 -0.45593999997E+02  0.45594000000E+02  0.51100000000E-03 0.  1.
    9900012    2    1    2    0    0 -0.45961552010E+00  0.96011150113E+00 -0.50949416955E+00  0.90007896263E+02  0.90000159694E+02 0.  0.
         12    1    1    2    0    0  0.45961552010E+00 -0.96011150113E+00  0.50949416955E+00  0.11801037368E+01  0.00000000000E+00 0. -1.
         11    1    3    3    0    0  0.27852041796E+01  0.37729698278E+02  0.84931207400E+01  0.38773968002E+02  0.51100000000E-03 0. -1.
        -11    1    3    3    0    0  0.73164380860E+01  0.26053340253E+01  0.36047708776E+01  0.85622663466E+01  0.51100000000E-03 0.  1.
        -12    1    3    3    0    0 -0.10561257786E+02 -0.39374920802E+02 -0.12607385787E+02  0.42671661915E+02  0.00000000000E+00 0.  1.
</event>
<event>
 7    1  0.3795708E-015  0.9000774E+02  0.7816164E-02  0.1186339E+00
        -11   -1    0    0    0    0  0.00000000000E+00  0.00000000000E+00  0.45593999997E+02  0.45594000000E+02  0.51100000000E-03 0.  1.
         11   -1    0    0    0    0 -0.00000000000E+00 -0.00000000000E+00 -0.45593999997E+02  0.45594000000E+02  0.51100000000E-03 0. -1.
    9900012    2    1    2    0    0 -0.47929214796E+00 -0.10741323526E+01  0.97596230674E-01  0.90007743122E+02  0.90000004531E+02 0.  0.
         12    1    1    2    0    0  0.47929214796E+00  0.10741323526E+01 -0.97596230674E-01  0.11802568781E+01  0.00000000000E+00 0. -1.
         11    1    3    3    0    0 -0.23568768915E+01  0.41635880971E+01 -0.92410237212E+01  0.10406096973E+02  0.51100000000E-03 0. -1.
        -11    1    3    3    0    0 -0.30825477313E+02  0.20485822584E+02  0.85499731866E+01  0.37986590006E+02  0.51100000000E-03 0.  1.
         12    1    3    3    0    0  0.32703062057E+02 -0.25723543034E+02  0.78864676528E+00  0.41615056143E+02  0.00000000000E+00 0. -1.
</event>
<event>
 7    1  0.3795708E-015  0.9000775E+02  0.7816164E-02  0.1186339E+00
        -11   -1    0    0    0    0  0.00000000000E+00  0.00000000000E+00  0.45593999997E+02  0.45594000000E+02  0.51100000000E-03 0. -1.
         11   -1    0    0    0    0 -0.00000000000E+00 -0.00000000000E+00 -0.45593999997E+02  0.45594000000E+02  0.51100000000E-03 0.  1.
    9900012    2    1    2    0    0 -0.67778234831E+00 -0.14485334541E+00 -0.95531453797E+00  0.90007746947E+02  0.90000008406E+02 0.  0.
         12    1    1    2    0    0  0.67778234831E+00  0.14485334541E+00  0.95531453797E+00  0.11802530533E+01  0.00000000000E+00 0. -1.
         11    1    3    3    0    0  0.20929310053E+02 -0.34062091034E+01 -0.26987983389E+02  0.34321852039E+02  0.51100000000E-03 0. -1.
        -11    1    3    3    0    0  0.10059929320E+02 -0.18013098104E+00 -0.49820222019E+01  0.11227429384E+02  0.51100000000E-03 0.  1.
        -12    1    3    3    0    0 -0.31667021721E+02  0.34414867390E+01  0.31014691052E+02  0.44458465524E+02  0.00000000000E+00 0.  1.
</event>
<event>
 7    1  0.3795708E-015  0.9000777E+02  0.7816164E-02  0.1186339E+00
        -11   -1    0    0    0    0  0.00000000000E+00  0.00000000000E+00  0.45593999997E+02  0.45594000000E+02  0.51100000000E-03 0.  1.
         11   -1    0    0    0    0 -0.00000000000E+00 -0.00000000000E+00 -0.45593999997E+02  0.45594000000E+02  0.51100000000E-03 0. -1.
    9900012    2    1    2    0    0  0.22459467525E+00 -0.47596333620E+00  0.10563846964E+01  0.90007774389E+02  0.90000036211E+02 0.  0.
         12    1    1    2    0    0 -0.22459467525E+00  0.47596333620E+00 -0.10563846964E+01  0.11802256108E+01  0.00000000000E+00 0. -1.
         11    1    3    3    0    0 -0.72761668881E+01  0.37662220594E+02 -0.50474821119E+01  0.38689307833E+02  0.51100000000E-03 0. -1.
        -11    1    3    3    0    0 -0.38827134278E+01 -0.57885832485E+00  0.11082719750E+02  0.11757432451E+02  0.51100000000E-03 0.  1.
        -12    1    3    3    0    0  0.11383474991E+02 -0.37559325606E+02 -0.49788529417E+01  0.39561034105E+02  0.00000000000E+00 0.  1.
</event>
<event>
 7    1  0.3795708E-015  0.9000776E+02  0.7816164E-02  0.1186339E+00
        -11   -1    0    0    0    0  0.00000000000E+00  0.00000000000E+00  0.45593999997E+02  0.45594000000E+02  0.51100000000E-03 0. -1.
         11   -1    0    0    0    0 -0.00000000000E+00 -0.00000000000E+00 -0.45593999997E+02  0.45594000000E+02  0.51100000000E-03 0.  1.
    9900012    2    1    2    0    0  0.16934406887E+00  0.11186719445E+01 -0.33595958912E+00  0.90007757153E+02  0.90000018747E+02 0.  0.
         12    1    1    2    0    0 -0.16934406887E+00 -0.11186719445E+01  0.33595958912E+00  0.11802428473E+01  0.00000000000E+00 0. -1.
         11    1    3    3    0    0 -0.21047287203E+02  0.24329127939E+02  0.23030513570E+02  0.39563863821E+02  0.51100000000E-03 0. -1.
        -11    1    3    3    0    0  0.50697532486E+01  0.22071577974E+01  0.61550936777E+01  0.82740027790E+01  0.51100000000E-03 0.  1.
        -12    1    3    3    0    0  0.16146878023E+02 -0.25417613792E+02 -0.29521566836E+02  0.42169890553E+02  0.00000000000E+00 0.  1.
</event>
<event>
 7    1  0.3795708E-015  0.9000790E+02  0.7816164E-02  0.1186339E+00
        -11   -1    0    0    0    0  0.00000000000E+00  0.00000000000E+00  0.45593999997E+02  0.45594000000E+02  0.51100000000E-03 0. -1.
         11   -1    0    0    0    0 -0.00000000000E+00 -0.00000000000E+00 -0.45593999997E+02  0.45594000000E+02  0.51100000000E-03 0.  1.
    9900012    2    1    2    0    0 -0.49569838698E+00 -0.11332133010E+00 -0.10649320637E+01  0.90007898769E+02  0.90000162233E+02 0.  0.
         12    1    1    2    0    0  0.49569838698E+00  0.11332133010E+00  0.10649320637E+01  0.11801012308E+01  0.00000000000E+00 0. -1.
         11    1    3    3    0    0 -0.14546508847E+01 -0.78692526085E+01 -0.41131711833E+01  0.89977398971E+01  0.51100000000E-03 0. -1.
        -11    1    3    3    0    0  0.84202249656E+01  0.20836073297E+02 -0.34149090592E+02  0.40880344023E+02  0.51100000000E-03 0.  1.
         12    1    3    3    0    0 -0.74612724679E+01 -0.13080142019E+02  0.37197329712E+02  0.40129814849E+02  0.00000000000E+00 0. -1.
</event>
<event>
 7    1  0.3795708E-015  0.9000777E+02  0.7816164E-02  0.1186339E+00
        -11   -1    0    0    0    0  0.00000000000E+00  0.00000000000E+00  0.45593999997E+02  0.45594000000E+02  0.51100000000E-03 0.  1.
         11   -1    0    0    0    0 -0.00000000000E+00 -0.00000000000E+00 -0.45593999997E+02  0.45594000000E+02  0.51100000000E-03 0. -1.
    9900012    2    1    2    0    0 -0.24186966444E-01  0.81611943678E+00  0.85224053163E+00  0.90007767028E+02  0.90000028753E+02 0.  0.
         12    1    1    2    0    0  0.24186966444E-01 -0.81611943678E+00 -0.85224053163E+00  0.11802329720E+01  0.00000000000E+00 0. -1.
         11    1    3    3    0    0 -0.47993850057E+01 -0.81683267364E+01 -0.10471492607E+01  0.95316409889E+01  0.51100000000E-03 0. -1.
        -11    1    3    3    0    0 -0.10489662486E+02 -0.14260567600E+02  0.33800329899E+02  0.38155721837E+02  0.51100000000E-03 0.  1.
         12    1    3    3    0    0  0.15264860526E+02  0.23245013773E+02 -0.31900940107E+02  0.42320404202E+02  0.00000000000E+00 0. -1.
</event>
<event>
 7    1  0.3795708E-015  0.9000772E+02  0.7816164E-02  0.1186339E+00
        -11   -1    0    0    0    0  0.00000000000E+00  0.00000000000E+00  0.45593999997E+02  0.45594000000E+02  0.51100000000E-03 0. -1.
         11   -1    0    0    0    0 -0.00000000000E+00 -0.00000000000E+00 -0.45593999997E+02  0.45594000000E+02  0.51100000000E-03 0.  1.
    9900012    2    1    2    0    0 -0.18267651303E+00 -0.59520989542E+00 -0.10027034755E+01  0.90007720462E+02  0.89999981572E+02 0.  0.
         12    1    1    2    0    0  0.18267651303E+00  0.59520989542E+00  0.10027034755E+01  0.11802795380E+01  0.00000000000E+00 0. -1.
         11    1    3    3    0    0 -0.72203119285E+01  0.33433888462E+01 -0.48054454895E+01  0.92953461439E+01  0.51100000000E-03 0. -1.
        -11    1    3    3    0    0  0.30712110065E+02  0.26383373789E+01 -0.27230048532E+02  0.41129916995E+02  0.51100000000E-03 0.  1.
         12    1    3    3    0    0 -0.23674474649E+02 -0.65769361205E+01  0.31032790546E+02  0.39582457323E+02  0.00000000000E+00 0. -1.
</event>
<event>
 7    1  0.3795708E-015  0.9000777E+02  0.7816164E-02  0.1186339E+00
        -11   -1    0    0    0    0  0.00000000000E+00  0.00000000000E+00  0.45593999997E+02  0.45594000000E+02  0.51100000000E-03 0. -1.
         11   -1    0    0    0    0 -0.00000000000E+00 -0.00000000000E+00 -0.45593999997E+02  0.45594000000E+02  0.51100000000E-03 0.  1.
    9900012    2    1    2    0    0  0.88579297963E+00 -0.74760149129E+00 -0.22225522735E+00  0.90007773505E+02  0.90000035316E+02 0.  0.
         12    1    1    2    0    0 -0.88579297963E+00  0.74760149129E+00  0.22225522735E+00  0.11802264946E+01  0.00000000000E+00 0. -1.
         11    1    3    3    0    0 -0.27604575584E+01  0.88874409661E+01 -0.43854374114E+01  0.10287798327E+02  0.51100000000E-03 0. -1.
        -11    1    3    3    0    0 -0.17617742286E+01  0.34264665310E+02 -0.46358571143E+01  0.34621702856E+02  0.51100000000E-03 0.  1.
         12    1    3    3    0    0  0.54080247666E+01 -0.43899707767E+02  0.87990392984E+01  0.45098272323E+02  0.00000000000E+00 0. -1.
</event>
<event>
 7    1  0.5085904E-015  0.9000769E+02  0.7816164E-02  0.1186339E+00
        -11   -1    0    0    0    0  0.00000000000E+00  0.00000000000E+00  0.45593999997E+02  0.45594000000E+02  0.51100000000E-03 0. -1.
         11   -1    0    0    0    0 -0.00000000000E+00 -0.00000000000E+00 -0.45593999997E+02  0.45594000000E+02  0.51100000000E-03 0.  1.
    9900012    2    1    2    0    0  0.99489957109E+00  0.38301061955E+00 -0.50656989047E+00  0.90007688454E+02  0.89999949142E+02 0.  0.
         12    1    1    2    0    0 -0.99489957109E+00 -0.38301061955E+00  0.50656989047E+00  0.11803115458E+01  0.00000000000E+00 0. -1.
         11    1    3    3    0    0 -0.71156941722E+01 -0.28295224768E+02  0.27468083074E+02  0.40071791029E+02  0.51100000000E-03 0. -1.
        -11    1    3    3    0    0  0.16894534883E+01 -0.54325330814E+01 -0.82243310335E+01  0.10000314494E+02  0.51100000000E-03 0.  1.
        -12    1    3    3    0    0  0.64211402550E+01  0.34110768469E+02 -0.19750321931E+02  0.39935582932E+02  0.00000000000E+00 0.  1.
</event>
<event>
 7    1  0.3795708E-015  0.9000773E+02  0.7816164E-02  0.1186339E+00
        -11   -1    0    0    0    0  0.00000000000E+00  0.00000000000E+00  0.45593999997E+02  0.45594000000E+02  0.51100000000E-03 0. -1.
         11   -1    0    0    0    0 -0.00000000000E+00 -0.00000000000E+00 -0.45593999997E+02  0.45594000000E+02  0.51100000000E-03 0.  1.
    9900012    2    1    2    0    0 -0.28871635171E+00 -0.99011276079E-01 -0.11401186345E+01  0.90007732715E+02  0.89999993986E+02 0.  0.
         12    1    1    2    0    0  0.28871635171E+00  0.99011276079E-01  0.11401186345E+01  0.11802672855E+01  0.00000000000E+00 0. -1.
         11    1    3    3    0    0  0.55399541288E+01 -0.14166049152E+02  0.39572283451E+02  0.42394972086E+02  0.51100000000E-03 0. -1.
        -11    1    3    3    0    0 -0.69908916404E+01  0.64601798972E+01 -0.43866492208E+01  0.10480896044E+02  0.51100000000E-03 0.  1.
        -12    1    3    3    0    0  0.11622211599E+01  0.76068579792E+01 -0.36325752865E+02  0.37131864585E+02  0.00000000000E+00 0.  1.
</event>
<event>
 7    1  0.3795708E-015  0.9000778E+02  0.7816164E-02  0.1186339E+00
        -11   -1    0    0    0    0  0.00000000000E+00  0.00000000000E+00  0.45593999997E+02  0.45594000000E+02  0.51100000000E-03 0.  1.
         11   -1    0    0    0    0 -0.00000000000E+00 -0.00000000000E+00 -0.45593999997E+02  0.45594000000E+02  0.51100000000E-03 0. -1.
    9900012    2    1    2    0    0 -0.15017285291E+00 -0.19833958879E+00  0.11537021719E+01  0.90007780029E+02  0.90000041925E+02 0.  0.
         12    1    1    2    0    0  0.15017285291E+00  0.19833958879E+00 -0.11537021719E+01  0.11802199709E+01  0.00000000000E+00 0. -1.
         11    1    3    3    0    0  0.17785561826E+02  0.45494749142E+01 -0.29049643112E+02  0.34364308470E+02  0.51100000000E-03 0. -1.
        -11    1    3    3    0    0  0.50977337566E+01  0.57227971757E+01 -0.71805384007E+01  0.10502258279E+02  0.51100000000E-03 0.  1.
        -12    1    3    3    0    0 -0.23033468436E+02 -0.10470611679E+02  0.37383883684E+02  0.45141213280E+02  0.00000000000E+00 0.  1.
</event>
<event>
 7    1  0.3795708E-015  0.9000657E+02  0.7816164E-02  0.1186341E+00
        -11   -1    0    0    0    0  0.00000000000E+00  0.00000000000E+00  0.45593999997E+02  0.45594000000E+02  0.51100000000E-03 0. -1.
         11   -1    0    0    0    0 -0.00000000000E+00 -0.00000000000E+00 -0.45593999997E+02  0.45594000000E+02  0.51100000000E-03 0.  1.
    9900012    2    1    2    0    0  0.11761711096E+01 -0.10331285906E+00 -0.41517271764E-01  0.90006570480E+02  0.89998816403E+02 0.  0.
         12    1    1    2    0    0 -0.11761711096E+01  0.10331285906E+00  0.41517271764E-01  0.11814295196E+01  0.00000000000E+00 0. -1.
         11    1    3    3    0    0  0.39695079967E+02  0.55965021970E+01  0.61210783974E+01  0.40552284910E+02  0.51100000000E-03 0. -1.
        -11    1    3    3    0    0 -0.84106180777E+01 -0.11191204744E+02  0.75638771726E+01  0.15912064549E+02  0.51100000000E-03 0.  1.
        -12    1    3    3    0    0 -0.30108290779E+02  0.54913896884E+01 -0.13726472842E+02  0.33542221021E+02  0.00000000000E+00 0.  1.
</event>
<event>
 7    1  0.3795708E-015  0.9000773E+02  0.7816164E-02  0.1186339E+00
        -11   -1    0    0    0    0  0.00000000000E+00  0.00000000000E+00  0.45593999997E+02  0.45594000000E+02  0.51100000000E-03 0. -1.
         11   -1    0    0    0    0 -0.00000000000E+00 -0.00000000000E+00 -0.45593999997E+02  0.45594000000E+02  0.51100000000E-03 0.  1.
    9900012    2    1    2    0    0  0.11100250778E+01  0.39865744442E+00 -0.44080764328E-01  0.90007734545E+02  0.89999995841E+02 0.  0.
         12    1    1    2    0    0 -0.11100250778E+01 -0.39865744442E+00  0.44080764328E-01  0.11802654554E+01  0.00000000000E+00 0. -1.
         11    1    3    3    0    0  0.13886175008E+02 -0.18401907635E+02  0.51612627897E+01  0.23624027912E+02  0.51100000000E-03 0. -1.
        -11    1    3    3    0    0  0.18681700619E+02 -0.11931120681E+02 -0.72512477923E+00  0.22178444150E+02  0.51100000000E-03 0.  1.
         12    1    3    3    0    0 -0.31457850549E+02  0.30731685760E+02 -0.44802187748E+01  0.44205262482E+02  0.00000000000E+00 0. -1.
</event>
<event>
 7    1  0.3795708E-015  0.9000765E+02  0.7816164E-02  0.1186339E+00
        -11   -1    0    0    0    0  0.00000000000E+00  0.00000000000E+00  0.45593999997E+02  0.45594000000E+02  0.51100000000E-03 0. -1.
         11   -1    0    0    0    0 -0.00000000000E+00 -0.00000000000E+00 -0.45593999997E+02  0.45594000000E+02  0.51100000000E-03 0.  1.
    9900012    2    1    2    0    0  0.69180730875E+00  0.81305951192E+00 -0.50355516679E+00  0.90007647964E+02  0.89999908117E+02 0.  0.
         12    1    1    2    0    0 -0.69180730875E+00 -0.81305951192E+00  0.50355516679E+00  0.11803520358E+01  0.00000000000E+00 0. -1.
         11    1    3    3    0    0 -0.34279211038E+02  0.20726441554E+02 -0.16595101993E+02  0.43359509906E+02  0.51100000000E-03 0. -1.
        -11    1    3    3    0    0  0.99689346229E+01 -0.15403220062E+01 -0.26117729432E+01  0.10419866005E+02  0.51100000000E-03 0.  1.
        -12    1    3    3    0    0  0.25002083724E+02 -0.18373060035E+02  0.18703319769E+02  0.36228272053E+02  0.00000000000E+00 0.  1.
</event>
<event>
 7    1  0.3795708E-015  0.9000759E+02  0.7816164E-02  0.1186339E+00
        -11   -1    0    0    0    0  0.00000000000E+00  0.00000000000E+00  0.45593999997E+02  0.45594000000E+02  0.51100000000E-03 0.  1.
         11   -1    0    0    0    0 -0.00000000000E+00 -0.00000000000E+00 -0.45593999997E+02  0.45594000000E+02  0.51100000000E-03 0. -1.
    9900012    2    1    2    0    0 -0.39192374030E+00 -0.87439434493E+00  0.68934671633E+00  0.90007589654E+02  0.89999849038E+02 0.  0.
         12    1    1    2    0    0  0.39192374030E+00  0.87439434493E+00 -0.68934671633E+00  0.11804103456E+01  0.00000000000E+00 0. -1.
         11    1    3    3    0    0 -0.59052042530E+01 -0.29821795810E+01  0.27717542484E+01  0.71726880734E+01  0.51100000000E-03 0. -1.
        -11    1    3    3    0    0 -0.28198334647E+01 -0.78304429561E+01  0.38935664229E+02  0.39815238877E+02  0.51100000000E-03 0.  1.
         12    1    3    3    0    0  0.83331139774E+01  0.99382281922E+01 -0.41018071761E+02  0.43019662704E+02  0.00000000000E+00 0. -1.
</event>
<event>
 7    1  0.3795708E-015  0.9000774E+02  0.7816164E-02  0.1186339E+00
        -11   -1    0    0    0    0  0.00000000000E+00  0.00000000000E+00  0.45593999997E+02  0.45594000000E+02  0.51100000000E-03 0.  1.
         11   -1    0    0    0    0 -0.00000000000E+00 -0.00000000000E+00 -0.45593999997E+02  0.45594000000E+02  0.51100000000E-03 0. -1.
    9900012    2    1    2    0    0  0.11349235244E+01  0.21552102496E+00  0.24191761416E+00  0.90007735263E+02  0.89999996568E+02 0.  0.
         12    1    1    2    0    0 -0.11349235244E+01 -0.21552102496E+00 -0.24191761416E+00  0.11802647375E+01  0.00000000000E+00 0. -1.
         11    1    3    3    0    0  0.64528541233E+00  0.16566805665E+02 -0.34345201062E+02  0.38137491783E+02  0.51100000000E-03 0. -1.
        -11    1    3    3    0    0  0.11779201841E+02  0.42661881223E+01  0.37135984065E+01  0.13066781184E+02  0.51100000000E-03 0.  1.
        -12    1    3    3    0    0 -0.11289563729E+02 -0.20617472763E+02  0.30873520270E+02  0.38803462296E+02  0.00000000000E+00 0.  1.
</event>
<event>
 7    1  0.3795708E-015  0.9000775E+02  0.7816164E-02  0.1186339E+00
        -11   -1    0    0    0    0  0.00000000000E+00  0.00000000000E+00  0.45593999997E+02  0.45594000000E+02  0.51100000000E-03 0. -1.
         11   -1    0    0    0    0 -0.00000000000E+00 -0.00000000000E+00 -0.45593999997E+02  0.45594000000E+02  0.51100000000E-03 0.  1.
    9900012    2    1    2    0    0  0.91835774883E+00  0.35943175027E+00 -0.64839384355E+00  0.90007751418E+02  0.90000012937E+02 0.  0.
         12    1    1    2    0    0 -0.91835774883E+00 -0.35943175027E+00  0.64839384355E+00  0.11802485816E+01  0.00000000000E+00 0. -1.
         11    1    3    3    0    0  0.27490055987E+02  0.56840278819E+00  0.29973388109E+02  0.40674688135E+02  0.51100000000E-03 0. -1.
        -11    1    3    3    0    0  0.48283502491E+01  0.45292167708E+01 -0.77820243398E+01  0.10216979680E+02  0.51100000000E-03 0.  1.
        -12    1    3    3    0    0 -0.31400048487E+02 -0.47381878087E+01 -0.22839757613E+02  0.39116083604E+02  0.00000000000E+00 0.  1.
</event>
<event>
 7    1  0.3795708E-015  0.9000768E+02  0.7816164E-02  0.1186339E+00
        -11   -1    0    0    0    0  0.00000000000E+00  0.00000000000E+00  0.45593999997E+02  0.45594000000E+02  0.51100000000E-03 0. -1.
         11   -1    0    0    0    0 -0.00000000000E+00 -0.00000000000E+00 -0.45593999997E+02  0.45594000000E+02  0.51100000000E-03 0.  1.
    9900012    2    1    2    0    0  0.17246087758E+00  0.10213616380E+01 -0.56589901034E+00  0.90007676299E+02  0.89999936826E+02 0.  0.
         12    1    1    2    0    0 -0.17246087758E+00 -0.10213616380E+01  0.56589901034E+00  0.11803237013E+01  0.00000000000E+00 0. -1.
         11    1    3    3    0    0 -0.79012340631E+01 -0.34111903097E+01 -0.40518220888E+01  0.95122542832E+01  0.51100000000E-03 0. -1.
        -11    1    3    3    0    0  0.33864362740E+02 -0.53403521805E+01 -0.23771971418E+02  0.41718353882E+02  0.51100000000E-03 0.  1.
         12    1    3    3    0    0 -0.25790667800E+02  0.97729041282E+01  0.27257894497E+02  0.38777068134E+02  0.00000000000E+00 0. -1.
</event>
<event>
 7    1  0.3795708E-015  0.9000734E+02  0.7816164E-02  0.1186340E+00
        -11   -1    0    0    0    0  0.00000000000E+00  0.00000000000E+00  0.45593999997E+02  0.45594000000E+02  0.51100000000E-03 0.  1.
         11   -1    0    0    0    0 -0.00000000000E+00 -0.00000000000E+00 -0.45593999997E+02  0.45594000000E+02  0.51100000000E-03 0. -1.
    9900012    2    1    2    0    0  0.10815154722E+01  0.34680906633E+00  0.32250879047E+00  0.90007337404E+02  0.89999593457E+02 0.  0.
         12    1    1    2    0    0 -0.10815154722E+01 -0.34680906633E+00 -0.32250879047E+00  0.11806625958E+01  0.00000000000E+00 0. -1.
         11    1    3    3    0    0  0.14617808212E+02 -0.28591779395E+02 -0.25088876692E+02  0.40750728826E+02  0.51100000000E-03 0. -1.
        -11    1    3    3    0    0  0.59428576606E+01 -0.48797376534E+00  0.77953643285E+01  0.98144475568E+01  0.51100000000E-03 0.  1.
        -12    1    3    3    0    0 -0.19479150400E+02  0.29426562227E+02  0.17616021154E+02  0.39442161022E+02  0.00000000000E+00 0.  1.
</event>
<event>
 7    1  0.3795708E-015  0.9000769E+02  0.7816164E-02  0.1186339E+00
        -11   -1    0    0    0    0  0.00000000000E+00  0.00000000000E+00  0.45593999997E+02  0.45594000000E+02  0.51100000000E-03 0.  1.
         11   -1    0    0    0    0 -0.00000000000E+00 -0.00000000000E+00 -0.45593999997E+02  0.45594000000E+02  0.51100000000E-03 0. -1.
    9900012    2    1    2    0    0  0.71356966199E+00 -0.84599029612E+00 -0.41017806988E+00  0.90007691865E+02  0.89999952598E+02 0.  0.
         12    1    1    2    0    0 -0.71356966199E+00  0.84599029612E+00  0.41017806988E+00  0.11803081346E+01  0.00000000000E+00 0. -1.
         11    1    3    3    0    0 -0.59847613432E-01 -0.10326531491E+02  0.31681826879E+01  0.10801769122E+02  0.51100000000E-03 0. -1.
        -11    1    3    3    0    0 -0.11908082157E+02  0.15626895055E+02  0.33891026886E+02  0.39174021664E+02  0.51100000000E-03 0.  1.
         12    1    3    3    0    0  0.12681499432E+02 -0.61463538603E+01 -0.37469387643E+02  0.40031901079E+02  0.00000000000E+00 0. -1.
</event>
<event>
 7    1  0.3795708E-015  0.9000773E+02  0.7816164E-02  0.1186339E+00
        -11   -1    0    0    0    0  0.00000000000E+00  0.00000000000E+00  0.45593999997E+02  0.45594000000E+02  0.51100000000E-03 0. -1.
         11   -1    0    0    0    0 -0.00000000000E+00 -0.00000000000E+00 -0.45593999997E+02  0.45594000000E+02  0.51100000000E-03 0.  1.
    9900012    2    1    2    0    0  0.11077494074E+01 -0.24641619106E+00 -0.32434652917E+00  0.90007732929E+02  0.89999994203E+02 0.  0.
         12    1    1    2    0    0 -0.11077494074E+01  0.24641619106E+00  0.32434652917E+00  0.11802670714E+01  0.00000000000E+00 0. -1.
         11    1    3    3    0    0 -0.42074391954E+01 -0.67250493518E+01 -0.49225958158E+01  0.93359939585E+01  0.51100000000E-03 0. -1.
        -11    1    3    3    0    0 -0.24676678953E+02  0.58833111824E+01 -0.27037199615E+02  0.37075085946E+02  0.51100000000E-03 0.  1.
         12    1    3    3    0    0  0.29991867555E+02  0.59532197836E+00  0.31635448902E+02  0.43596653024E+02  0.00000000000E+00 0. -1.
</event>
<event>
 7    1  0.3795708E-015  0.9000774E+02  0.7816164E-02  0.1186339E+00
        -11   -1    0    0    0    0  0.00000000000E+00  0.00000000000E+00  0.45593999997E+02  0.45594000000E+02  0.51100000000E-03 0. -1.
         11   -1    0    0    0    0 -0.00000000000E+00 -0.00000000000E+00 -0.45593999997E+02  0.45594000000E+02  0.51100000000E-03 0.  1.
    9900012    2    1    2    0    0 -0.77545049798E+00 -0.13313375274E+00 -0.87975459931E+00  0.90007738916E+02  0.90000000270E+02 0.  0.
         12    1    1    2    0    0  0.77545049798E+00  0.13313375274E+00  0.87975459931E+00  0.11802610838E+01  0.00000000000E+00 0. -1.
         11    1    3    3    0    0  0.35720919344E+01 -0.50176992297E+01  0.55328600327E+00  0.61841144888E+01  0.51100000000E-03 0. -1.
        -11    1    3    3    0    0  0.37586478871E+02  0.13867398403E+02 -0.66882115449E+01  0.40617487691E+02  0.51100000000E-03 0.  1.
         12    1    3    3    0    0 -0.41934021303E+02 -0.89828329264E+01  0.52551709423E+01  0.43206136736E+02  0.00000000000E+00 0. -1.
</event>
<event>
 7    1  0.3795708E-015  0.9000763E+02  0.7816164E-02  0.1186339E+00
        -11   -1    0    0    0    0  0.00000000000E+00  0.00000000000E+00  0.45593999997E+02  0.45594000000E+02  0.51100000000E-03 0.  1.
         11   -1    0    0    0    0 -0.00000000000E+00 -0.00000000000E+00 -0.45593999997E+02  0.45594000000E+02  0.51100000000E-03 0. -1.
    9900012    2    1    2    0    0  0.71063388944E-01 -0.10520754719E+01 -0.53043460525E+00  0.90007629857E+02  0.89999889771E+02 0.  0.
         12    1    1    2    0    0 -0.71063388944E-01  0.10520754719E+01  0.53043460525E+00  0.11803701429E+01  0.00000000000E+00 0. -1.
         11    1    3    3    0    0 -0.17509095547E+02  0.54655485293E+01  0.10347171805E+02  0.21059549193E+02  0.51100000000E-03 0. -1.
        -11    1    3    3    0    0 -0.23691040340E+02 -0.48238021264E+01  0.50122477171E+01  0.24691235019E+02  0.51100000000E-03 0.  1.
        -12    1    3    3    0    0  0.41271199276E+02 -0.16938218748E+01 -0.15889854127E+02  0.44256845644E+02  0.00000000000E+00 0.  1.
</event>
<event>
 7    1  0.3795708E-015  0.9000775E+02  0.7816164E-02  0.1186339E+00
        -11   -1    0    0    0    0  0.00000000000E+00  0.00000000000E+00  0.45593999997E+02  0.45594000000E+02  0.51100000000E-03 0.  1.
         11   -1    0    0    0    0 -0.00000000000E+00 -0.00000000000E+00 -0.45593999997E+02  0.45594000000E+02  0.51100000000E-03 0. -1.
    9900012    2    1    2    0    0  0.16748409888E+00  0.45180078107E+00  0.10774125549E+01  0.90007748890E+02  0.90000010375E+02 0.  0.
         12    1    1    2    0    0 -0.16748409888E+00 -0.45180078107E+00 -0.10774125549E+01  0.11802511100E+01  0.00000000000E+00 0. -1.
         11    1    3    3    0    0  0.23693006045E+01 -0.67829422379E+01 -0.39574663562E+01  0.82026478029E+01  0.51100000000E-03 0. -1.
        -11    1    3    3    0    0 -0.11866742550E+02 -0.85790718246E+01  0.39800072059E+02  0.42408322158E+02  0.51100000000E-03 0.  1.
         12    1    3    3    0    0  0.96649260442E+01  0.15813814844E+02 -0.34765193148E+02  0.39396778929E+02  0.00000000000E+00 0. -1.
</event>
<event>
 7    1  0.3795708E-015  0.9000775E+02  0.7816164E-02  0.1186339E+00
        -11   -1    0    0    0    0  0.00000000000E+00  0.00000000000E+00  0.45593999997E+02  0.45594000000E+02  0.51100000000E-03 0. -1.
         11   -1    0    0    0    0 -0.00000000000E+00 -0.00000000000E+00 -0.45593999997E+02  0.45594000000E+02  0.51100000000E-03 0.  1.
    9900012    2    1    2    0    0 -0.62757912629E+00 -0.90251160527E+00 -0.42965064112E+00  0.90007753233E+02  0.90000014776E+02 0.  0.
         12    1    1    2    0    0  0.62757912629E+00  0.90251160527E+00  0.42965064112E+00  0.11802467669E+01  0.00000000000E+00 0. -1.
         11    1    3    3    0    0  0.12297298928E+02  0.14879160537E+02 -0.10115844522E+02  0.21793193659E+02  0.51100000000E-03 0. -1.
        -11    1    3    3    0    0 -0.94318394475E+01  0.16990184270E+02 -0.16991080533E+02  0.25813228679E+02  0.51100000000E-03 0.  1.
         12    1    3    3    0    0 -0.34930386070E+01 -0.32771856413E+02  0.26677274414E+02  0.42401330894E+02  0.00000000000E+00 0. -1.
</event>
<event>
 7    1  0.3795708E-015  0.9000775E+02  0.7816164E-02  0.1186339E+00
        -11   -1    0    0    0    0  0.00000000000E+00  0.00000000000E+00  0.45593999997E+02  0.45594000000E+02  0.51100000000E-03 0. -1.
         11   -1    0    0    0    0 -0.00000000000E+00 -0.00000000000E+00 -0.45593999997E+02  0.45594000000E+02  0.51100000000E-03 0.  1.
    9900012    2    1    2    0    0 -0.84971341567E+00 -0.80290936860E+00  0.16219994979E+00  0.90007752074E+02  0.90000013601E+02 0.  0.
         12    1    1    2    0    0  0.84971341567E+00  0.80290936860E+00 -0.16219994979E+00  0.11802479259E+01  0.00000000000E+00 0. -1.
         11    1    3    3    0    0  0.17249508372E+02  0.17500753978E+01 -0.99078036452E+01  0.19969298343E+02  0.51100000000E-03 0. -1.
        -11    1    3    3    0    0  0.96525906921E+00  0.27933674499E+02 -0.89664551521E+01  0.29353350990E+02  0.51100000000E-03 0.  1.
         12    1    3    3    0    0 -0.19064480857E+02 -0.30486659265E+02  0.19036458747E+02  0.40685102742E+02  0.00000000000E+00 0. -1.
</event>
<event>
 7    1  0.3795708E-015  0.9000740E+02  0.7816164E-02  0.1186340E+00
        -11   -1    0    0    0    0  0.00000000000E+00  0.00000000000E+00  0.45593999997E+02  0.45594000000E+02  0.51100000000E-03 0.  1.
         11   -1    0    0    0    0 -0.00000000000E+00 -0.00000000000E+00 -0.45593999997E+02  0.45594000000E+02  0.51100000000E-03 0. -1.
    9900012    2    1    2    0    0 -0.51831294030E+00  0.64361823657E+00  0.84316791985E+00  0.90007396392E+02  0.89999653224E+02 0.  0.
         12    1    1    2    0    0  0.51831294030E+00 -0.64361823657E+00 -0.84316791985E+00  0.11806036082E+01  0.00000000000E+00 0. -1.
         11    1    3    3    0    0  0.79683538491E+01 -0.47425371527E-01  0.40529828400E+01  0.89399990153E+01  0.51100000000E-03 0. -1.
        -11    1    3    3    0    0 -0.32059478209E+02  0.99970961982E+01  0.25945263741E+02  0.42437115669E+02  0.51100000000E-03 0.  1.
         12    1    3    3    0    0  0.23572811420E+02 -0.93060525901E+01 -0.29155078662E+02  0.38630281707E+02  0.00000000000E+00 0. -1.
</event>
<event>
 7    1  0.3795708E-015  0.9000774E+02  0.7816164E-02  0.1186339E+00
        -11   -1    0    0    0    0  0.00000000000E+00  0.00000000000E+00  0.45593999997E+02  0.45594000000E+02  0.51100000000E-03 0. -1.
         11   -1    0    0    0    0 -0.00000000000E+00 -0.00000000000E+00 -0.45593999997E+02  0.45594000000E+02  0.51100000000E-03 0.  1.
    9900012    2    1    2    0    0  0.94839535610E+00  0.19853712543E+00 -0.67390498064E+00  0.90007737883E+02  0.89999999223E+02 0.  0.
         12    1    1    2    0    0 -0.94839535610E+00 -0.19853712543E+00  0.67390498064E+00  0.11802621169E+01  0.00000000000E+00 0. -1.
         11    1    3    3    0    0 -0.42501778849E+01  0.68540645468E+01  0.21280443374E+01  0.83409103716E+01  0.51100000000E-03 0. -1.
        -11    1    3    3    0    0  0.12133742331E+02 -0.12349036169E+02 -0.39902630768E+02  0.43496509512E+02  0.51100000000E-03 0.  1.
         12    1    3    3    0    0 -0.69351690900E+01  0.56935087477E+01  0.37100681450E+02  0.38170318000E+02  0.00000000000E+00 0. -1.
</event>
<event>
 7    1  0.3795708E-015  0.9000777E+02  0.7816164E-02  0.1186339E+00
        -11   -1    0    0    0    0  0.00000000000E+00  0.00000000000E+00  0.45593999997E+02  0.45594000000E+02  0.51100000000E-03 0. -1.
         11   -1    0    0    0    0 -0.00000000000E+00 -0.00000000000E+00 -0.45593999997E+02  0.45594000000E+02  0.51100000000E-03 0.  1.
    9900012    2    1    2    0    0 -0.79892745725E+00  0.84870113833E+00  0.18535671736E+00  0.90007772981E+02  0.90000034784E+02 0.  0.
         12    1    1    2    0    0  0.79892745725E+00 -0.84870113833E+00 -0.18535671736E+00  0.11802270192E+01  0.00000000000E+00 0. -1.
         11    1    3    3    0    0  0.21758287080E+02  0.12343618077E+02  0.34788237269E+02  0.42848680451E+02  0.51100000000E-03 0. -1.
        -11    1    3    3    0    0 -0.47545794590E+00 -0.86465231855E+01 -0.46241893654E+01  0.98169012934E+01  0.51100000000E-03 0.  1.
        -12    1    3    3    0    0 -0.22081756591E+02 -0.28483937532E+01 -0.29978691186E+02  0.37342191236E+02  0.00000000000E+00 0.  1.
</event>
<event>
 7    1  0.3795708E-015  0.9000770E+02  0.7816164E-02  0.1186339E+00
        -11   -1    0    0    0    0  0.00000000000E+00  0.00000000000E+00  0.45593999997E+02  0.45594000000E+02  0.51100000000E-03 0.  1.
         11   -1    0    0    0    0 -0.00000000000E+00 -0.00000000000E+00 -0.45593999997E+02  0.45594000000E+02  0.51100000000E-03 0. -1.
    9900012    2    1    2    0    0  0.73146401371E+00  0.84289115292E+00  0.38419489123E+00  0.90007698846E+02  0.89999959671E+02 0.  0.
         12    1    1    2    0    0 -0.73146401371E+00 -0.84289115292E+00 -0.38419489123E+00  0.11803011537E+01  0.00000000000E+00 0. -1.
         11    1    3    3    0    0 -0.77547952523E+01 -0.94661628489E+00  0.58232978213E+01  0.97439073052E+01  0.51100000000E-03 0. -1.
        -11    1    3    3    0    0 -0.11769982904E+02  0.33923903246E+02 -0.18115374898E+02  0.40218534496E+02  0.51100000000E-03 0.  1.
         12    1    3    3    0    0  0.20256242170E+02 -0.32134395809E+02  0.12676271968E+02  0.40045257045E+02  0.00000000000E+00 0. -1.
</event>
<event>
 7    1  0.3795708E-015  0.9000774E+02  0.7816164E-02  0.1186339E+00
        -11   -1    0    0    0    0  0.00000000000E+00  0.00000000000E+00  0.45593999997E+02  0.45594000000E+02  0.51100000000E-03 0. -1.
         11   -1    0    0    0    0 -0.00000000000E+00 -0.00000000000E+00 -0.45593999997E+02  0.45594000000E+02  0.51100000000E-03 0.  1.
    9900012    2    1    2    0    0 -0.67209722330E+00 -0.76177112043E+00  0.60083053378E+00  0.90007742720E+02  0.90000004124E+02 0.  0.
         12    1    1    2    0    0  0.67209722330E+00  0.76177112043E+00 -0.60083053378E+00  0.11802572803E+01  0.00000000000E+00 0. -1.
         11    1    3    3    0    0  0.55915928512E+01 -0.20168786677E+01 -0.72086204362E+01  0.93433355408E+01  0.51100000000E-03 0. -1.
        -11    1    3    3    0    0 -0.20461303623E+00  0.18473110610E+02 -0.31954869008E+02  0.36910856610E+02  0.51100000000E-03 0.  1.
         12    1    3    3    0    0 -0.60590770383E+01 -0.17218003063E+02  0.39764319978E+02  0.43753550569E+02  0.00000000000E+00 0. -1.
</event>
<event>
 7    1  0.3795708E-015  0.9000775E+02  0.7816164E-02  0.1186339E+00
        -11   -1    0    0    0    0  0.00000000000E+00  0.00000000000E+00  0.45593999997E+02  0.45594000000E+02  0.51100000000E-03 0.  1.
         11   -1    0    0    0    0 -0.00000000000E+00 -0.00000000000E+00 -0.45593999997E+02  0.45594000000E+02  0.51100000000E-03 0. -1.
    9900012    2    1    2    0    0  0.82324140354E+00 -0.76398989882E+00  0.36275868875E+00  0.90007745434E+02  0.90000006874E+02 0.  0.
         12    1    1    2    0    0 -0.82324140354E+00  0.76398989882E+00 -0.36275868875E+00  0.11802545659E+01  0.00000000000E+00 0. -1.
         11    1    3    3    0    0 -0.27568121124E+01 -0.94021467556E+01  0.38472464268E+01  0.10526237788E+02  0.51100000000E-03 0. -1.
        -11    1    3    3    0    0  0.35605831031E+02  0.13404929096E+02 -0.20164593777E+02  0.43059008000E+02  0.51100000000E-03 0.  1.
         12    1    3    3    0    0 -0.32025777515E+02 -0.47667722394E+01  0.16680106039E+02  0.36422499646E+02  0.00000000000E+00 0. -1.
</event>
<event>
 7    1  0.3795708E-015  0.9000758E+02  0.7816164E-02  0.1186339E+00
        -11   -1    0    0    0    0  0.00000000000E+00  0.00000000000E+00  0.45593999997E+02  0.45594000000E+02  0.51100000000E-03 0. -1.
         11   -1    0    0    0    0 -0.00000000000E+00 -0.00000000000E+00 -0.45593999997E+02  0.45594000000E+02  0.51100000000E-03 0.  1.
    9900012    2    1    2    0    0  0.45008324902E+00 -0.70223699048E-01 -0.10889883049E+01  0.90007575573E+02  0.89999834771E+02 0.  0.
         12    1    1    2    0    0 -0.45008324902E+00  0.70223699048E-01  0.10889883049E+01  0.11804244267E+01  0.00000000000E+00 0. -1.
         11    1    3    3    0    0 -0.34307225478E+01  0.11259617044E+01  0.61988604808E+01  0.71738078091E+01  0.51100000000E-03 0. -1.
        -11    1    3    3    0    0 -0.33419637688E+02  0.20450837546E+02 -0.63867688745E+01  0.39697603913E+02  0.51100000000E-03 0.  1.
         12    1    3    3    0    0  0.37300443485E+02 -0.21647022950E+02 -0.90107991120E+00  0.43136163851E+02  0.00000000000E+00 0. -1.
</event>
<event>
 7    1  0.3795708E-015  0.9000795E+02  0.7816164E-02  0.1186339E+00
        -11   -1    0    0    0    0  0.00000000000E+00  0.00000000000E+00  0.45593999997E+02  0.45594000000E+02  0.51100000000E-03 0.  1.
         11   -1    0    0    0    0 -0.00000000000E+00 -0.00000000000E+00 -0.45593999997E+02  0.45594000000E+02  0.51100000000E-03 0. -1.
    9900012    2    1    2    0    0  0.65896189981E-01  0.10177926357E+01  0.59353263594E+00  0.90007946973E+02  0.90000211073E+02 0.  0.
         12    1    1    2    0    0 -0.65896189981E-01 -0.10177926357E+01 -0.59353263594E+00  0.11800530272E+01  0.00000000000E+00 0. -1.
         11    1    3    3    0    0  0.39179539307E+02  0.41382121399E+01  0.96516566580E+00  0.39409296430E+02  0.51100000000E-03 0. -1.
        -11    1    3    3    0    0 -0.12199438892E+01 -0.51748358119E+01  0.99406437759E+01  0.11273135665E+02  0.51100000000E-03 0.  1.
        -12    1    3    3    0    0 -0.37893699228E+02  0.20544163077E+01 -0.10312276806E+02  0.39325514879E+02  0.00000000000E+00 0.  1.
</event>
<event>
 7    1  0.3795708E-015  0.9000776E+02  0.7816164E-02  0.1186339E+00
        -11   -1    0    0    0    0  0.00000000000E+00  0.00000000000E+00  0.45593999997E+02  0.45594000000E+02  0.51100000000E-03 0.  1.
         11   -1    0    0    0    0 -0.00000000000E+00 -0.00000000000E+00 -0.45593999997E+02  0.45594000000E+02  0.51100000000E-03 0. -1.
    9900012    2    1    2    0    0  0.80125649381E+00 -0.46191798004E-01  0.86533935674E+00  0.90007763645E+02  0.90000025325E+02 0.  0.
         12    1    1    2    0    0 -0.80125649381E+00  0.46191798004E-01 -0.86533935674E+00  0.11802363549E+01  0.00000000000E+00 0. -1.
         11    1    3    3    0    0 -0.19874142897E+01  0.24281383060E+01  0.95372867712E+01  0.10040194740E+02  0.51100000000E-03 0. -1.
        -11    1    3    3    0    0  0.33477874111E+02  0.16819303307E+02  0.10568845515E+02  0.38927593228E+02  0.51100000000E-03 0.  1.
         12    1    3    3    0    0 -0.30689203328E+02 -0.19293633411E+02 -0.19240792929E+02  0.41039975678E+02  0.00000000000E+00 0. -1.
</event>
<event>
 7    1  0.3795708E-015  0.9000773E+02  0.7816164E-02  0.1186339E+00
        -11   -1    0    0    0    0  0.00000000000E+00  0.00000000000E+00  0.45593999997E+02  0.45594000000E+02  0.51100000000E-03 0.  1.
         11   -1    0    0    0    0 -0.00000000000E+00 -0.00000000000E+00 -0.45593999997E+02  0.45594000000E+02  0.51100000000E-03 0. -1.
    9900012    2    1    2    0    0 -0.29138114970E+00 -0.21538415816E+00  0.11232721864E+01  0.90007731507E+02  0.89999992763E+02 0.  0.
         12    1    1    2    0    0  0.29138114970E+00  0.21538415816E+00 -0.11232721864E+01  0.11802684926E+01  0.00000000000E+00 0. -1.
         11    1    3    3    0    0 -0.17616376650E+01  0.57774995352E+01 -0.41733471094E+01  0.73416411311E+01  0.51100000000E-03 0. -1.
        -11    1    3    3    0    0 -0.24850084190E+02  0.13252213243E+02 -0.25369873331E+02  0.37904858702E+02  0.51100000000E-03 0.  1.
         12    1    3    3    0    0  0.26320340706E+02 -0.19245096937E+02  0.30666492627E+02  0.44761231674E+02  0.00000000000E+00 0. -1.
</event>
<event>
 7    1  0.3795708E-015  0.9000738E+02  0.7816164E-02  0.1186340E+00
        -11   -1    0    0    0    0  0.00000000000E+00  0.00000000000E+00  0.45593999997E+02  0.45594000000E+02  0.51100000000E-03 0.  1.
         11   -1    0    0    0    0 -0.00000000000E+00 -0.00000000000E+00 -0.45593999997E+02  0.45594000000E+02  0.51100000000E-03 0. -1.
    9900012    2    1    2    0    0  0.26797146247E+00 -0.96910816323E-01  0.11457121512E+01  0.90007382897E+02  0.89999639550E+02 0.  0.
         12    1    1    2    0    0 -0.26797146247E+00  0.96910816323E-01 -0.11457121512E+01  0.11806171032E+01  0.00000000000E+00 0. -1.
         11    1    3    3    0    0 -0.29021420949E+02 -0.11027786585E+02 -0.27167690480E+02  0.41254555593E+02  0.51100000000E-03 0. -1.
        -11    1    3    3    0    0  0.29600643291E+00  0.10680648876E+02  0.71556075509E+01  0.12859494543E+02  0.51100000000E-03 0.  1.
        -12    1    3    3    0    0  0.28993385979E+02  0.25022689310E+00  0.21157795080E+02  0.35893332761E+02  0.00000000000E+00 0.  1.
</event>
<event>
 7    1  0.3795708E-015  0.9000776E+02  0.7816164E-02  0.1186339E+00
        -11   -1    0    0    0    0  0.00000000000E+00  0.00000000000E+00  0.45593999997E+02  0.45594000000E+02  0.51100000000E-03 0.  1.
         11   -1    0    0    0    0 -0.00000000000E+00 -0.00000000000E+00 -0.45593999997E+02  0.45594000000E+02  0.51100000000E-03 0. -1.
    9900012    2    1    2    0    0  0.10234577529E+01  0.16684072279E+00 -0.56360836983E+00  0.90007764433E+02  0.90000026124E+02 0.  0.
         12    1    1    2    0    0 -0.10234577529E+01 -0.16684072279E+00  0.56360836983E+00  0.11802355669E+01  0.00000000000E+00 0. -1.
         11    1    3    3    0    0  0.87947865500E+01  0.82160829592E-01  0.79917501567E+01  0.11883732229E+02  0.51100000000E-03 0. -1.
        -11    1    3    3    0    0  0.21386820415E+02  0.15860152077E+02 -0.28845507725E+02  0.39255621604E+02  0.51100000000E-03 0.  1.
         12    1    3    3    0    0 -0.29158149212E+02 -0.15775472184E+02  0.20290149198E+02  0.38868410600E+02  0.00000000000E+00 0. -1.
</event>
<event>
 7    1  0.3795708E-015  0.9000801E+02  0.7816164E-02  0.1186339E+00
        -11   -1    0    0    0    0  0.00000000000E+00  0.00000000000E+00  0.45593999997E+02  0.45594000000E+02  0.51100000000E-03 0.  1.
         11   -1    0    0    0    0 -0.00000000000E+00 -0.00000000000E+00 -0.45593999997E+02  0.45594000000E+02  0.51100000000E-03 0. -1.
    9900012    2    1    2    0    0  0.25700199287E+00 -0.74627008787E+00  0.87715962095E+00  0.90008009293E+02  0.90000274215E+02 0.  0.
         12    1    1    2    0    0 -0.25700199287E+00  0.74627008787E+00 -0.87715962095E+00  0.11799907072E+01  0.00000000000E+00 0. -1.
         11    1    3    3    0    0 -0.30420996605E+01  0.36685834688E+01 -0.29881025386E+02  0.30258693848E+02  0.51100000000E-03 0. -1.
        -11    1    3    3    0    0 -0.58492613941E+01 -0.17421030503E+02 -0.62975276264E+01  0.19425885233E+02  0.51100000000E-03 0.  1.
        -12    1    3    3    0    0  0.91483630474E+01  0.13006176946E+02  0.37055712634E+02  0.40323430211E+02  0.00000000000E+00 0.  1.
</event>
<event>
 7    1  0.3795708E-015  0.9000778E+02  0.7816164E-02  0.1186339E+00
        -11   -1    0    0    0    0  0.00000000000E+00  0.00000000000E+00  0.45593999997E+02  0.45594000000E+02  0.51100000000E-03 0.  1.
         11   -1    0    0    0    0 -0.00000000000E+00 -0.00000000000E+00 -0.45593999997E+02  0.45594000000E+02  0.51100000000E-03 0. -1.
    9900012    2    1    2    0    0  0.23312950207E+00 -0.72671217035E+00  0.90025401771E+00  0.90007780851E+02  0.90000042758E+02 0.  0.
         12    1    1    2    0    0 -0.23312950207E+00  0.72671217035E+00 -0.90025401771E+00  0.11802191490E+01  0.00000000000E+00 0. -1.
         11    1    3    3    0    0  0.16672077828E+02  0.14848189568E+02 -0.22196954559E+02  0.31482244274E+02  0.51100000000E-03 0. -1.
        -11    1    3    3    0    0 -0.98874363923E+01 -0.35537812567E+01 -0.14846139706E+02  0.18187870245E+02  0.51100000000E-03 0.  1.
        -12    1    3    3    0    0 -0.65515119335E+01 -0.12021120482E+02  0.37943348282E+02  0.40337666332E+02  0.00000000000E+00 0.  1.
</event>
<event>
 7    1  0.3795708E-015  0.9000734E+02  0.7816164E-02  0.1186340E+00
        -11   -1    0    0    0    0  0.00000000000E+00  0.00000000000E+00  0.45593999997E+02  0.45594000000E+02  0.51100000000E-03 0.  1.
         11   -1    0    0    0    0 -0.00000000000E+00 -0.00000000000E+00 -0.45593999997E+02  0.45594000000E+02  0.51100000000E-03 0. -1.
    9900012    2    1    2    0    0 -0.18299970734E+00  0.63264424745E+00  0.97991432551E+00  0.90007339286E+02  0.89999595363E+02 0.  0.
         12    1    1    2    0    0  0.18299970734E+00 -0.63264424745E+00 -0.97991432551E+00  0.11806607142E+01  0.00000000000E+00 0. -1.
         11    1    3    3    0    0  0.61550164823E+01 -0.90558052582E+01  0.98675705585E+01  0.14739768850E+02  0.51100000000E-03 0. -1.
        -11    1    3    3    0    0  0.27556533135E+02 -0.88055769454E+01 -0.19903880665E+02  0.35115027689E+02  0.51100000000E-03 0.  1.
         12    1    3    3    0    0 -0.33894549325E+02  0.18494026451E+02  0.11016224432E+02  0.40152542747E+02  0.00000000000E+00 0. -1.
</event>
<event>
 7    1  0.3795708E-015  0.9000773E+02  0.7816164E-02  0.1186339E+00
        -11   -1    0    0    0    0  0.00000000000E+00  0.00000000000E+00  0.45593999997E+02  0.45594000000E+02  0.51100000000E-03 0.  1.
         11   -1    0    0    0    0 -0.00000000000E+00 -0.00000000000E+00 -0.45593999997E+02  0.45594000000E+02  0.51100000000E-03 0. -1.
    9900012    2    1    2    0    0  0.99820319642E+00 -0.48249290130E+00 -0.40476048381E+00  0.90007728815E+02  0.89999990035E+02 0.  0.
         12    1    1    2    0    0 -0.99820319642E+00  0.48249290130E+00  0.40476048381E+00  0.11802711851E+01  0.00000000000E+00 0. -1.
         11    1    3    3    0    0 -0.67147112733E+01 -0.70831325881E+01 -0.17614494942E+01  0.99177023209E+01  0.51100000000E-03 0. -1.
        -11    1    3    3    0    0  0.34912866535E+02  0.99003826711E+01 -0.23386071792E+02  0.43172145891E+02  0.51100000000E-03 0.  1.
         12    1    3    3    0    0 -0.27199952065E+02 -0.32997429843E+01  0.24742760802E+02  0.36917880603E+02  0.00000000000E+00 0. -1.
</event>
<event>
 7    1  0.3795708E-015  0.9000767E+02  0.7816164E-02  0.1186339E+00
        -11   -1    0    0    0    0  0.00000000000E+00  0.00000000000E+00  0.45593999997E+02  0.45594000000E+02  0.51100000000E-03 0. -1.
         11   -1    0    0    0    0 -0.00000000000E+00 -0.00000000000E+00 -0.45593999997E+02  0.45594000000E+02  0.51100000000E-03 0.  1.
    9900012    2    1    2    0    0 -0.34286487996E+00 -0.78453340271E+00 -0.81249089621E+00  0.90007665114E+02  0.89999925494E+02 0.  0.
         12    1    1    2    0    0  0.34286487996E+00  0.78453340271E+00  0.81249089621E+00  0.11803348857E+01  0.00000000000E+00 0. -1.
         11    1    3    3    0    0  0.32888494166E+01 -0.74197643142E+01  0.51085625636E+01  0.95899345509E+01  0.51100000000E-03 0. -1.
        -11    1    3    3    0    0  0.17170807949E+02 -0.29097045310E+02 -0.16702138730E+02  0.37688673760E+02  0.51100000000E-03 0.  1.
         12    1    3    3    0    0 -0.20802522245E+02  0.35732276221E+02  0.10781085270E+02  0.42729056803E+02  0.00000000000E+00 0. -1.
</event>
<event>
 7    1  0.3795708E-015  0.9000777E+02  0.7816164E-02  0.1186339E+00
        -11   -1    0    0    0    0  0.00000000000E+00  0.00000000000E+00  0.45593999997E+02  0.45594000000E+02  0.51100000000E-03 0.  1.
         11   -1    0    0    0    0 -0.00000000000E+00 -0.00000000000E+00 -0.45593999997E+02  0.45594000000E+02  0.51100000000E-03 0. -1.
    9900012    2    1    2    0    0 -0.18269650548E+00  0.11236202899E+01 -0.31150782239E+00  0.90007772186E+02  0.90000033979E+02 0.  0.
         12    1    1    2    0    0  0.18269650548E+00 -0.11236202899E+01  0.31150782239E+00  0.11802278138E+01  0.00000000000E+00 0. -1.
         11    1    3    3    0    0 -0.12032266697E+02 -0.93541382150E+01 -0.72363518539E+01  0.16871281280E+02  0.51100000000E-03 0. -1.
        -11    1    3    3    0    0  0.28906653886E+02 -0.21484262176E+02 -0.10865999921E+01  0.36032608286E+02  0.51100000000E-03 0.  1.
         12    1    3    3    0    0 -0.17057083695E+02  0.31962020681E+02  0.80114440237E+01  0.37103882620E+02  0.00000000000E+00 0. -1.
</event>
<event>
 7    1  0.3795708E-015  0.9000750E+02  0.7816164E-02  0.1186340E+00
        -11   -1    0    0    0    0  0.00000000000E+00  0.00000000000E+00  0.45593999997E+02  0.45594000000E+02  0.51100000000E-03 0.  1.
         11   -1    0    0    0    0 -0.00000000000E+00 -0.00000000000E+00 -0.45593999997E+02  0.45594000000E+02  0.51100000000E-03 0. -1.
    9900012    2    1    2    0    0 -0.33545732713E-01  0.50204843316E+00  0.10678931430E+01  0.90007502770E+02  0.89999761006E+02 0.  0.
         12    1    1    2    0    0  0.33545732713E-01 -0.50204843316E+00 -0.10678931430E+01  0.11804972301E+01  0.00000000000E+00 0. -1.
         11    1    3    3    0    0 -0.80845102124E+01 -0.15491404359E+02 -0.90641709728E+01  0.19685073281E+02  0.51100000000E-03 0. -1.
        -11    1    3    3    0    0 -0.60474284555E+01 -0.23649199763E+02 -0.62059279297E+01  0.25186694544E+02  0.51100000000E-03 0.  1.
         12    1    3    3    0    0  0.14098392935E+02  0.39642652555E+02  0.16337992046E+02  0.45135734945E+02  0.00000000000E+00 0. -1.
</event>
<event>
 7    1  0.3795708E-015  0.9000782E+02  0.7816164E-02  0.1186339E+00
        -11   -1    0    0    0    0  0.00000000000E+00  0.00000000000E+00  0.45593999997E+02  0.45594000000E+02  0.51100000000E-03 0.  1.
         11   -1    0    0    0    0 -0.00000000000E+00 -0.00000000000E+00 -0.45593999997E+02  0.45594000000E+02  0.51100000000E-03 0. -1.
    9900012    2    1    2    0    0 -0.13722293885E+00  0.21080877774E+00  0.11530655444E+01  0.90007817546E+02  0.90000079937E+02 0.  0.
         12    1    1    2    0    0  0.13722293885E+00 -0.21080877774E+00 -0.11530655444E+01  0.11801824543E+01  0.00000000000E+00 0. -1.
         11    1    3    3    0    0  0.67923883691E+01  0.11794192545E-01 -0.34613594502E+01  0.76234958100E+01  0.51100000000E-03 0. -1.
        -11    1    3    3    0    0  0.35071238245E+02 -0.11471199596E+02  0.10578971193E+02  0.38386127755E+02  0.51100000000E-03 0.  1.
         12    1    3    3    0    0 -0.42000849553E+02  0.11670214181E+02 -0.59645461981E+01  0.43998193981E+02  0.00000000000E+00 0. -1.
</event>
<event>
 7    1  0.3795708E-015  0.9000783E+02  0.7816164E-02  0.1186339E+00
        -11   -1    0    0    0    0  0.00000000000E+00  0.00000000000E+00  0.45593999997E+02  0.45594000000E+02  0.51100000000E-03 0.  1.
         11   -1    0    0    0    0 -0.00000000000E+00 -0.00000000000E+00 -0.45593999997E+02  0.45594000000E+02  0.51100000000E-03 0. -1.
    9900012    2    1    2    0    0 -0.31674475072E+00 -0.74167557256E+00  0.86162210608E+00  0.90007829442E+02  0.90000091991E+02 0.  0.
         12    1    1    2    0    0  0.31674475072E+00  0.74167557256E+00 -0.86162210608E+00  0.11801705579E+01  0.00000000000E+00 0. -1.
         11    1    3    3    0    0 -0.26576364980E+01  0.90207844433E+01  0.35022654681E+01  0.10035110732E+02  0.51100000000E-03 0. -1.
        -11    1    3    3    0    0 -0.65223912659E+01  0.16109372404E+02  0.31652543531E+02  0.36110067562E+02  0.51100000000E-03 0.  1.
         12    1    3    3    0    0  0.88632830132E+01 -0.25871832420E+02 -0.34293186893E+02  0.43862651149E+02  0.00000000000E+00 0. -1.
</event>
<event>
 7    1  0.3795708E-015  0.9000777E+02  0.7816164E-02  0.1186339E+00
        -11   -1    0    0    0    0  0.00000000000E+00  0.00000000000E+00  0.45593999997E+02  0.45594000000E+02  0.51100000000E-03 0.  1.
         11   -1    0    0    0    0 -0.00000000000E+00 -0.00000000000E+00 -0.45593999997E+02  0.45594000000E+02  0.51100000000E-03 0. -1.
    9900012    2    1    2    0    0  0.84300395634E+00 -0.57883393651E+00  0.58927791213E+00  0.90007765763E+02  0.90000027471E+02 0.  0.
         12    1    1    2    0    0 -0.84300395634E+00  0.57883393651E+00 -0.58927791213E+00  0.11802342370E+01  0.00000000000E+00 0. -1.
         11    1    3    3    0    0  0.41418931137E+02  0.60516403010E+01 -0.90212082266E+01  0.42819766522E+02  0.51100000000E-03 0. -1.
        -11    1    3    3    0    0 -0.66952147969E+01 -0.10122960883E+02  0.23314477827E+01  0.12358636140E+02  0.51100000000E-03 0.  1.
        -12    1    3    3    0    0 -0.33880712384E+02  0.34924866455E+01  0.72790383560E+01  0.34829363101E+02  0.00000000000E+00 0.  1.
</event>
<event>
 7    1  0.3795708E-015  0.9000786E+02  0.7816164E-02  0.1186339E+00
        -11   -1    0    0    0    0  0.00000000000E+00  0.00000000000E+00  0.45593999997E+02  0.45594000000E+02  0.51100000000E-03 0.  1.
         11   -1    0    0    0    0 -0.00000000000E+00 -0.00000000000E+00 -0.45593999997E+02  0.45594000000E+02  0.51100000000E-03 0. -1.
    9900012    2    1    2    0    0  0.11241623333E+01  0.35833087656E+00  0.24060051658E-01  0.90007864052E+02  0.90000127058E+02 0.  0.
         12    1    1    2    0    0 -0.11241623333E+01 -0.35833087656E+00 -0.24060051658E-01  0.11801359476E+01  0.00000000000E+00 0. -1.
         11    1    3    3    0    0  0.59189692076E+01 -0.77414126078E+01  0.14178326908E+01  0.98475334701E+01  0.51100000000E-03 0. -1.
        -11    1    3    3    0    0 -0.15831011495E+01  0.18478575987E+02 -0.37833892011E+02  0.42135108458E+02  0.51100000000E-03 0.  1.
         12    1    3    3    0    0 -0.32117057248E+01 -0.10378832502E+02  0.36440119372E+02  0.38025222125E+02  0.00000000000E+00 0. -1.
</event>
<event>
 7    1  0.3795708E-015  0.9000768E+02  0.7816164E-02  0.1186339E+00
        -11   -1    0    0    0    0  0.00000000000E+00  0.00000000000E+00  0.45593999997E+02  0.45594000000E+02  0.51100000000E-03 0.  1.
         11   -1    0    0    0    0 -0.00000000000E+00 -0.00000000000E+00 -0.45593999997E+02  0.45594000000E+02  0.51100000000E-03 0. -1.
    9900012    2    1    2    0    0  0.16443917438E+00 -0.11673096199E+01 -0.59196918125E-01  0.90007679592E+02  0.89999940162E+02 0.  0.
         12    1    1    2    0    0 -0.16443917438E+00  0.11673096199E+01  0.59196918125E-01  0.11803204081E+01  0.00000000000E+00 0. -1.
         11    1    3    3    0    0 -0.11990140705E+01  0.62079051873E+01 -0.58603307149E+01  0.86208583044E+01  0.51100000000E-03 0. -1.
        -11    1    3    3    0    0 -0.25143783372E+02  0.19118196097E+02  0.24052372025E+02  0.39701786667E+02  0.51100000000E-03 0.  1.
         12    1    3    3    0    0  0.26507236617E+02 -0.26493410904E+02 -0.18251238228E+02  0.41685034620E+02  0.00000000000E+00 0. -1.
</event>
<event>
 7    1  0.3795708E-015  0.9000772E+02  0.7816164E-02  0.1186339E+00
        -11   -1    0    0    0    0  0.00000000000E+00  0.00000000000E+00  0.45593999997E+02  0.45594000000E+02  0.51100000000E-03 0.  1.
         11   -1    0    0    0    0 -0.00000000000E+00 -0.00000000000E+00 -0.45593999997E+02  0.45594000000E+02  0.51100000000E-03 0. -1.
    9900012    2    1    2    0    0  0.87493480773E+00 -0.79108225650E+00 -0.41738687379E-01  0.90007718605E+02  0.89999979690E+02 0.  0.
         12    1    1    2    0    0 -0.87493480773E+00  0.79108225650E+00  0.41738687379E-01  0.11802813954E+01  0.00000000000E+00 0. -1.
         11    1    3    3    0    0  0.34375047472E+01 -0.72170842326E+01 -0.37929193417E+02  0.38762436162E+02  0.51100000000E-03 0. -1.
        -11    1    3    3    0    0  0.95181262895E+01  0.46744226926E+01 -0.84223330455E+00  0.10637401599E+02  0.51100000000E-03 0.  1.
        -12    1    3    3    0    0 -0.12080696229E+02  0.17515792834E+01  0.38729688034E+02  0.40607880843E+02  0.00000000000E+00 0.  1.
</event>
<event>
 7    1  0.3795708E-015  0.9000767E+02  0.7816164E-02  0.1186339E+00
        -11   -1    0    0    0    0  0.00000000000E+00  0.00000000000E+00  0.45593999997E+02  0.45594000000E+02  0.51100000000E-03 0.  1.
         11   -1    0    0    0    0 -0.00000000000E+00 -0.00000000000E+00 -0.45593999997E+02  0.45594000000E+02  0.51100000000E-03 0. -1.
    9900012    2    1    2    0    0 -0.12217863237E+00 -0.62525784393E+00  0.99363088121E+00  0.90007670674E+02  0.89999931127E+02 0.  0.
         12    1    1    2    0    0  0.12217863237E+00  0.62525784393E+00 -0.99363088121E+00  0.11803293260E+01  0.00000000000E+00 0. -1.
         11    1    3    3    0    0 -0.66789203179E+01  0.40062260027E+01  0.61017426934E+01  0.98938914263E+01  0.51100000000E-03 0. -1.
        -11    1    3    3    0    0  0.13517059053E+02 -0.15856382245E+02  0.33420853515E+02  0.39383869709E+02  0.51100000000E-03 0.  1.
         12    1    3    3    0    0 -0.69603173675E+01  0.11224898398E+02 -0.38528965327E+02  0.40729909539E+02  0.00000000000E+00 0. -1.
</event>
<event>
 7    1  0.3795708E-015  0.9000773E+02  0.7816164E-02  0.1186339E+00
        -11   -1    0    0    0    0  0.00000000000E+00  0.00000000000E+00  0.45593999997E+02  0.45594000000E+02  0.51100000000E-03 0. -1.
         11   -1    0    0    0    0 -0.00000000000E+00 -0.00000000000E+00 -0.45593999997E+02  0.45594000000E+02  0.51100000000E-03 0.  1.
    9900012    2    1    2    0    0  0.11690429658E+00  0.36556989055E+00 -0.11161276322E+01  0.90007725095E+02  0.89999986267E+02 0.  0.
         12    1    1    2    0    0 -0.11690429658E+00 -0.36556989055E+00  0.11161276322E+01  0.11802749047E+01  0.00000000000E+00 0. -1.
         11    1    3    3    0    0 -0.30964292268E+02 -0.19982329550E+02  0.16340901342E+02  0.40312602829E+02  0.51100000000E-03 0. -1.
        -11    1    3    3    0    0  0.19218801978E+02 -0.22811575609E+01 -0.11561634537E+01  0.19388211457E+02  0.51100000000E-03 0.  1.
        -12    1    3    3    0    0  0.11862394586E+02  0.22629057002E+02 -0.16300865520E+02  0.30306910810E+02  0.00000000000E+00 0.  1.
</event>
<event>
 7    1  0.3795708E-015  0.9000778E+02  0.7816164E-02  0.1186339E+00
        -11   -1    0    0    0    0  0.00000000000E+00  0.00000000000E+00  0.45593999997E+02  0.45594000000E+02  0.51100000000E-03 0. -1.
         11   -1    0    0    0    0 -0.00000000000E+00 -0.00000000000E+00 -0.45593999997E+02  0.45594000000E+02  0.51100000000E-03 0.  1.
    9900012    2    1    2    0    0  0.30600257447E+00 -0.75279507917E+00 -0.85590781837E+00  0.90007781291E+02  0.90000043204E+02 0.  0.
         12    1    1    2    0    0 -0.30600257447E+00  0.75279507917E+00  0.85590781837E+00  0.11802187087E+01  0.00000000000E+00 0. -1.
         11    1    3    3    0    0  0.74778236669E+01  0.15265495279E+01  0.11319607726E+02  0.13652169044E+02  0.51100000000E-03 0. -1.
        -11    1    3    3    0    0  0.57960476519E+01  0.10728731992E+02 -0.40667402598E+02  0.42456300980E+02  0.51100000000E-03 0.  1.
         12    1    3    3    0    0 -0.12967868744E+02 -0.13008076599E+02  0.28491887053E+02  0.33899311268E+02  0.00000000000E+00 0. -1.
</event>
<event>
 7    1  0.3795708E-015  0.9000777E+02  0.7816164E-02  0.1186339E+00
        -11   -1    0    0    0    0  0.00000000000E+00  0.00000000000E+00  0.45593999997E+02  0.45594000000E+02  0.51100000000E-03 0. -1.
         11   -1    0    0    0    0 -0.00000000000E+00 -0.00000000000E+00 -0.45593999997E+02  0.45594000000E+02  0.51100000000E-03 0.  1.
    9900012    2    1    2    0    0  0.60772934130E-01  0.66537881263E+00 -0.97289635900E+00  0.90007767125E+02  0.90000028851E+02 0.  0.
         12    1    1    2    0    0 -0.60772934130E-01 -0.66537881263E+00  0.97289635900E+00  0.11802328750E+01  0.00000000000E+00 0. -1.
         11    1    3    3    0    0 -0.12659430698E+02 -0.72373506900E+00 -0.20405351323E+01  0.12843237985E+02  0.51100000000E-03 0. -1.
        -11    1    3    3    0    0 -0.26432206938E+02 -0.12394304099E+02 -0.14795271874E+02  0.32728892554E+02  0.51100000000E-03 0.  1.
         12    1    3    3    0    0  0.39152410570E+02  0.13783417981E+02  0.15862910647E+02  0.44435636587E+02  0.00000000000E+00 0. -1.
</event>
<event>
 7    1  0.3795708E-015  0.9000778E+02  0.7816164E-02  0.1186339E+00
        -11   -1    0    0    0    0  0.00000000000E+00  0.00000000000E+00  0.45593999997E+02  0.45594000000E+02  0.51100000000E-03 0. -1.
         11   -1    0    0    0    0 -0.00000000000E+00 -0.00000000000E+00 -0.45593999997E+02  0.45594000000E+02  0.51100000000E-03 0.  1.
    9900012    2    1    2    0    0 -0.10184663898E+01 -0.56386670161E+00 -0.19413882864E+00  0.90007784202E+02  0.90000046154E+02 0.  0.
         12    1    1    2    0    0  0.10184663898E+01  0.56386670161E+00  0.19413882864E+00  0.11802157977E+01  0.00000000000E+00 0. -1.
         11    1    3    3    0    0  0.18202958781E+02  0.31669850742E+02  0.11092924340E+02  0.38175648326E+02  0.51100000000E-03 0. -1.
        -11    1    3    3    0    0  0.87606347529E+01 -0.15638174156E+01 -0.36513470343E+01  0.96190738436E+01  0.51100000000E-03 0.  1.
        -12    1    3    3    0    0 -0.27982059924E+02 -0.30669900028E+02 -0.76357161339E+01  0.42213062033E+02  0.00000000000E+00 0.  1.
</event>
<event>
 7    1  0.3795708E-015  0.9000721E+02  0.7816164E-02  0.1186340E+00
        -11   -1    0    0    0    0  0.00000000000E+00  0.00000000000E+00  0.45593999997E+02  0.45594000000E+02  0.51100000000E-03 0. -1.
         11   -1    0    0    0    0 -0.00000000000E+00 -0.00000000000E+00 -0.45593999997E+02  0.45594000000E+02  0.51100000000E-03 0.  1.
    9900012    2    1    2    0    0  0.27526033229E-01 -0.24184430600E+00 -0.11554269163E+01  0.90007213097E+02  0.89999467509E+02 0.  0.
         12    1    1    2    0    0 -0.27526033229E-01  0.24184430600E+00  0.11554269163E+01  0.11807869027E+01  0.00000000000E+00 0. -1.
         11    1    3    3    0    0  0.34908320927E+02  0.18818128929E+02 -0.14424387113E+02  0.42199239213E+02  0.51100000000E-03 0. -1.
        -11    1    3    3    0    0 -0.51721888184E+01  0.51370210165E+01  0.42749734453E+01  0.84507940642E+01  0.51100000000E-03 0.  1.
        -12    1    3    3    0    0 -0.29708606075E+02 -0.24196994252E+02  0.89939867512E+01  0.39357179820E+02  0.00000000000E+00 0.  1.
</event>
<event>
 7    1  0.3795708E-015  0.9000788E+02  0.7816164E-02  0.1186339E+00
        -11   -1    0    0    0    0  0.00000000000E+00  0.00000000000E+00  0.45593999997E+02  0.45594000000E+02  0.51100000000E-03 0. -1.
         11   -1    0    0    0    0 -0.00000000000E+00 -0.00000000000E+00 -0.45593999997E+02  0.45594000000E+02  0.51100000000E-03 0.  1.
    9900012    2    1    2    0    0 -0.94460507596E+00 -0.58090276543E+00 -0.40369147754E+00  0.90007875608E+02  0.90000138766E+02 0.  0.
         12    1    1    2    0    0  0.94460507596E+00  0.58090276543E+00  0.40369147754E+00  0.11801243924E+01  0.00000000000E+00 0. -1.
         11    1    3    3    0    0 -0.38187329496E+01 -0.34766994791E+01  0.83461845357E+01  0.98147316404E+01  0.51100000000E-03 0. -1.
        -11    1    3    3    0    0 -0.35958520188E+02 -0.69040481589E+01  0.67795281467E+01  0.37237656441E+02  0.51100000000E-03 0.  1.
         12    1    3    3    0    0  0.38832648062E+02  0.97998448726E+01 -0.15529404160E+02  0.42955487526E+02  0.00000000000E+00 0. -1.
</event>
<event>
 7    1  0.3795708E-015  0.9000762E+02  0.7816164E-02  0.1186339E+00
        -11   -1    0    0    0    0  0.00000000000E+00  0.00000000000E+00  0.45593999997E+02  0.45594000000E+02  0.51100000000E-03 0.  1.
         11   -1    0    0    0    0 -0.00000000000E+00 -0.00000000000E+00 -0.45593999997E+02  0.45594000000E+02  0.51100000000E-03 0. -1.
    9900012    2    1    2    0    0  0.86854941119E+00 -0.73970343062E+00  0.30291803528E+00  0.90007619307E+02  0.89999879081E+02 0.  0.
         12    1    1    2    0    0 -0.86854941119E+00  0.73970343062E+00 -0.30291803528E+00  0.11803806933E+01  0.00000000000E+00 0. -1.
         11    1    3    3    0    0  0.30860139693E+02 -0.14039039430E+02 -0.35875396543E+01  0.34092716099E+02  0.51100000000E-03 0. -1.
        -11    1    3    3    0    0  0.53497157734E+01 -0.57491209765E+00 -0.13218007282E+02  0.14271149202E+02  0.51100000000E-03 0.  1.
        -12    1    3    3    0    0 -0.35341306055E+02  0.13874248097E+02  0.17108464972E+02  0.41643754005E+02  0.00000000000E+00 0.  1.
</event>
<event>
 7    1  0.3795708E-015  0.9000764E+02  0.7816164E-02  0.1186339E+00
        -11   -1    0    0    0    0  0.00000000000E+00  0.00000000000E+00  0.45593999997E+02  0.45594000000E+02  0.51100000000E-03 0. -1.
         11   -1    0    0    0    0 -0.00000000000E+00 -0.00000000000E+00 -0.45593999997E+02  0.45594000000E+02  0.51100000000E-03 0.  1.
    9900012    2    1    2    0    0  0.14951360224E+00 -0.11273787562E+01 -0.31609080276E+00  0.90007639643E+02  0.89999899686E+02 0.  0.
         12    1    1    2    0    0 -0.14951360224E+00  0.11273787562E+01  0.31609080276E+00  0.11803603571E+01  0.00000000000E+00 0. -1.
         11    1    3    3    0    0 -0.11175107829E+02 -0.18343352792E+02  0.29962448252E+02  0.36866108178E+02  0.51100000000E-03 0. -1.
        -11    1    3    3    0    0 -0.97677145451E+01 -0.11433290345E+01  0.24088011742E+01  0.10125106028E+02  0.51100000000E-03 0.  1.
        -12    1    3    3    0    0  0.21092335977E+02  0.18359303070E+02 -0.32687340229E+02  0.43016425438E+02  0.00000000000E+00 0.  1.
</event>
<event>
 7    1  0.3795708E-015  0.9000774E+02  0.7816164E-02  0.1186339E+00
        -11   -1    0    0    0    0  0.00000000000E+00  0.00000000000E+00  0.45593999997E+02  0.45594000000E+02  0.51100000000E-03 0.  1.
         11   -1    0    0    0    0 -0.00000000000E+00 -0.00000000000E+00 -0.45593999997E+02  0.45594000000E+02  0.51100000000E-03 0. -1.
    9900012    2    1    2    0    0 -0.10222217216E+01 -0.37339137387E+00  0.45678819654E+00  0.90007739934E+02  0.90000001301E+02 0.  0.
         12    1    1    2    0    0  0.10222217216E+01  0.37339137387E+00 -0.45678819654E+00  0.11802600657E+01  0.00000000000E+00 0. -1.
         11    1    3    3    0    0 -0.31681185374E+02 -0.10400828280E+02  0.16698031151E+02  0.37292076641E+02  0.51100000000E-03 0. -1.
        -11    1    3    3    0    0 -0.63673903192E+01 -0.69431867229E+01 -0.31284258620E+01  0.99266585507E+01  0.51100000000E-03 0.  1.
        -12    1    3    3    0    0  0.37026353971E+02  0.16970623629E+02 -0.13112817093E+02  0.42789004743E+02  0.00000000000E+00 0.  1.
</event>
<event>
 7    1  0.3795708E-015  0.9000776E+02  0.7816164E-02  0.1186339E+00
        -11   -1    0    0    0    0  0.00000000000E+00  0.00000000000E+00  0.45593999997E+02  0.45594000000E+02  0.51100000000E-03 0.  1.
         11   -1    0    0    0    0 -0.00000000000E+00 -0.00000000000E+00 -0.45593999997E+02  0.45594000000E+02  0.51100000000E-03 0. -1.
    9900012    2    1    2    0    0  0.67477255591E+00  0.93735617920E+00  0.24293422065E+00  0.90007757803E+02  0.90000019406E+02 0.  0.
         12    1    1    2    0    0 -0.67477255591E+00 -0.93735617920E+00 -0.24293422065E+00  0.11802421974E+01  0.00000000000E+00 0. -1.
         11    1    3    3    0    0  0.40930969830E+01  0.25551504083E+01  0.10550872518E+02  0.11601859665E+02  0.51100000000E-03 0. -1.
        -11    1    3    3    0    0  0.30132505135E+02  0.21443119625E+02 -0.38198850715E+01  0.37180193211E+02  0.51100000000E-03 0.  1.
         12    1    3    3    0    0 -0.33550829562E+02 -0.23060913854E+02 -0.64880532260E+01  0.41225704927E+02  0.00000000000E+00 0. -1.
</event>
<event>
 7    1  0.3795708E-015  0.9000745E+02  0.7816164E-02  0.1186340E+00
        -11   -1    0    0    0    0  0.00000000000E+00  0.00000000000E+00  0.45593999997E+02  0.45594000000E+02  0.51100000000E-03 0.  1.
         11   -1    0    0    0    0 -0.00000000000E+00 -0.00000000000E+00 -0.45593999997E+02  0.45594000000E+02  0.51100000000E-03 0. -1.
    9900012    2    1    2    0    0 -0.14987352870E+00  0.94438406975E+00 -0.69237200622E+00  0.90007448290E+02  0.89999705807E+02 0.  0.
         12    1    1    2    0    0  0.14987352870E+00 -0.94438406975E+00  0.69237200622E+00  0.11805517103E+01  0.00000000000E+00 0. -1.
         11    1    3    3    0    0 -0.75734213912E+01  0.15573985155E+01 -0.43835682933E+01  0.88880747605E+01  0.51100000000E-03 0. -1.
        -11    1    3    3    0    0  0.29075103719E+02 -0.16216445512E+02 -0.25225585812E+02  0.41769186503E+02  0.51100000000E-03 0.  1.
         12    1    3    3    0    0 -0.21651555857E+02  0.15603431066E+02  0.28916782099E+02  0.39350187026E+02  0.00000000000E+00 0. -1.
</event>
<event>
 7    1  0.3795708E-015  0.9000777E+02  0.7816164E-02  0.1186339E+00
        -11   -1    0    0    0    0  0.00000000000E+00  0.00000000000E+00  0.45593999997E+02  0.45594000000E+02  0.51100000000E-03 0. -1.
         11   -1    0    0    0    0 -0.00000000000E+00 -0.00000000000E+00 -0.45593999997E+02  0.45594000000E+02  0.51100000000E-03 0.  1.
    9900012    2    1    2    0    0  0.73138233722E+00 -0.14301817204E+00 -0.91519107466E+00  0.90007767386E+02  0.90000029115E+02 0.  0.
         12    1    1    2    0    0 -0.73138233722E+00  0.14301817204E+00  0.91519107466E+00  0.11802326143E+01  0.00000000000E+00 0. -1.
         11    1    3    3    0    0 -0.22685596799E+02 -0.33682599234E+02  0.95199198887E+01  0.41710702083E+02  0.51100000000E-03 0. -1.
        -11    1    3    3    0    0  0.59373226957E+01  0.19663712170E+01  0.59773735602E+01  0.86514398510E+01  0.51100000000E-03 0.  1.
        -12    1    3    3    0    0  0.17479656441E+02  0.31573209845E+02 -0.16412484524E+02  0.39645625452E+02  0.00000000000E+00 0.  1.
</event>
<event>
 7    1  0.3795708E-015  0.9000782E+02  0.7816164E-02  0.1186339E+00
        -11   -1    0    0    0    0  0.00000000000E+00  0.00000000000E+00  0.45593999997E+02  0.45594000000E+02  0.51100000000E-03 0.  1.
         11   -1    0    0    0    0 -0.00000000000E+00 -0.00000000000E+00 -0.45593999997E+02  0.45594000000E+02  0.51100000000E-03 0. -1.
    9900012    2    1    2    0    0 -0.37951879166E+00  0.51268231612E+00  0.99294688581E+00  0.90007821544E+02  0.90000083988E+02 0.  0.
         12    1    1    2    0    0  0.37951879166E+00 -0.51268231612E+00 -0.99294688581E+00  0.11801784562E+01  0.00000000000E+00 0. -1.
         11    1    3    3    0    0 -0.12902788842E+01  0.54539087414E+01  0.71801710850E+01  0.91085013713E+01  0.51100000000E-03 0. -1.
        -11    1    3    3    0    0  0.63463714940E+01  0.94558179247E+01  0.35066190246E+02  0.36869046942E+02  0.51100000000E-03 0.  1.
         12    1    3    3    0    0 -0.54356114015E+01 -0.14397044350E+02 -0.41253414446E+02  0.44030273230E+02  0.00000000000E+00 0. -1.
</event>
<event>
 7    1  0.3795708E-015  0.9000837E+02  0.7816164E-02  0.1186338E+00
        -11   -1    0    0    0    0  0.00000000000E+00  0.00000000000E+00  0.45593999997E+02  0.45594000000E+02  0.51100000000E-03 0.  1.
         11   -1    0    0    0    0 -0.00000000000E+00 -0.00000000000E+00 -0.45593999997E+02  0.45594000000E+02  0.51100000000E-03 0. -1.
    9900012    2    1    2    0    0 -0.53882012542E+00 -0.14255298320E+00  0.10396476046E+01  0.90008374796E+02  0.90000644541E+02 0.  0.
         12    1    1    2    0    0  0.53882012542E+00  0.14255298320E+00 -0.10396476046E+01  0.11796252041E+01  0.00000000000E+00 0. -1.
         11    1    3    3    0    0 -0.65676868546E+01  0.97192116883E+00  0.59771901292E+01  0.89334172342E+01  0.51100000000E-03 0. -1.
        -11    1    3    3    0    0  0.42863593695E+02 -0.60311847979E+01 -0.70378203798E+01  0.43854233210E+02  0.51100000000E-03 0.  1.
         12    1    3    3    0    0 -0.36834726965E+02  0.49167106459E+01  0.21002778551E+01  0.37220724352E+02  0.00000000000E+00 0. -1.
</event>
<event>
 7    1  0.3795708E-015  0.9000764E+02  0.7816164E-02  0.1186339E+00
        -11   -1    0    0    0    0  0.00000000000E+00  0.00000000000E+00  0.45593999997E+02  0.45594000000E+02  0.51100000000E-03 0.  1.
         11   -1    0    0    0    0 -0.00000000000E+00 -0.00000000000E+00 -0.45593999997E+02  0.45594000000E+02  0.51100000000E-03 0. -1.
    9900012    2    1    2    0    0 -0.10773940938E+00  0.92951197870E+00 -0.71947569170E+00  0.90007641762E+02  0.89999901833E+02 0.  0.
         12    1    1    2    0    0  0.10773940938E+00 -0.92951197870E+00  0.71947569170E+00  0.11803582379E+01  0.00000000000E+00 0. -1.
         11    1    3    3    0    0  0.16157844182E+02 -0.18942968800E+02 -0.21681098980E+02  0.33014876174E+02  0.51100000000E-03 0. -1.
        -11    1    3    3    0    0  0.11935065452E+02 -0.52975778023E+01 -0.13039731731E+01  0.13122898468E+02  0.51100000000E-03 0.  1.
        -12    1    3    3    0    0 -0.28200649043E+02  0.25170058581E+02  0.22265596461E+02  0.43869867120E+02  0.00000000000E+00 0.  1.
</event>
<event>
 7    1  0.4457050E-015  0.9000768E+02  0.7816164E-02  0.1186339E+00
        -11   -1    0    0    0    0  0.00000000000E+00  0.00000000000E+00  0.45593999997E+02  0.45594000000E+02  0.51100000000E-03 0.  1.
         11   -1    0    0    0    0 -0.00000000000E+00 -0.00000000000E+00 -0.45593999997E+02  0.45594000000E+02  0.51100000000E-03 0. -1.
    9900012    2    1    2    0    0  0.40108285239E+00 -0.84115343853E+00  0.72439851476E+00  0.90007678108E+02  0.89999938659E+02 0.  0.
         12    1    1    2    0    0 -0.40108285239E+00  0.84115343853E+00 -0.72439851476E+00  0.11803218925E+01  0.00000000000E+00 0. -1.
         11    1    3    3    0    0 -0.10600787152E+01 -0.12292417386E+02 -0.36361424128E+02  0.38397662129E+02  0.51100000000E-03 0. -1.
        -11    1    3    3    0    0  0.88197437366E+01 -0.34013188522E+01 -0.15403362890E+01  0.95775511306E+01  0.51100000000E-03 0.  1.
        -12    1    3    3    0    0 -0.73585821691E+01  0.14852582800E+02  0.38626158932E+02  0.42032464848E+02  0.00000000000E+00 0.  1.
</event>
<event>
 7    1  0.3795708E-015  0.9000736E+02  0.7816164E-02  0.1186340E+00
        -11   -1    0    0    0    0  0.00000000000E+00  0.00000000000E+00  0.45593999997E+02  0.45594000000E+02  0.51100000000E-03 0. -1.
         11   -1    0    0    0    0 -0.00000000000E+00 -0.00000000000E+00 -0.45593999997E+02  0.45594000000E+02  0.51100000000E-03 0.  1.
    9900012    2    1    2    0    0  0.19697464808E+00 -0.11365933889E+01 -0.25151955861E+00  0.90007362193E+02  0.89999618573E+02 0.  0.
         12    1    1    2    0    0 -0.19697464808E+00  0.11365933889E+01  0.25151955861E+00  0.11806378074E+01  0.00000000000E+00 0. -1.
         11    1    3    3    0    0 -0.40829897694E+01  0.74920124133E+01 -0.39882454512E+01  0.94184477224E+01  0.51100000000E-03 0. -1.
        -11    1    3    3    0    0  0.16745536019E+02  0.19185827104E+02 -0.27129895235E+02  0.37209409481E+02  0.51100000000E-03 0.  1.
         12    1    3    3    0    0 -0.12465571601E+02 -0.27814432906E+02  0.30866621128E+02  0.43379504989E+02  0.00000000000E+00 0. -1.
</event>
<event>
 7    1  0.7493275E-015  0.9000771E+02  0.7816164E-02  0.1186339E+00
        -11   -1    0    0    0    0  0.00000000000E+00  0.00000000000E+00  0.45593999997E+02  0.45594000000E+02  0.51100000000E-03 0. -1.
         11   -1    0    0    0    0 -0.00000000000E+00 -0.00000000000E+00 -0.45593999997E+02  0.45594000000E+02  0.51100000000E-03 0.  1.
    9900012    2    1    2    0    0  0.86404846818E+00  0.49729483942E+00 -0.63181607973E+00  0.90007714665E+02  0.89999975699E+02 0.  0.
         12    1    1    2    0    0 -0.86404846818E+00 -0.49729483942E+00  0.63181607973E+00  0.11802853347E+01  0.00000000000E+00 0. -1.
         11    1    3    3    0    0  0.57207729272E+01  0.19396618257E+02  0.31347674631E+02  0.37304594191E+02  0.51100000000E-03 0. -1.
        -11    1    3    3    0    0  0.55653626938E+01  0.74491564657E+01  0.84937735116E+00  0.93372713418E+01  0.51100000000E-03 0.  1.
        -12    1    3    3    0    0 -0.10422087153E+02 -0.26348479883E+02 -0.32828868062E+02  0.43365849133E+02  0.00000000000E+00 0.  1.
</event>
<event>
 7    1  0.3795708E-015  0.9000777E+02  0.7816164E-02  0.1186339E+00
        -11   -1    0    0    0    0  0.00000000000E+00  0.00000000000E+00  0.45593999997E+02  0.45594000000E+02  0.51100000000E-03 0.  1.
         11   -1    0    0    0    0 -0.00000000000E+00 -0.00000000000E+00 -0.45593999997E+02  0.45594000000E+02  0.51100000000E-03 0. -1.
    9900012    2    1    2    0    0 -0.85558937836E-01 -0.86279544531E+00  0.80075699503E+00  0.90007767787E+02  0.90000029521E+02 0.  0.
         12    1    1    2    0    0  0.85558937836E-01  0.86279544531E+00 -0.80075699503E+00  0.11802322133E+01  0.00000000000E+00 0. -1.
         11    1    3    3    0    0 -0.24127055836E+02 -0.76680828417E+00 -0.34120948876E+02  0.41796434905E+02  0.51100000000E-03 0. -1.
        -11    1    3    3    0    0 -0.28941365904E+01  0.47867408315E+01  0.84297962470E+01  0.10116836433E+02  0.51100000000E-03 0.  1.
        -12    1    3    3    0    0  0.26935633489E+02 -0.48827279926E+01  0.26491909624E+02  0.38094496448E+02  0.00000000000E+00 0.  1.
</event>
<event>
 7    1  0.3795708E-015  0.9000769E+02  0.7816164E-02  0.1186339E+00
        -11   -1    0    0    0    0  0.00000000000E+00  0.00000000000E+00  0.45593999997E+02  0.45594000000E+02  0.51100000000E-03 0. -1.
         11   -1    0    0    0    0 -0.00000000000E+00 -0.00000000000E+00 -0.45593999997E+02  0.45594000000E+02  0.51100000000E-03 0.  1.
    9900012    2    1    2    0    0 -0.10313111551E+01 -0.24874342956E+00 -0.51735543866E+00  0.90007689599E+02  0.89999950302E+02 0.  0.
         12    1    1    2    0    0  0.10313111551E+01  0.24874342956E+00  0.51735543866E+00  0.11803104008E+01  0.00000000000E+00 0. -1.
         11    1    3    3    0    0  0.57293871539E+01 -0.90935525407E+00  0.77145247865E+01  0.96522897325E+01  0.51100000000E-03 0. -1.
        -11    1    3    3    0    0  0.36421387810E+02  0.37655351418E+01 -0.28005301608E+01  0.36722468795E+02  0.51100000000E-03 0.  1.
         12    1    3    3    0    0 -0.43182086119E+02 -0.31049233173E+01 -0.54313500644E+01  0.43632931072E+02  0.00000000000E+00 0. -1.
</event>
<event>
 7    1  0.3795708E-015  0.9000772E+02  0.7816164E-02  0.1186339E+00
        -11   -1    0    0    0    0  0.00000000000E+00  0.00000000000E+00  0.45593999997E+02  0.45594000000E+02  0.51100000000E-03 0.  1.
         11   -1    0    0    0    0 -0.00000000000E+00 -0.00000000000E+00 -0.45593999997E+02  0.45594000000E+02  0.51100000000E-03 0. -1.
    9900012    2    1    2    0    0 -0.57903408541E+00 -0.72034442545E+00  0.73408640160E+00  0.90007720623E+02  0.89999981735E+02 0.  0.
         12    1    1    2    0    0  0.57903408541E+00  0.72034442545E+00 -0.73408640160E+00  0.11802793773E+01  0.00000000000E+00 0. -1.
         11    1    3    3    0    0  0.34038982256E+02  0.89433624731E+01 -0.18623348339E+02  0.39817899856E+02  0.51100000000E-03 0. -1.
        -11    1    3    3    0    0  0.31588254168E+01 -0.14027367862E+01  0.97502622905E+01  0.10344731195E+02  0.51100000000E-03 0.  1.
        -12    1    3    3    0    0 -0.37776841758E+02 -0.82609701124E+01  0.96071724500E+01  0.39845089571E+02  0.00000000000E+00 0.  1.
</event>
<event>
 7    1  0.3795708E-015  0.9000770E+02  0.7816164E-02  0.1186339E+00
        -11   -1    0    0    0    0  0.00000000000E+00  0.00000000000E+00  0.45593999997E+02  0.45594000000E+02  0.51100000000E-03 0.  1.
         11   -1    0    0    0    0 -0.00000000000E+00 -0.00000000000E+00 -0.45593999997E+02  0.45594000000E+02  0.51100000000E-03 0. -1.
    9900012    2    1    2    0    0 -0.10716540775E+01  0.30936440183E+00  0.38594784205E+00  0.90007701507E+02  0.89999962367E+02 0.  0.
         12    1    1    2    0    0  0.10716540775E+01 -0.30936440183E+00 -0.38594784205E+00  0.11802984926E+01  0.00000000000E+00 0. -1.
         11    1    3    3    0    0  0.67685019017E+01  0.67391892197E+01  0.20956089465E+01  0.97785922530E+01  0.51100000000E-03 0. -1.
        -11    1    3    3    0    0 -0.31771761684E+02  0.17606163422E+02  0.18482218503E+02  0.40755542347E+02  0.51100000000E-03 0.  1.
         12    1    3    3    0    0  0.23931605705E+02 -0.24035988240E+02 -0.20191879607E+02  0.39473566907E+02  0.00000000000E+00 0. -1.
</event>
<event>
 7    1  0.3795708E-015  0.9000777E+02  0.7816164E-02  0.1186339E+00
        -11   -1    0    0    0    0  0.00000000000E+00  0.00000000000E+00  0.45593999997E+02  0.45594000000E+02  0.51100000000E-03 0. -1.
         11   -1    0    0    0    0 -0.00000000000E+00 -0.00000000000E+00 -0.45593999997E+02  0.45594000000E+02  0.51100000000E-03 0.  1.
    9900012    2    1    2    0    0  0.26962965619E+00  0.98118687176E+00 -0.59792921517E+00  0.90007768169E+02  0.90000029909E+02 0.  0.
         12    1    1    2    0    0 -0.26962965619E+00 -0.98118687176E+00  0.59792921517E+00  0.11802318311E+01  0.00000000000E+00 0. -1.
         11    1    3    3    0    0 -0.34811003859E+02  0.49995444768E+01  0.20537606594E+02  0.40725848297E+02  0.51100000000E-03 0. -1.
        -11    1    3    3    0    0  0.74367007569E+01 -0.10833189207E+01  0.66079954146E+01  0.10007182505E+02  0.51100000000E-03 0.  1.
        -12    1    3    3    0    0  0.27643932759E+02 -0.29350386843E+01 -0.27743531224E+02  0.39274737366E+02  0.00000000000E+00 0.  1.
</event>
<event>
 7    1  0.3795708E-015  0.9000781E+02  0.7816164E-02  0.1186339E+00
        -11   -1    0    0    0    0  0.00000000000E+00  0.00000000000E+00  0.45593999997E+02  0.45594000000E+02  0.51100000000E-03 0.  1.
         11   -1    0    0    0    0 -0.00000000000E+00 -0.00000000000E+00 -0.45593999997E+02  0.45594000000E+02  0.51100000000E-03 0. -1.
    9900012    2    1    2    0    0 -0.11755377536E+01 -0.94604862984E-01  0.44696804565E-01  0.90007814890E+02  0.90000077246E+02 0.  0.
         12    1    1    2    0    0  0.11755377536E+01  0.94604862984E-01 -0.44696804565E-01  0.11801851103E+01  0.00000000000E+00 0. -1.
         11    1    3    3    0    0 -0.14006353713E+02 -0.33512700891E+01 -0.91030617226E+00  0.14430440504E+02  0.51100000000E-03 0. -1.
        -11    1    3    3    0    0  0.11520022024E+00 -0.18496569932E+02  0.31163705431E+02  0.36239659309E+02  0.51100000000E-03 0.  1.
         12    1    3    3    0    0  0.12715615740E+02  0.21753235158E+02 -0.30208702455E+02  0.39337715077E+02  0.00000000000E+00 0. -1.
</event>
<event>
 7    1  0.3795708E-015  0.9000776E+02  0.7816164E-02  0.1186339E+00
        -11   -1    0    0    0    0  0.00000000000E+00  0.00000000000E+00  0.45593999997E+02  0.45594000000E+02  0.51100000000E-03 0. -1.
         11   -1    0    0    0    0 -0.00000000000E+00 -0.00000000000E+00 -0.45593999997E+02  0.45594000000E+02  0.51100000000E-03 0.  1.
    9900012    2    1    2    0    0  0.10477360412E+01  0.54036963684E+00 -0.56745573280E-01  0.90007758408E+02  0.90000020018E+02 0.  0.
         12    1    1    2    0    0 -0.10477360412E+01 -0.54036963684E+00  0.56745573280E-01  0.11802415925E+01  0.00000000000E+00 0. -1.
         11    1    3    3    0    0  0.30702907879E+02 -0.25661346121E+02  0.15140951635E+02  0.42783427325E+02  0.51100000000E-03 0. -1.
        -11    1    3    3    0    0  0.98392702877E+00  0.88355891193E+01 -0.59896598333E-01  0.88904069281E+01  0.51100000000E-03 0.  1.
        -12    1    3    3    0    0 -0.30639098867E+02  0.17366126639E+02 -0.15137800610E+02  0.38333924155E+02  0.00000000000E+00 0.  1.
</event>
<event>
 7    1  0.3795708E-015  0.9000776E+02  0.7816164E-02  0.1186339E+00
        -11   -1    0    0    0    0  0.00000000000E+00  0.00000000000E+00  0.45593999997E+02  0.45594000000E+02  0.51100000000E-03 0.  1.
         11   -1    0    0    0    0 -0.00000000000E+00 -0.00000000000E+00 -0.45593999997E+02  0.45594000000E+02  0.51100000000E-03 0. -1.
    9900012    2    1    2    0    0  0.86077326604E+00  0.17490380054E+00  0.78831595693E+00  0.90007761040E+02  0.90000022686E+02 0.  0.
         12    1    1    2    0    0 -0.86077326604E+00 -0.17490380054E+00 -0.78831595693E+00  0.11802389601E+01  0.00000000000E+00 0. -1.
         11    1    3    3    0    0 -0.32317726518E+01 -0.35704618467E+02  0.11525549463E+01  0.35869102547E+02  0.51100000000E-03 0. -1.
        -11    1    3    3    0    0 -0.93675336915E+01 -0.53240497077E+01  0.45740225064E+00  0.10784498590E+02  0.51100000000E-03 0.  1.
        -12    1    3    3    0    0  0.13460079609E+02  0.41203571975E+02 -0.82164124003E+00  0.43354159903E+02  0.00000000000E+00 0.  1.
</event>
<event>
 7    1  0.3795708E-015  0.9000804E+02  0.7816164E-02  0.1186338E+00
        -11   -1    0    0    0    0  0.00000000000E+00  0.00000000000E+00  0.45593999997E+02  0.45594000000E+02  0.51100000000E-03 0.  1.
         11   -1    0    0    0    0 -0.00000000000E+00 -0.00000000000E+00 -0.45593999997E+02  0.45594000000E+02  0.51100000000E-03 0. -1.
    9900012    2    1    2    0    0 -0.83683634116E+00  0.82934231819E+00  0.64902979457E-01  0.90008035535E+02  0.90000300803E+02 0.  0.
         12    1    1    2    0    0  0.83683634116E+00 -0.82934231819E+00 -0.64902979457E-01  0.11799644653E+01  0.00000000000E+00 0. -1.
         11    1    3    3    0    0 -0.10282371501E+02 -0.36703364155E+02 -0.61628312580E+01  0.38611456763E+02  0.51100000000E-03 0. -1.
        -11    1    3    3    0    0  0.55654698030E+01 -0.33927625787E+01 -0.56285894505E+01  0.86119865018E+01  0.51100000000E-03 0.  1.
        -12    1    3    3    0    0  0.38800653574E+01  0.40925469052E+02  0.11856323688E+02  0.42784592270E+02  0.00000000000E+00 0.  1.
</event>
<event>
 7    1  0.3795708E-015  0.9000814E+02  0.7816164E-02  0.1186338E+00
        -11   -1    0    0    0    0  0.00000000000E+00  0.00000000000E+00  0.45593999997E+02  0.45594000000E+02  0.51100000000E-03 0.  1.
         11   -1    0    0    0    0 -0.00000000000E+00 -0.00000000000E+00 -0.45593999997E+02  0.45594000000E+02  0.51100000000E-03 0. -1.
    9900012    2    1    2    0    0 -0.34915666352E+00 -0.10155427628E+01  0.48870439582E+00  0.90008140065E+02  0.90000406713E+02 0.  0.
         12    1    1    2    0    0  0.34915666352E+00  0.10155427628E+01 -0.48870439582E+00  0.11798599346E+01  0.00000000000E+00 0. -1.
         11    1    3    3    0    0  0.18228102483E+02 -0.26657225988E+01 -0.29626997831E+02  0.34887373043E+02  0.51100000000E-03 0. -1.
        -11    1    3    3    0    0  0.70216990863E+01 -0.80860022094E+01 -0.39466266938E+01  0.11413305933E+02  0.51100000000E-03 0.  1.
        -12    1    3    3    0    0 -0.25598958233E+02  0.97361820455E+01  0.34062328921E+02  0.43707461090E+02  0.00000000000E+00 0.  1.
</event>
<event>
 7    1  0.3795708E-015  0.9000777E+02  0.7816164E-02  0.1186339E+00
        -11   -1    0    0    0    0  0.00000000000E+00  0.00000000000E+00  0.45593999997E+02  0.45594000000E+02  0.51100000000E-03 0.  1.
         11   -1    0    0    0    0 -0.00000000000E+00 -0.00000000000E+00 -0.45593999997E+02  0.45594000000E+02  0.51100000000E-03 0. -1.
    9900012    2    1    2    0    0 -0.48350062514E+00 -0.29143514498E+00  0.10364540105E+01  0.90007769423E+02  0.90000031180E+02 0.  0.
         12    1    1    2    0    0  0.48350062514E+00  0.29143514498E+00 -0.10364540105E+01  0.11802305767E+01  0.00000000000E+00 0. -1.
         11    1    3    3    0    0 -0.26143607440E+02 -0.57139911805E+01 -0.31410708410E+02  0.41264639926E+02  0.51100000000E-03 0. -1.
        -11    1    3    3    0    0  0.60950097083E+01 -0.43303425878E+01 -0.21839883267E+01  0.77891472925E+01  0.51100000000E-03 0.  1.
        -12    1    3    3    0    0  0.19565097106E+02  0.97528986233E+01  0.34631150747E+02  0.40953982205E+02  0.00000000000E+00 0.  1.
</event>
<event>
 7    1  0.3795708E-015  0.9000777E+02  0.7816164E-02  0.1186339E+00
        -11   -1    0    0    0    0  0.00000000000E+00  0.00000000000E+00  0.45593999997E+02  0.45594000000E+02  0.51100000000E-03 0. -1.
         11   -1    0    0    0    0 -0.00000000000E+00 -0.00000000000E+00 -0.45593999997E+02  0.45594000000E+02  0.51100000000E-03 0.  1.
    9900012    2    1    2    0    0  0.86020279713E-01  0.45595945891E+00 -0.10851919490E+01  0.90007771174E+02  0.90000032953E+02 0.  0.
         12    1    1    2    0    0 -0.86020279713E-01 -0.45595945891E+00  0.10851919490E+01  0.11802288265E+01  0.00000000000E+00 0. -1.
         11    1    3    3    0    0  0.41835314096E+01  0.89139184792E+01  0.15190842479E+01  0.99633074288E+01  0.51100000000E-03 0. -1.
        -11    1    3    3    0    0 -0.37531703595E+02  0.50126553262E+01 -0.16643171005E+02  0.41361221325E+02  0.51100000000E-03 0.  1.
         12    1    3    3    0    0  0.33434192465E+02 -0.13470614346E+02  0.14038894808E+02  0.38683242420E+02  0.00000000000E+00 0. -1.
</event>
<event>
 7    1  0.3795708E-015  0.9000779E+02  0.7816164E-02  0.1186339E+00
        -11   -1    0    0    0    0  0.00000000000E+00  0.00000000000E+00  0.45593999997E+02  0.45594000000E+02  0.51100000000E-03 0. -1.
         11   -1    0    0    0    0 -0.00000000000E+00 -0.00000000000E+00 -0.45593999997E+02  0.45594000000E+02  0.51100000000E-03 0.  1.
    9900012    2    1    2    0    0  0.29280253373E+00  0.11155776443E+01  0.25028390888E+00  0.90007792883E+02  0.90000054949E+02 0.  0.
         12    1    1    2    0    0 -0.29280253373E+00 -0.11155776443E+01 -0.25028390888E+00  0.11802071171E+01  0.00000000000E+00 0. -1.
         11    1    3    3    0    0  0.12252875290E+02 -0.21938574179E+02 -0.33124829165E+02  0.41577497488E+02  0.51100000000E-03 0. -1.
        -11    1    3    3    0    0 -0.70939744718E+01 -0.34711082487E+01  0.53625057153E+01  0.95461790308E+01  0.51100000000E-03 0.  1.
        -12    1    3    3    0    0 -0.48660982844E+01  0.26525260072E+02  0.28012607359E+02  0.38884116364E+02  0.00000000000E+00 0.  1.
</event>
<event>
 7    1  0.3795708E-015  0.9000777E+02  0.7816164E-02  0.1186339E+00
        -11   -1    0    0    0    0  0.00000000000E+00  0.00000000000E+00  0.45593999997E+02  0.45594000000E+02  0.51100000000E-03 0. -1.
         11   -1    0    0    0    0 -0.00000000000E+00 -0.00000000000E+00 -0.45593999997E+02  0.45594000000E+02  0.51100000000E-03 0.  1.
    9900012    2    1    2    0    0  0.24965571818E+00 -0.11206187208E+01  0.27354743364E+00  0.90007770152E+02  0.90000031918E+02 0.  0.
         12    1    1    2    0    0 -0.24965571818E+00  0.11206187208E+01 -0.27354743364E+00  0.11802298478E+01  0.00000000000E+00 0. -1.
         11    1    3    3    0    0  0.71594395941E+01  0.16822501268E+02  0.13803690670E+02  0.22908426410E+02  0.51100000000E-03 0. -1.
        -11    1    3    3    0    0  0.20579778955E+02 -0.16669342652E+02 -0.25795838290E+02  0.36970522848E+02  0.51100000000E-03 0.  1.
         12    1    3    3    0    0 -0.27489562831E+02 -0.12737773372E+01  0.12265695054E+02  0.30128820895E+02  0.00000000000E+00 0. -1.
</event>
<event>
 7    1  0.3795708E-015  0.9000770E+02  0.7816164E-02  0.1186339E+00
        -11   -1    0    0    0    0  0.00000000000E+00  0.00000000000E+00  0.45593999997E+02  0.45594000000E+02  0.51100000000E-03 0.  1.
         11   -1    0    0    0    0 -0.00000000000E+00 -0.00000000000E+00 -0.45593999997E+02  0.45594000000E+02  0.51100000000E-03 0. -1.
    9900012    2    1    2    0    0  0.46789049704E-01  0.10252860203E+01  0.58283670165E+00  0.90007703741E+02  0.89999964630E+02 0.  0.
         12    1    1    2    0    0 -0.46789049704E-01 -0.10252860203E+01 -0.58283670165E+00  0.11802962592E+01  0.00000000000E+00 0. -1.
         11    1    3    3    0    0 -0.37718056486E+02  0.86028379699E+01 -0.12726056031E+02  0.40726074063E+02  0.51100000000E-03 0. -1.
        -11    1    3    3    0    0  0.40896650862E+01  0.84233485171E+01 -0.84580526072E+00  0.94017842753E+01  0.51100000000E-03 0.  1.
        -12    1    3    3    0    0  0.33675180449E+02 -0.16000900467E+02  0.14154697994E+02  0.39879845403E+02  0.00000000000E+00 0.  1.
</event>
<event>
 7    1  0.3795708E-015  0.9000778E+02  0.7816164E-02  0.1186339E+00
        -11   -1    0    0    0    0  0.00000000000E+00  0.00000000000E+00  0.45593999997E+02  0.45594000000E+02  0.51100000000E-03 0.  1.
         11   -1    0    0    0    0 -0.00000000000E+00 -0.00000000000E+00 -0.45593999997E+02  0.45594000000E+02  0.51100000000E-03 0. -1.
    9900012    2    1    2    0    0  0.26170420411E+00 -0.34588763924E+00  0.10976354458E+01  0.90007775055E+02  0.90000036886E+02 0.  0.
         12    1    1    2    0    0 -0.26170420411E+00  0.34588763924E+00 -0.10976354458E+01  0.11802249452E+01  0.00000000000E+00 0. -1.
         11    1    3    3    0    0 -0.81131707819E-01  0.52601756959E+01  0.69150512274E+01  0.86887262844E+01  0.51100000000E-03 0. -1.
        -11    1    3    3    0    0  0.51823778528E+01  0.30426550296E+02  0.19955830633E+02  0.36754145068E+02  0.51100000000E-03 0.  1.
         12    1    3    3    0    0 -0.48395419409E+01 -0.36032613632E+02 -0.25773246414E+02  0.44564903703E+02  0.00000000000E+00 0. -1.
</event>
<event>
 7    1  0.3795708E-015  0.9000771E+02  0.7816164E-02  0.1186339E+00
        -11   -1    0    0    0    0  0.00000000000E+00  0.00000000000E+00  0.45593999997E+02  0.45594000000E+02  0.51100000000E-03 0. -1.
         11   -1    0    0    0    0 -0.00000000000E+00 -0.00000000000E+00 -0.45593999997E+02  0.45594000000E+02  0.51100000000E-03 0.  1.
    9900012    2    1    2    0    0  0.10219135493E+01  0.54223836194E+00 -0.23400729719E+00  0.90007708020E+02  0.89999968966E+02 0.  0.
         12    1    1    2    0    0 -0.10219135493E+01 -0.54223836194E+00  0.23400729719E+00  0.11802919803E+01  0.00000000000E+00 0. -1.
         11    1    3    3    0    0  0.21625315178E+02  0.15690902320E+02  0.17038348885E+02  0.31688546908E+02  0.51100000000E-03 0. -1.
        -11    1    3    3    0    0 -0.63159729308E+01 -0.15315430334E+01  0.17316128272E+02  0.18495551809E+02  0.51100000000E-03 0.  1.
        -12    1    3    3    0    0 -0.14287428698E+02 -0.13617120924E+02 -0.34588484454E+02  0.39823609303E+02  0.00000000000E+00 0.  1.
</event>
<event>
 7    1  0.3795708E-015  0.9000779E+02  0.7816164E-02  0.1186339E+00
        -11   -1    0    0    0    0  0.00000000000E+00  0.00000000000E+00  0.45593999997E+02  0.45594000000E+02  0.51100000000E-03 0.  1.
         11   -1    0    0    0    0 -0.00000000000E+00 -0.00000000000E+00 -0.45593999997E+02  0.45594000000E+02  0.51100000000E-03 0. -1.
    9900012    2    1    2    0    0  0.78583910612E+00  0.31652166656E+00  0.82168500432E+00  0.90007790141E+02  0.90000052170E+02 0.  0.
         12    1    1    2    0    0 -0.78583910612E+00 -0.31652166656E+00 -0.82168500432E+00  0.11802098595E+01  0.00000000000E+00 0. -1.
         11    1    3    3    0    0  0.55511880377E+01 -0.43661243354E+01  0.81261144797E+01  0.10766265236E+02  0.51100000000E-03 0. -1.
        -11    1    3    3    0    0  0.35665852745E+02  0.63199860978E+01  0.58539807848E+01  0.36691475408E+02  0.51100000000E-03 0.  1.
         12    1    3    3    0    0 -0.40431201676E+02 -0.16373400958E+01 -0.13158410260E+02  0.42550049497E+02  0.00000000000E+00 0. -1.
</event>
<event>
 7    1  0.3795708E-015  0.9000761E+02  0.7816164E-02  0.1186339E+00
        -11   -1    0    0    0    0  0.00000000000E+00  0.00000000000E+00  0.45593999997E+02  0.45594000000E+02  0.51100000000E-03 0.  1.
         11   -1    0    0    0    0 -0.00000000000E+00 -0.00000000000E+00 -0.45593999997E+02  0.45594000000E+02  0.51100000000E-03 0. -1.
    9900012    2    1    2    0    0  0.56922580446E+00 -0.41526064777E+00  0.94702922556E+00  0.90007608634E+02  0.89999868268E+02 0.  0.
         12    1    1    2    0    0 -0.56922580446E+00  0.41526064777E+00 -0.94702922556E+00  0.11803913657E+01  0.00000000000E+00 0. -1.
         11    1    3    3    0    0 -0.80008501985E+01 -0.69037906001E+01  0.17079636113E+01  0.10704815202E+02  0.51100000000E-03 0. -1.
        -11    1    3    3    0    0  0.13654780495E+02 -0.25626417678E+02  0.24607919772E+02  0.38062002432E+02  0.51100000000E-03 0.  1.
         12    1    3    3    0    0 -0.50847044916E+01  0.32114947631E+02 -0.25368854158E+02  0.41240791000E+02  0.00000000000E+00 0. -1.
</event>
<event>
 7    1  0.3795708E-015  0.9000767E+02  0.7816164E-02  0.1186339E+00
        -11   -1    0    0    0    0  0.00000000000E+00  0.00000000000E+00  0.45593999997E+02  0.45594000000E+02  0.51100000000E-03 0.  1.
         11   -1    0    0    0    0 -0.00000000000E+00 -0.00000000000E+00 -0.45593999997E+02  0.45594000000E+02  0.51100000000E-03 0. -1.
    9900012    2    1    2    0    0 -0.96029674912E+00 -0.59125228597E+00  0.34845202300E+00  0.90007674653E+02  0.89999935159E+02 0.  0.
         12    1    1    2    0    0  0.96029674912E+00  0.59125228597E+00 -0.34845202300E+00  0.11803253468E+01  0.00000000000E+00 0. -1.
         11    1    3    3    0    0  0.50292708977E+01  0.11733843617E+02 -0.25154183643E+00  0.12768708836E+02  0.51100000000E-03 0. -1.
        -11    1    3    3    0    0  0.68051304934E+01  0.25596099944E+02  0.19587737833E+02  0.32941609054E+02  0.51100000000E-03 0.  1.
         12    1    3    3    0    0 -0.12794698140E+02 -0.37921195847E+02 -0.18987743973E+02  0.44297356763E+02  0.00000000000E+00 0. -1.
</event>
<event>
 7    1  0.3795708E-015  0.9000777E+02  0.7816164E-02  0.1186339E+00
        -11   -1    0    0    0    0  0.00000000000E+00  0.00000000000E+00  0.45593999997E+02  0.45594000000E+02  0.51100000000E-03 0. -1.
         11   -1    0    0    0    0 -0.00000000000E+00 -0.00000000000E+00 -0.45593999997E+02  0.45594000000E+02  0.51100000000E-03 0.  1.
    9900012    2    1    2    0    0 -0.10891224448E+01  0.45469569164E+00 -0.13540706450E-02  0.90007772181E+02  0.90000033974E+02 0.  0.
         12    1    1    2    0    0  0.10891224448E+01 -0.45469569164E+00  0.13540706450E-02  0.11802278192E+01  0.00000000000E+00 0. -1.
         11    1    3    3    0    0  0.67070827173E+01 -0.40662292682E+01 -0.50860476197E+01  0.93481046041E+01  0.51100000000E-03 0. -1.
        -11    1    3    3    0    0  0.33786477884E+02 -0.98336311537E+01 -0.49615424033E+01  0.35536506480E+02  0.51100000000E-03 0.  1.
         12    1    3    3    0    0 -0.41582683047E+02  0.14354556114E+02  0.10046235952E+02  0.45123161097E+02  0.00000000000E+00 0. -1.
</event>
<event>
 7    1  0.3795708E-015  0.9000775E+02  0.7816164E-02  0.1186339E+00
        -11   -1    0    0    0    0  0.00000000000E+00  0.00000000000E+00  0.45593999997E+02  0.45594000000E+02  0.51100000000E-03 0. -1.
         11   -1    0    0    0    0 -0.00000000000E+00 -0.00000000000E+00 -0.45593999997E+02  0.45594000000E+02  0.51100000000E-03 0.  1.
    9900012    2    1    2    0    0  0.62921716371E+00  0.81272460922E-02  0.99850706414E+00  0.90007747210E+02  0.90000008673E+02 0.  0.
         12    1    1    2    0    0 -0.62921716371E+00 -0.81272460922E-02 -0.99850706414E+00  0.11802527900E+01  0.00000000000E+00 0. -1.
         11    1    3    3    0    0  0.46771211040E+01  0.42693159131E+01 -0.79322450255E+01  0.10150026187E+02  0.51100000000E-03 0. -1.
        -11    1    3    3    0    0 -0.27944140026E+02 -0.21008888898E+02 -0.18720097225E+02  0.39657160954E+02  0.51100000000E-03 0.  1.
         12    1    3    3    0    0  0.23896236086E+02  0.16747700231E+02  0.27650849315E+02  0.40200560070E+02  0.00000000000E+00 0. -1.
</event>
<event>
 7    1  0.3795708E-015  0.9000772E+02  0.7816164E-02  0.1186339E+00
        -11   -1    0    0    0    0  0.00000000000E+00  0.00000000000E+00  0.45593999997E+02  0.45594000000E+02  0.51100000000E-03 0. -1.
         11   -1    0    0    0    0 -0.00000000000E+00 -0.00000000000E+00 -0.45593999997E+02  0.45594000000E+02  0.51100000000E-03 0.  1.
    9900012    2    1    2    0    0 -0.32997282974E+00  0.41879185118E+00 -0.10529958237E+01  0.90007716607E+02  0.89999977666E+02 0.  0.
         12    1    1    2    0    0  0.32997282974E+00 -0.41879185118E+00  0.10529958237E+01  0.11802833930E+01  0.00000000000E+00 0. -1.
         11    1    3    3    0    0  0.52453631217E+01  0.10778043854E+02 -0.22648550139E+01  0.12198755350E+02  0.51100000000E-03 0. -1.
        -11    1    3    3    0    0  0.29981218342E+02 -0.24798239931E+02 -0.38594604071E+01  0.39098869445E+02  0.51100000000E-03 0.  1.
        -12    1    3    3    0    0 -0.35556554294E+02  0.14438987928E+02  0.50713195973E+01  0.38710091812E+02  0.00000000000E+00 0.  1.
</event>
<event>
 7    1  0.3795708E-015  0.9000781E+02  0.7816164E-02  0.1186339E+00
        -11   -1    0    0    0    0  0.00000000000E+00  0.00000000000E+00  0.45593999997E+02  0.45594000000E+02  0.51100000000E-03 0. -1.
         11   -1    0    0    0    0 -0.00000000000E+00 -0.00000000000E+00 -0.45593999997E+02  0.45594000000E+02  0.51100000000E-03 0.  1.
    9900012    2    1    2    0    0  0.98322209793E+00 -0.40662742865E+00  0.51065450358E+00  0.90007813751E+02  0.90000076093E+02 0.  0.
         12    1    1    2    0    0 -0.98322209793E+00  0.40662742865E+00 -0.51065450358E+00  0.11801862487E+01  0.00000000000E+00 0. -1.
         11    1    3    3    0    0 -0.22348317832E+02  0.29513072552E+02 -0.11917748811E+02  0.38890892229E+02  0.51100000000E-03 0. -1.
        -11    1    3    3    0    0  0.80908640846E+01  0.33108966486E+01 -0.55720519206E+01  0.10366864575E+02  0.51100000000E-03 0.  1.
        -12    1    3    3    0    0  0.15240675845E+02 -0.33230596629E+02  0.18000455235E+02  0.40750056947E+02  0.00000000000E+00 0.  1.
</event>
<event>
 7    1  0.3795708E-015  0.9000765E+02  0.7816164E-02  0.1186339E+00
        -11   -1    0    0    0    0  0.00000000000E+00  0.00000000000E+00  0.45593999997E+02  0.45594000000E+02  0.51100000000E-03 0. -1.
         11   -1    0    0    0    0 -0.00000000000E+00 -0.00000000000E+00 -0.45593999997E+02  0.45594000000E+02  0.51100000000E-03 0.  1.
    9900012    2    1    2    0    0  0.63393369563E+00  0.83304321467E+00 -0.54534565561E+00  0.90007646319E+02  0.89999906450E+02 0.  0.
         12    1    1    2    0    0 -0.63393369563E+00 -0.83304321467E+00  0.54534565561E+00  0.11803536809E+01  0.00000000000E+00 0. -1.
         11    1    3    3    0    0  0.21020885143E+00  0.91022900853E+01  0.37725765563E+01  0.98553643613E+01  0.51100000000E-03 0. -1.
        -11    1    3    3    0    0 -0.31159584417E+02  0.18535909229E+02 -0.11653607174E+02  0.38082885821E+02  0.51100000000E-03 0.  1.
         12    1    3    3    0    0  0.31583309262E+02 -0.26805156100E+02  0.73356849624E+01  0.42069396137E+02  0.00000000000E+00 0. -1.
</event>
<event>
 7    1  0.3795708E-015  0.9000787E+02  0.7816164E-02  0.1186339E+00
        -11   -1    0    0    0    0  0.00000000000E+00  0.00000000000E+00  0.45593999997E+02  0.45594000000E+02  0.51100000000E-03 0. -1.
         11   -1    0    0    0    0 -0.00000000000E+00 -0.00000000000E+00 -0.45593999997E+02  0.45594000000E+02  0.51100000000E-03 0.  1.
    9900012    2    1    2    0    0  0.56677238175E+00  0.87506086941E+00 -0.55294227905E+00  0.90007869659E+02  0.90000132738E+02 0.  0.
         12    1    1    2    0    0 -0.56677238175E+00 -0.87506086941E+00  0.55294227905E+00  0.11801303410E+01  0.00000000000E+00 0. -1.
         11    1    3    3    0    0  0.27493657210E+02 -0.22828005993E+02 -0.88630887344E+01  0.36818112208E+02  0.51100000000E-03 0. -1.
        -11    1    3    3    0    0  0.93932958659E+01  0.96965095810E+00  0.35063534413E+01  0.10073169557E+02  0.51100000000E-03 0.  1.
        -12    1    3    3    0    0 -0.36320180694E+02  0.22733415904E+02  0.48037930140E+01  0.43116587894E+02  0.00000000000E+00 0.  1.
</event>
<event>
 7    1  0.3795708E-015  0.9000774E+02  0.7816164E-02  0.1186339E+00
        -11   -1    0    0    0    0  0.00000000000E+00  0.00000000000E+00  0.45593999997E+02  0.45594000000E+02  0.51100000000E-03 0. -1.
         11   -1    0    0    0    0 -0.00000000000E+00 -0.00000000000E+00 -0.45593999997E+02  0.45594000000E+02  0.51100000000E-03 0.  1.
    9900012    2    1    2    0    0  0.70004462920E+00  0.89813644006E+00 -0.31034172263E+00  0.90007735821E+02  0.89999997134E+02 0.  0.
         12    1    1    2    0    0 -0.70004462920E+00 -0.89813644006E+00  0.31034172263E+00  0.11802641792E+01  0.00000000000E+00 0. -1.
         11    1    3    3    0    0  0.32107393850E+02 -0.76242066075E+01 -0.27460595042E+02  0.42931311959E+02  0.51100000000E-03 0. -1.
        -11    1    3    3    0    0 -0.20840917049E+01 -0.52582394174E+01  0.66740737117E+01  0.87484730196E+01  0.51100000000E-03 0.  1.
        -12    1    3    3    0    0 -0.29323257516E+02  0.13780582465E+02  0.20476179607E+02  0.38327950842E+02  0.00000000000E+00 0.  1.
</event>
<event>
 7    1  0.3795708E-015  0.9000767E+02  0.7816164E-02  0.1186339E+00
        -11   -1    0    0    0    0  0.00000000000E+00  0.00000000000E+00  0.45593999997E+02  0.45594000000E+02  0.51100000000E-03 0.  1.
         11   -1    0    0    0    0 -0.00000000000E+00 -0.00000000000E+00 -0.45593999997E+02  0.45594000000E+02  0.51100000000E-03 0. -1.
    9900012    2    1    2    0    0  0.10020348781E+01 -0.12735952679E+00  0.61064841674E+00  0.90007667066E+02  0.89999927471E+02 0.  0.
         12    1    1    2    0    0 -0.10020348781E+01  0.12735952679E+00 -0.61064841674E+00  0.11803329339E+01  0.00000000000E+00 0. -1.
         11    1    3    3    0    0  0.87726889208E+01  0.29989868121E+01 -0.35429612927E+01  0.99250474953E+01  0.51100000000E-03 0. -1.
        -11    1    3    3    0    0  0.17467157476E+02  0.23167277671E+02  0.24822814225E+02  0.38183719715E+02  0.51100000000E-03 0.  1.
         12    1    3    3    0    0 -0.25237811519E+02 -0.26293624010E+02 -0.20669204516E+02  0.41898899856E+02  0.00000000000E+00 0. -1.
</event>
<event>
 7    1  0.3795708E-015  0.9000773E+02  0.7816164E-02  0.1186339E+00
        -11   -1    0    0    0    0  0.00000000000E+00  0.00000000000E+00  0.45593999997E+02  0.45594000000E+02  0.51100000000E-03 0.  1.
         11   -1    0    0    0    0 -0.00000000000E+00 -0.00000000000E+00 -0.45593999997E+02  0.45594000000E+02  0.51100000000E-03 0. -1.
    9900012    2    1    2    0    0 -0.90792818673E+00 -0.39442545633E+00 -0.64275863968E+00  0.90007727277E+02  0.89999988477E+02 0.  0.
         12    1    1    2    0    0  0.90792818673E+00  0.39442545633E+00  0.64275863968E+00  0.11802727235E+01  0.00000000000E+00 0. -1.
         11    1    3    3    0    0 -0.24784556343E+02 -0.92563387154E+01  0.33473611515E+02  0.42666576001E+02  0.51100000000E-03 0. -1.
        -11    1    3    3    0    0 -0.23815737069E+01  0.38881422124E+01 -0.79810693439E+00  0.46288787114E+01  0.51100000000E-03 0.  1.
        -12    1    3    3    0    0  0.26258201863E+02  0.49737710467E+01 -0.33318263221E+02  0.42712272564E+02  0.00000000000E+00 0.  1.
</event>
<event>
 7    1  0.4240613E-015  0.9000757E+02  0.7816164E-02  0.1186339E+00
        -11   -1    0    0    0    0  0.00000000000E+00  0.00000000000E+00  0.45593999997E+02  0.45594000000E+02  0.51100000000E-03 0.  1.
         11   -1    0    0    0    0 -0.00000000000E+00 -0.00000000000E+00 -0.45593999997E+02  0.45594000000E+02  0.51100000000E-03 0. -1.
    9900012    2    1    2    0    0 -0.77332349706E+00 -0.80602453105E+00 -0.38173412281E+00  0.90007565454E+02  0.89999824518E+02 0.  0.
         12    1    1    2    0    0  0.77332349706E+00  0.80602453105E+00  0.38173412281E+00  0.11804345455E+01  0.00000000000E+00 0. -1.
         11    1    3    3    0    0 -0.31224265849E+02 -0.69619317056E+01 -0.16912301321E+02  0.36186312428E+02  0.51100000000E-03 0. -1.
        -11    1    3    3    0    0 -0.58745465090E+01 -0.63329385116E+01 -0.48016567847E+01  0.98829304873E+01  0.51100000000E-03 0.  1.
        -12    1    3    3    0    0  0.36325488861E+02  0.12488845686E+02  0.21332223983E+02  0.43938322540E+02  0.00000000000E+00 0.  1.
</event>
<event>
 7    1  0.3795708E-015  0.9000777E+02  0.7816164E-02  0.1186339E+00
        -11   -1    0    0    0    0  0.00000000000E+00  0.00000000000E+00  0.45593999997E+02  0.45594000000E+02  0.51100000000E-03 0.  1.
         11   -1    0    0    0    0 -0.00000000000E+00 -0.00000000000E+00 -0.45593999997E+02  0.45594000000E+02  0.51100000000E-03 0. -1.
    9900012    2    1    2    0    0  0.73566056841E+00 -0.86639744617E+00 -0.31795250318E+00  0.90007773411E+02  0.90000035220E+02 0.  0.
         12    1    1    2    0    0 -0.73566056841E+00  0.86639744617E+00  0.31795250318E+00  0.11802265888E+01  0.00000000000E+00 0. -1.
         11    1    3    3    0    0  0.22363931865E+02  0.13106154720E+02 -0.27690258194E+02  0.37929765872E+02  0.51100000000E-03 0. -1.
        -11    1    3    3    0    0 -0.68612731466E+01  0.96377897950E+01 -0.15457523769E+01  0.11931194911E+02  0.51100000000E-03 0.  1.
        -12    1    3    3    0    0 -0.14766998150E+02 -0.23610341961E+02  0.28918058067E+02  0.40146812629E+02  0.00000000000E+00 0.  1.
</event>
<event>
 7    1  0.3795708E-015  0.9000773E+02  0.7816164E-02  0.1186339E+00
        -11   -1    0    0    0    0  0.00000000000E+00  0.00000000000E+00  0.45593999997E+02  0.45594000000E+02  0.51100000000E-03 0. -1.
         11   -1    0    0    0    0 -0.00000000000E+00 -0.00000000000E+00 -0.45593999997E+02  0.45594000000E+02  0.51100000000E-03 0.  1.
    9900012    2    1    2    0    0  0.61969479683E+00 -0.48595559110E+00  0.87912852959E+00  0.90007728231E+02  0.89999989443E+02 0.  0.
         12    1    1    2    0    0 -0.61969479683E+00  0.48595559110E+00 -0.87912852959E+00  0.11802717692E+01  0.00000000000E+00 0. -1.
         11    1    3    3    0    0  0.25125337170E+02 -0.32872121800E+01 -0.14645192969E+02  0.29267217312E+02  0.51100000000E-03 0. -1.
        -11    1    3    3    0    0 -0.14139530859E+02  0.56077389055E+01 -0.19141480156E+02  0.24449321695E+02  0.51100000000E-03 0.  1.
         12    1    3    3    0    0 -0.10366111515E+02 -0.28064823165E+01  0.34665801654E+02  0.36291189223E+02  0.00000000000E+00 0. -1.
</event>
<event>
 7    1  0.3795708E-015  0.9000772E+02  0.7816164E-02  0.1186339E+00
        -11   -1    0    0    0    0  0.00000000000E+00  0.00000000000E+00  0.45593999997E+02  0.45594000000E+02  0.51100000000E-03 0.  1.
         11   -1    0    0    0    0 -0.00000000000E+00 -0.00000000000E+00 -0.45593999997E+02  0.45594000000E+02  0.51100000000E-03 0. -1.
    9900012    2    1    2    0    0  0.55155824032E+00  0.60868395678E-01  0.10416981589E+01  0.90007721851E+02  0.89999982980E+02 0.  0.
         12    1    1    2    0    0 -0.55155824032E+00 -0.60868395678E-01 -0.10416981589E+01  0.11802781487E+01  0.00000000000E+00 0. -1.
         11    1    3    3    0    0 -0.92881369234E+01 -0.13902286784E+00  0.20185223981E+01  0.95059585418E+01  0.51100000000E-03 0. -1.
        -11    1    3    3    0    0 -0.57871252544E+01  0.68672690384E+01  0.37436697554E+02  0.38498786042E+02  0.51100000000E-03 0.  1.
         12    1    3    3    0    0  0.15626820418E+02 -0.66673777749E+01 -0.38413521793E+02  0.42002977267E+02  0.00000000000E+00 0. -1.
</event>
<event>
 7    1  0.3795708E-015  0.9000776E+02  0.7816164E-02  0.1186339E+00
        -11   -1    0    0    0    0  0.00000000000E+00  0.00000000000E+00  0.45593999997E+02  0.45594000000E+02  0.51100000000E-03 0.  1.
         11   -1    0    0    0    0 -0.00000000000E+00 -0.00000000000E+00 -0.45593999997E+02  0.45594000000E+02  0.51100000000E-03 0. -1.
    9900012    2    1    2    0    0  0.80195186364E+00 -0.62331894513E-01  0.86368330446E+00  0.90007762351E+02  0.90000024014E+02 0.  0.
         12    1    1    2    0    0 -0.80195186364E+00  0.62331894513E-01 -0.86368330446E+00  0.11802376486E+01  0.00000000000E+00 0. -1.
         11    1    3    3    0    0  0.32304646962E+01 -0.20845686166E+01 -0.87115669498E+01  0.95222228209E+01  0.51100000000E-03 0. -1.
        -11    1    3    3    0    0 -0.15710393526E+02 -0.57879112143E+01  0.41656944018E+02  0.44895627472E+02  0.51100000000E-03 0.  1.
         12    1    3    3    0    0  0.13281880693E+02  0.78101479363E+01 -0.32081693764E+02  0.35589912058E+02  0.00000000000E+00 0. -1.
</event>
<event>
 7    1  0.3795708E-015  0.9000784E+02  0.7816164E-02  0.1186339E+00
        -11   -1    0    0    0    0  0.00000000000E+00  0.00000000000E+00  0.45593999997E+02  0.45594000000E+02  0.51100000000E-03 0. -1.
         11   -1    0    0    0    0 -0.00000000000E+00 -0.00000000000E+00 -0.45593999997E+02  0.45594000000E+02  0.51100000000E-03 0.  1.
    9900012    2    1    2    0    0 -0.70266074147E+00 -0.92216983873E+00  0.22057352690E+00  0.90007838143E+02  0.90000100806E+02 0.  0.
         12    1    1    2    0    0  0.70266074147E+00  0.92216983873E+00 -0.22057352690E+00  0.11801618575E+01  0.00000000000E+00 0. -1.
         11    1    3    3    0    0  0.20305642457E+02  0.31246532278E+02  0.78548508259E+01  0.38083639227E+02  0.51100000000E-03 0. -1.
        -11    1    3    3    0    0 -0.20802749461E+01  0.72484053071E+01 -0.22392212220E+01  0.78664499801E+01  0.51100000000E-03 0.  1.
        -12    1    3    3    0    0 -0.18928028252E+02 -0.39417107424E+02 -0.53950560770E+01  0.44057748936E+02  0.00000000000E+00 0.  1.
</event>
<event>
 7    1  0.3795708E-015  0.9000758E+02  0.7816164E-02  0.1186339E+00
        -11   -1    0    0    0    0  0.00000000000E+00  0.00000000000E+00  0.45593999997E+02  0.45594000000E+02  0.51100000000E-03 0.  1.
         11   -1    0    0    0    0 -0.00000000000E+00 -0.00000000000E+00 -0.45593999997E+02  0.45594000000E+02  0.51100000000E-03 0. -1.
    9900012    2    1    2    0    0 -0.61186072450E+00 -0.33754879310E+00  0.95135885429E+00  0.90007577871E+02  0.89999837098E+02 0.  0.
         12    1    1    2    0    0  0.61186072450E+00  0.33754879310E+00 -0.95135885429E+00  0.11804221294E+01  0.00000000000E+00 0. -1.
         11    1    3    3    0    0  0.74556450071E+01  0.83229965859E+00  0.51559489619E+01  0.91029212428E+01  0.51100000000E-03 0. -1.
        -11    1    3    3    0    0  0.22278150337E+02  0.72271836918E+01  0.27567880943E+02  0.36173695229E+02  0.51100000000E-03 0.  1.
         12    1    3    3    0    0 -0.30345656068E+02 -0.83970321435E+01 -0.31772471051E+02  0.44730961399E+02  0.00000000000E+00 0. -1.
</event>
<event>
 7    1  0.3795708E-015  0.9000773E+02  0.7816164E-02  0.1186339E+00
        -11   -1    0    0    0    0  0.00000000000E+00  0.00000000000E+00  0.45593999997E+02  0.45594000000E+02  0.51100000000E-03 0.  1.
         11   -1    0    0    0    0 -0.00000000000E+00 -0.00000000000E+00 -0.45593999997E+02  0.45594000000E+02  0.51100000000E-03 0. -1.
    9900012    2    1    2    0    0 -0.68862433705E+00  0.74111074327E+00  0.60793534376E+00  0.90007731389E+02  0.89999992644E+02 0.  0.
         12    1    1    2    0    0  0.68862433705E+00 -0.74111074327E+00 -0.60793534376E+00  0.11802686108E+01  0.00000000000E+00 0. -1.
         11    1    3    3    0    0 -0.89754441205E+01 -0.25592470631E+02 -0.11021148191E+02  0.29274542829E+02  0.51100000000E-03 0. -1.
        -11    1    3    3    0    0  0.21756512472E+02  0.55474416860E+01 -0.12882750946E+02  0.25886004257E+02  0.51100000000E-03 0.  1.
        -12    1    3    3    0    0 -0.13469692688E+02  0.20786139688E+02  0.24511834481E+02  0.34847184303E+02  0.00000000000E+00 0.  1.
</event>
<event>
 7    1  0.3795708E-015  0.9000775E+02  0.7816164E-02  0.1186339E+00
        -11   -1    0    0    0    0  0.00000000000E+00  0.00000000000E+00  0.45593999997E+02  0.45594000000E+02  0.51100000000E-03 0. -1.
         11   -1    0    0    0    0 -0.00000000000E+00 -0.00000000000E+00 -0.45593999997E+02  0.45594000000E+02  0.51100000000E-03 0.  1.
    9900012    2    1    2    0    0 -0.57877992885E-01 -0.26591988076E+00 -0.11484407658E+01  0.90007754501E+02  0.90000016061E+02 0.  0.
         12    1    1    2    0    0  0.57877992885E-01  0.26591988076E+00  0.11484407658E+01  0.11802454989E+01  0.00000000000E+00 0. -1.
         11    1    3    3    0    0  0.18374422255E+02  0.17584525816E+02  0.31450048527E+02  0.40446761230E+02  0.51100000000E-03 0. -1.
        -11    1    3    3    0    0 -0.57765459889E+01 -0.15424290784E+01  0.42423212542E+01  0.73310886578E+01  0.51100000000E-03 0.  1.
        -12    1    3    3    0    0 -0.12655754259E+02 -0.16308016618E+02 -0.36840810547E+02  0.42229904613E+02  0.00000000000E+00 0.  1.
</event>
<event>
 7    1  0.3795708E-015  0.9000768E+02  0.7816164E-02  0.1186339E+00
        -11   -1    0    0    0    0  0.00000000000E+00  0.00000000000E+00  0.45593999997E+02  0.45594000000E+02  0.51100000000E-03 0. -1.
         11   -1    0    0    0    0 -0.00000000000E+00 -0.00000000000E+00 -0.45593999997E+02  0.45594000000E+02  0.51100000000E-03 0.  1.
    9900012    2    1    2    0    0 -0.11447245349E+01  0.15892549874E+00 -0.23980560116E+00  0.90007678730E+02  0.89999939289E+02 0.  0.
         12    1    1    2    0    0  0.11447245349E+01 -0.15892549874E+00  0.23980560116E+00  0.11803212703E+01  0.00000000000E+00 0. -1.
         11    1    3    3    0    0 -0.31362684931E+02  0.32139878511E+02  0.34815437794E+01  0.45041213839E+02  0.51100000000E-03 0. -1.
        -11    1    3    3    0    0  0.38798857176E+01 -0.81043408244E+01 -0.27754887011E+01  0.94041050171E+01  0.51100000000E-03 0.  1.
        -12    1    3    3    0    0  0.26338074678E+02 -0.23876612188E+02 -0.94586067947E+00  0.35562359873E+02  0.00000000000E+00 0.  1.
</event>
<event>
 7    1  0.3795708E-015  0.9000775E+02  0.7816164E-02  0.1186339E+00
        -11   -1    0    0    0    0  0.00000000000E+00  0.00000000000E+00  0.45593999997E+02  0.45594000000E+02  0.51100000000E-03 0.  1.
         11   -1    0    0    0    0 -0.00000000000E+00 -0.00000000000E+00 -0.45593999997E+02  0.45594000000E+02  0.51100000000E-03 0. -1.
    9900012    2    1    2    0    0 -0.22239033034E+00  0.10306281185E+01  0.53040230729E+00  0.90007754947E+02  0.90000016512E+02 0.  0.
         12    1    1    2    0    0  0.22239033034E+00 -0.10306281185E+01 -0.53040230729E+00  0.11802450530E+01  0.00000000000E+00 0. -1.
         11    1    3    3    0    0  0.33615219822E+01 -0.34634924164E+01  0.78723059786E+01  0.92341112966E+01  0.51100000000E-03 0. -1.
        -11    1    3    3    0    0  0.33715414820E+02 -0.15347532431E+02 -0.10217333089E+02  0.38427462107E+02  0.51100000000E-03 0.  1.
         12    1    3    3    0    0 -0.37299327133E+02  0.19841652966E+02  0.28754294181E+01  0.42346181544E+02  0.00000000000E+00 0. -1.
</event>
<event>
 7    1  0.3795708E-015  0.9000765E+02  0.7816164E-02  0.1186339E+00
        -11   -1    0    0    0    0  0.00000000000E+00  0.00000000000E+00  0.45593999997E+02  0.45594000000E+02  0.51100000000E-03 0.  1.
         11   -1    0    0    0    0 -0.00000000000E+00 -0.00000000000E+00 -0.45593999997E+02  0.45594000000E+02  0.51100000000E-03 0. -1.
    9900012    2    1    2    0    0 -0.17511675534E+00  0.65807995591E+00  0.96410225782E+00  0.90007649090E+02  0.89999909258E+02 0.  0.
         12    1    1    2    0    0  0.17511675534E+00 -0.65807995591E+00 -0.96410225782E+00  0.11803509096E+01  0.00000000000E+00 0. -1.
         11    1    3    3    0    0 -0.24476535705E+02  0.22949071390E+02  0.13277505765E+02  0.36083969258E+02  0.51100000000E-03 0. -1.
        -11    1    3    3    0    0 -0.24367526667E+01  0.20281821280E+01  0.10643598108E+02  0.11105740283E+02  0.51100000000E-03 0.  1.
        -12    1    3    3    0    0  0.26738171616E+02 -0.24319173562E+02 -0.22957001615E+02  0.42817939550E+02  0.00000000000E+00 0.  1.
</event>
<event>
 7    1  0.3795708E-015  0.9000773E+02  0.7816164E-02  0.1186339E+00
        -11   -1    0    0    0    0  0.00000000000E+00  0.00000000000E+00  0.45593999997E+02  0.45594000000E+02  0.51100000000E-03 0.  1.
         11   -1    0    0    0    0 -0.00000000000E+00 -0.00000000000E+00 -0.45593999997E+02  0.45594000000E+02  0.51100000000E-03 0. -1.
    9900012    2    1    2    0    0 -0.18688237412E+00  0.87235366824E+00  0.77272732636E+00  0.90007731613E+02  0.89999992870E+02 0.  0.
         12    1    1    2    0    0  0.18688237412E+00 -0.87235366824E+00 -0.77272732636E+00  0.11802683869E+01  0.00000000000E+00 0. -1.
         11    1    3    3    0    0 -0.32059613215E+01 -0.57495193204E+01  0.79822531484E+01  0.10346570736E+02  0.51100000000E-03 0. -1.
        -11    1    3    3    0    0  0.13811523494E+02  0.19025283131E+02  0.30508123453E+02  0.38515778277E+02  0.51100000000E-03 0.  1.
         12    1    3    3    0    0 -0.10792444546E+02 -0.12403410143E+02 -0.37717649275E+02  0.41145382600E+02  0.00000000000E+00 0. -1.
</event>
<event>
 7    1  0.3795708E-015  0.9000772E+02  0.7816164E-02  0.1186339E+00
        -11   -1    0    0    0    0  0.00000000000E+00  0.00000000000E+00  0.45593999997E+02  0.45594000000E+02  0.51100000000E-03 0. -1.
         11   -1    0    0    0    0 -0.00000000000E+00 -0.00000000000E+00 -0.45593999997E+02  0.45594000000E+02  0.51100000000E-03 0.  1.
    9900012    2    1    2    0    0 -0.28126108022E+00 -0.11039706788E+01  0.30854456067E+00  0.90007720880E+02  0.89999981996E+02 0.  0.
         12    1    1    2    0    0  0.28126108022E+00  0.11039706788E+01 -0.30854456067E+00  0.11802791199E+01  0.00000000000E+00 0. -1.
         11    1    3    3    0    0  0.24665553011E+02  0.23511880037E+02  0.14039828318E+02  0.36855322379E+02  0.51100000000E-03 0. -1.
        -11    1    3    3    0    0  0.33906710706E-01  0.42307093487E+01  0.81367041713E+01  0.91709326837E+01  0.51100000000E-03 0.  1.
        -12    1    3    3    0    0 -0.24980720802E+02 -0.28846560065E+02 -0.21867987929E+02  0.43981465817E+02  0.00000000000E+00 0.  1.
</event>
<event>
 7    1  0.3795708E-015  0.9000772E+02  0.7816164E-02  0.1186339E+00
        -11   -1    0    0    0    0  0.00000000000E+00  0.00000000000E+00  0.45593999997E+02  0.45594000000E+02  0.51100000000E-03 0. -1.
         11   -1    0    0    0    0 -0.00000000000E+00 -0.00000000000E+00 -0.45593999997E+02  0.45594000000E+02  0.51100000000E-03 0.  1.
    9900012    2    1    2    0    0 -0.50481685263E+00 -0.69065900466E+00  0.81314301353E+00  0.90007723983E+02  0.89999985140E+02 0.  0.
         12    1    1    2    0    0  0.50481685263E+00  0.69065900466E+00 -0.81314301353E+00  0.11802760168E+01  0.00000000000E+00 0. -1.
         11    1    3    3    0    0  0.63409904980E+01  0.15464070696E+01  0.25166269807E+00  0.65316819959E+01  0.51100000000E-03 0. -1.
        -11    1    3    3    0    0 -0.21965820403E+02 -0.16366411078E+02 -0.33712949237E+02  0.43438688103E+02  0.51100000000E-03 0.  1.
         12    1    3    3    0    0  0.15120013052E+02  0.14129345003E+02  0.34274429553E+02  0.40037353885E+02  0.00000000000E+00 0. -1.
</event>
<event>
 7    1  0.3795708E-015  0.9000784E+02  0.7816164E-02  0.1186339E+00
        -11   -1    0    0    0    0  0.00000000000E+00  0.00000000000E+00  0.45593999997E+02  0.45594000000E+02  0.51100000000E-03 0. -1.
         11   -1    0    0    0    0 -0.00000000000E+00 -0.00000000000E+00 -0.45593999997E+02  0.45594000000E+02  0.51100000000E-03 0.  1.
    9900012    2    1    2    0    0  0.51108913996E+00  0.10769802397E+00 -0.10582797756E+01  0.90007844478E+02  0.90000107225E+02 0.  0.
         12    1    1    2    0    0 -0.51108913996E+00 -0.10769802397E+00  0.10582797756E+01  0.11801555223E+01  0.00000000000E+00 0. -1.
         11    1    3    3    0    0 -0.56716281502E+01 -0.95792546964E+01  0.36142126512E+00  0.11138227507E+02  0.51100000000E-03 0. -1.
        -11    1    3    3    0    0  0.58777631903E+01 -0.34326611472E+02 -0.14164764344E+01  0.34854996214E+02  0.51100000000E-03 0.  1.
         12    1    3    3    0    0  0.30495409987E+00  0.44013564193E+02 -0.32246063209E-02  0.44014620757E+02  0.00000000000E+00 0. -1.
</event>
<event>
 7    1  0.3795708E-015  0.9000773E+02  0.7816164E-02  0.1186339E+00
        -11   -1    0    0    0    0  0.00000000000E+00  0.00000000000E+00  0.45593999997E+02  0.45594000000E+02  0.51100000000E-03 0.  1.
         11   -1    0    0    0    0 -0.00000000000E+00 -0.00000000000E+00 -0.45593999997E+02  0.45594000000E+02  0.51100000000E-03 0. -1.
    9900012    2    1    2    0    0 -0.10737892116E+01 -0.25713761044E+00  0.41701806698E+00  0.90007725841E+02  0.89999987022E+02 0.  0.
         12    1    1    2    0    0  0.10737892116E+01  0.25713761044E+00 -0.41701806698E+00  0.11802741588E+01  0.00000000000E+00 0. -1.
         11    1    3    3    0    0 -0.59074447227E+01  0.38790783071E+01 -0.55173917134E+01  0.89658665641E+01  0.51100000000E-03 0. -1.
        -11    1    3    3    0    0  0.10804146147E+02  0.36883924654E+02 -0.32940510082E+01  0.38574658057E+02  0.51100000000E-03 0.  1.
         12    1    3    3    0    0 -0.59704906361E+01 -0.41020140572E+02  0.92284607886E+01  0.42467201221E+02  0.00000000000E+00 0. -1.
</event>
<event>
 7    1  0.3795708E-015  0.9000773E+02  0.7816164E-02  0.1186339E+00
        -11   -1    0    0    0    0  0.00000000000E+00  0.00000000000E+00  0.45593999997E+02  0.45594000000E+02  0.51100000000E-03 0.  1.
         11   -1    0    0    0    0 -0.00000000000E+00 -0.00000000000E+00 -0.45593999997E+02  0.45594000000E+02  0.51100000000E-03 0. -1.
    9900012    2    1    2    0    0  0.33819702612E+00 -0.92857214524E+00  0.64530742180E+00  0.90007726673E+02  0.89999987865E+02 0.  0.
         12    1    1    2    0    0 -0.33819702612E+00  0.92857214524E+00 -0.64530742180E+00  0.11802733268E+01  0.00000000000E+00 0. -1.
         11    1    3    3    0    0 -0.14471970147E+02 -0.16651946043E+02 -0.28077047880E+02  0.35707784093E+02  0.51100000000E-03 0. -1.
        -11    1    3    3    0    0 -0.39602024669E+01  0.30177095382E+01 -0.90035533928E+01  0.10288525084E+02  0.51100000000E-03 0.  1.
        -12    1    3    3    0    0  0.18770369640E+02  0.12705664359E+02  0.37725908695E+02  0.44011417496E+02  0.00000000000E+00 0.  1.
</event>
<event>
 7    1  0.3795708E-015  0.9000772E+02  0.7816164E-02  0.1186339E+00
        -11   -1    0    0    0    0  0.00000000000E+00  0.00000000000E+00  0.45593999997E+02  0.45594000000E+02  0.51100000000E-03 0. -1.
         11   -1    0    0    0    0 -0.00000000000E+00 -0.00000000000E+00 -0.45593999997E+02  0.45594000000E+02  0.51100000000E-03 0.  1.
    9900012    2    1    2    0    0  0.81402090042E+00  0.51123571184E+00 -0.68487907073E+00  0.90007724049E+02  0.89999985206E+02 0.  0.
         12    1    1    2    0    0 -0.81402090042E+00 -0.51123571184E+00  0.68487907073E+00  0.11802759512E+01  0.00000000000E+00 0. -1.
         11    1    3    3    0    0 -0.79977912271E+01 -0.63868353975E+01  0.55328371389E+01  0.11634802017E+02  0.51100000000E-03 0. -1.
        -11    1    3    3    0    0 -0.55018888634E+01 -0.32054002189E+02 -0.15221662826E+02  0.35908618141E+02  0.51100000000E-03 0.  1.
         12    1    3    3    0    0  0.14313700991E+02  0.38952073298E+02  0.90039466160E+01  0.42464303891E+02  0.00000000000E+00 0. -1.
</event>
<event>
 7    1  0.3795708E-015  0.9000770E+02  0.7816164E-02  0.1186339E+00
        -11   -1    0    0    0    0  0.00000000000E+00  0.00000000000E+00  0.45593999997E+02  0.45594000000E+02  0.51100000000E-03 0. -1.
         11   -1    0    0    0    0 -0.00000000000E+00 -0.00000000000E+00 -0.45593999997E+02  0.45594000000E+02  0.51100000000E-03 0.  1.
    9900012    2    1    2    0    0  0.42779187022E+00  0.97655381921E+00 -0.50639927603E+00  0.90007701956E+02  0.89999962822E+02 0.  0.
         12    1    1    2    0    0 -0.42779187022E+00 -0.97655381921E+00  0.50639927603E+00  0.11802980441E+01  0.00000000000E+00 0. -1.
         11    1    3    3    0    0 -0.29434702809E+02 -0.81311064695E+01  0.13251402554E+02  0.33288380732E+02  0.51100000000E-03 0. -1.
        -11    1    3    3    0    0 -0.98463095772E+01 -0.10909225283E+01  0.56017656812E+01  0.11380672355E+02  0.51100000000E-03 0.  1.
        -12    1    3    3    0    0  0.39708804257E+02  0.10198582817E+02 -0.19359567511E+02  0.45338648868E+02  0.00000000000E+00 0.  1.
</event>
<event>
 7    1  0.3795708E-015  0.9000771E+02  0.7816164E-02  0.1186339E+00
        -11   -1    0    0    0    0  0.00000000000E+00  0.00000000000E+00  0.45593999997E+02  0.45594000000E+02  0.51100000000E-03 0. -1.
         11   -1    0    0    0    0 -0.00000000000E+00 -0.00000000000E+00 -0.45593999997E+02  0.45594000000E+02  0.51100000000E-03 0.  1.
    9900012    2    1    2    0    0  0.47394956722E+00  0.54544200510E+00 -0.93324365431E+00  0.90007712369E+02  0.89999973372E+02 0.  0.
         12    1    1    2    0    0 -0.47394956722E+00 -0.54544200510E+00  0.93324365431E+00  0.11802876308E+01  0.00000000000E+00 0. -1.
         11    1    3    3    0    0 -0.68221036198E+01  0.61805064444E+01  0.50856371920E+01  0.10516818132E+02  0.51100000000E-03 0. -1.
        -11    1    3    3    0    0 -0.24790549526E+02  0.19906572420E+02  0.12918965565E+02  0.34318255242E+02  0.51100000000E-03 0.  1.
         12    1    3    3    0    0  0.32086602713E+02 -0.25541636860E+02 -0.18937846412E+02  0.45172638995E+02  0.00000000000E+00 0. -1.
</event>
<event>
 7    1  0.3795708E-015  0.9000762E+02  0.7816164E-02  0.1186339E+00
        -11   -1    0    0    0    0  0.00000000000E+00  0.00000000000E+00  0.45593999997E+02  0.45594000000E+02  0.51100000000E-03 0.  1.
         11   -1    0    0    0    0 -0.00000000000E+00 -0.00000000000E+00 -0.45593999997E+02  0.45594000000E+02  0.51100000000E-03 0. -1.
    9900012    2    1    2    0    0  0.16005885306E-01  0.95235219414E+00  0.69718204580E+00  0.90007621376E+02  0.89999881178E+02 0.  0.
         12    1    1    2    0    0 -0.16005885306E-01 -0.95235219414E+00 -0.69718204580E+00  0.11803786236E+01  0.00000000000E+00 0. -1.
         11    1    3    3    0    0  0.27229083348E+02  0.67447656601E+01 -0.31339039384E+02  0.42060078858E+02  0.51100000000E-03 0. -1.
        -11    1    3    3    0    0 -0.10355757420E+02  0.49112354681E+01  0.16385857137E+01  0.11577862884E+02  0.51100000000E-03 0.  1.
        -12    1    3    3    0    0 -0.16857320043E+02 -0.10703648934E+02  0.30397635716E+02  0.36369679634E+02  0.00000000000E+00 0.  1.
</event>
<event>
 7    1  0.3795708E-015  0.9000756E+02  0.7816164E-02  0.1186339E+00
        -11   -1    0    0    0    0  0.00000000000E+00  0.00000000000E+00  0.45593999997E+02  0.45594000000E+02  0.51100000000E-03 0. -1.
         11   -1    0    0    0    0 -0.00000000000E+00 -0.00000000000E+00 -0.45593999997E+02  0.45594000000E+02  0.51100000000E-03 0.  1.
    9900012    2    1    2    0    0 -0.34102523630E+00 -0.89971179827E+00  0.68385916368E+00  0.90007558181E+02  0.89999817149E+02 0.  0.
         12    1    1    2    0    0  0.34102523630E+00  0.89971179827E+00 -0.68385916368E+00  0.11804418188E+01  0.00000000000E+00 0. -1.
         11    1    3    3    0    0 -0.31912482695E+02 -0.13876864876E+02  0.14588354828E+02  0.37733195299E+02  0.51100000000E-03 0. -1.
        -11    1    3    3    0    0  0.13102206409E+01  0.17717093603E+01 -0.19413573144E+02  0.19538230592E+02  0.51100000000E-03 0.  1.
        -12    1    3    3    0    0  0.30261236818E+02  0.11205443718E+02  0.55090774795E+01  0.32736132291E+02  0.00000000000E+00 0.  1.
</event>
<event>
 7    1  0.3795708E-015  0.9000771E+02  0.7816164E-02  0.1186339E+00
        -11   -1    0    0    0    0  0.00000000000E+00  0.00000000000E+00  0.45593999997E+02  0.45594000000E+02  0.51100000000E-03 0.  1.
         11   -1    0    0    0    0 -0.00000000000E+00 -0.00000000000E+00 -0.45593999997E+02  0.45594000000E+02  0.51100000000E-03 0. -1.
    9900012    2    1    2    0    0 -0.23914270559E+00 -0.20528808634E+00  0.11374276468E+01  0.90007714406E+02  0.89999975436E+02 0.  0.
         12    1    1    2    0    0  0.23914270559E+00  0.20528808634E+00 -0.11374276468E+01  0.11802855941E+01  0.00000000000E+00 0. -1.
         11    1    3    3    0    0 -0.20910090570E+01 -0.29496619673E+01  0.95445286824E+01  0.10206412329E+02  0.51100000000E-03 0. -1.
        -11    1    3    3    0    0  0.20197471126E+01  0.36748375371E+02  0.13667973030E+02  0.39259851729E+02  0.51100000000E-03 0.  1.
         12    1    3    3    0    0 -0.16788076116E+00 -0.34004001490E+02 -0.22075074066E+02  0.40541450348E+02  0.00000000000E+00 0. -1.
</event>
<event>
 7    1  0.3795708E-015  0.9000762E+02  0.7816164E-02  0.1186339E+00
        -11   -1    0    0    0    0  0.00000000000E+00  0.00000000000E+00  0.45593999997E+02  0.45594000000E+02  0.51100000000E-03 0.  1.
         11   -1    0    0    0    0 -0.00000000000E+00 -0.00000000000E+00 -0.45593999997E+02  0.45594000000E+02  0.51100000000E-03 0. -1.
    9900012    2    1    2    0    0  0.11286496377E+00 -0.11651912466E+01 -0.15130901901E+00  0.90007617197E+02  0.89999876944E+02 0.  0.
         12    1    1    2    0    0 -0.11286496377E+00  0.11651912466E+01  0.15130901901E+00  0.11803828025E+01  0.00000000000E+00 0. -1.
         11    1    3    3    0    0 -0.30465792789E+00 -0.11754514697E+00  0.97096989544E+01  0.97151884881E+01  0.51100000000E-03 0. -1.
        -11    1    3    3    0    0  0.31662472483E+02 -0.24974904782E+02 -0.53620216957E+01  0.40681805633E+02  0.51100000000E-03 0.  1.
         12    1    3    3    0    0 -0.31244949591E+02  0.23927258683E+02 -0.44989862776E+01  0.39610623077E+02  0.00000000000E+00 0. -1.
</event>
<event>
 7    1  0.3795708E-015  0.9000772E+02  0.7816164E-02  0.1186339E+00
        -11   -1    0    0    0    0  0.00000000000E+00  0.00000000000E+00  0.45593999997E+02  0.45594000000E+02  0.51100000000E-03 0. -1.
         11   -1    0    0    0    0 -0.00000000000E+00 -0.00000000000E+00 -0.45593999997E+02  0.45594000000E+02  0.51100000000E-03 0.  1.
    9900012    2    1    2    0    0  0.53327510005E+00  0.92364217646E+00 -0.50553819618E+00  0.90007717801E+02  0.89999978876E+02 0.  0.
         12    1    1    2    0    0 -0.53327510005E+00 -0.92364217646E+00  0.50553819618E+00  0.11802821994E+01  0.00000000000E+00 0. -1.
         11    1    3    3    0    0  0.45847988977E+01 -0.73303458017E+01  0.50812331489E+01  0.10028623090E+02  0.51100000000E-03 0. -1.
        -11    1    3    3    0    0 -0.37219258121E+02  0.22293472425E+02 -0.69411038171E+01  0.43936898050E+02  0.51100000000E-03 0.  1.
         12    1    3    3    0    0  0.33167734323E+02 -0.14039484447E+02  0.13543324721E+01  0.36042196660E+02  0.00000000000E+00 0. -1.
</event>
<event>
 7    1  0.3795708E-015  0.9000768E+02  0.7816164E-02  0.1186339E+00
        -11   -1    0    0    0    0  0.00000000000E+00  0.00000000000E+00  0.45593999997E+02  0.45594000000E+02  0.51100000000E-03 0.  1.
         11   -1    0    0    0    0 -0.00000000000E+00 -0.00000000000E+00 -0.45593999997E+02  0.45594000000E+02  0.51100000000E-03 0. -1.
    9900012    2    1    2    0    0  0.11681497262E+01 -0.16454970993E+00 -0.38756008982E-01  0.90007681222E+02  0.89999941814E+02 0.  0.
         12    1    1    2    0    0 -0.11681497262E+01  0.16454970993E+00  0.38756008982E-01  0.11803187782E+01  0.00000000000E+00 0. -1.
         11    1    3    3    0    0 -0.24048652139E+02 -0.27865667408E+02  0.97224178006E+01  0.38070441263E+02  0.51100000000E-03 0. -1.
        -11    1    3    3    0    0 -0.76960111096E+01  0.12450970673E+02 -0.13425101991E+01  0.14698897632E+02  0.51100000000E-03 0.  1.
        -12    1    3    3    0    0  0.32912812975E+02  0.15250147026E+02 -0.84186636104E+01  0.37238342326E+02  0.00000000000E+00 0.  1.
</event>
<event>
 7    1  0.3795708E-015  0.9000774E+02  0.7816164E-02  0.1186339E+00
        -11   -1    0    0    0    0  0.00000000000E+00  0.00000000000E+00  0.45593999997E+02  0.45594000000E+02  0.51100000000E-03 0. -1.
         11   -1    0    0    0    0 -0.00000000000E+00 -0.00000000000E+00 -0.45593999997E+02  0.45594000000E+02  0.51100000000E-03 0.  1.
    9900012    2    1    2    0    0 -0.38459315050E+00  0.99400275292E+00 -0.50700713054E+00  0.90007741725E+02  0.90000003116E+02 0.  0.
         12    1    1    2    0    0  0.38459315050E+00 -0.99400275292E+00  0.50700713054E+00  0.11802582745E+01  0.00000000000E+00 0. -1.
         11    1    3    3    0    0  0.71497137253E+01 -0.92462881764E+01  0.34448438007E+02  0.36377288695E+02  0.51100000000E-03 0. -1.
        -11    1    3    3    0    0 -0.41412349927E+01  0.26192571470E+01  0.82671260638E+01  0.96101877652E+01  0.51100000000E-03 0.  1.
        -12    1    3    3    0    0 -0.33930718831E+01  0.76210337823E+01 -0.43222571202E+02  0.44020265265E+02  0.00000000000E+00 0.  1.
</event>
<event>
 7    1  0.3795708E-015  0.9000772E+02  0.7816164E-02  0.1186339E+00
        -11   -1    0    0    0    0  0.00000000000E+00  0.00000000000E+00  0.45593999997E+02  0.45594000000E+02  0.51100000000E-03 0.  1.
         11   -1    0    0    0    0 -0.00000000000E+00 -0.00000000000E+00 -0.45593999997E+02  0.45594000000E+02  0.51100000000E-03 0. -1.
    9900012    2    1    2    0    0 -0.28763580775E+00  0.39999435183E+00  0.10725346593E+01  0.90007720188E+02  0.89999981294E+02 0.  0.
         12    1    1    2    0    0  0.28763580775E+00 -0.39999435183E+00 -0.10725346593E+01  0.11802798121E+01  0.00000000000E+00 0. -1.
         11    1    3    3    0    0 -0.82019848014E+01 -0.34574478897E+02 -0.28676817921E+01  0.35649554622E+02  0.51100000000E-03 0. -1.
        -11    1    3    3    0    0  0.68540586993E+01 -0.77597565510E+01 -0.35790116849E+01  0.10954508993E+02  0.51100000000E-03 0.  1.
        -12    1    3    3    0    0  0.10602902943E+01  0.42734229799E+02  0.75192281364E+01  0.43403656572E+02  0.00000000000E+00 0.  1.
</event>
<event>
 7    1  0.5990413E-015  0.9000757E+02  0.7816164E-02  0.1186339E+00
        -11   -1    0    0    0    0  0.00000000000E+00  0.00000000000E+00  0.45593999997E+02  0.45594000000E+02  0.51100000000E-03 0. -1.
         11   -1    0    0    0    0 -0.00000000000E+00 -0.00000000000E+00 -0.45593999997E+02  0.45594000000E+02  0.51100000000E-03 0.  1.
    9900012    2    1    2    0    0 -0.97699423730E+00 -0.27563677251E+00 -0.60242871710E+00  0.90007570532E+02  0.89999829663E+02 0.  0.
         12    1    1    2    0    0  0.97699423730E+00  0.27563677251E+00  0.60242871710E+00  0.11804294681E+01  0.00000000000E+00 0. -1.
         11    1    3    3    0    0 -0.33157200955E+02 -0.31833572763E+01  0.22903005572E+02  0.40423772748E+02  0.51100000000E-03 0. -1.
        -11    1    3    3    0    0 -0.40451572289E+01 -0.40279914730E+01 -0.73781656932E+01  0.93287374050E+01  0.51100000000E-03 0.  1.
        -12    1    3    3    0    0  0.36225363947E+02  0.69357119768E+01 -0.16127268595E+02  0.40255060378E+02  0.00000000000E+00 0.  1.
</event>
<event>
 7    1  0.3795708E-015  0.9000784E+02  0.7816164E-02  0.1186339E+00
        -11   -1    0    0    0    0  0.00000000000E+00  0.00000000000E+00  0.45593999997E+02  0.45594000000E+02  0.51100000000E-03 0. -1.
         11   -1    0    0    0    0 -0.00000000000E+00 -0.00000000000E+00 -0.45593999997E+02  0.45594000000E+02  0.51100000000E-03 0.  1.
    9900012    2    1    2    0    0 -0.10065268977E+01  0.53844089678E-01 -0.61382162530E+00  0.90007842142E+02  0.90000104858E+02 0.  0.
         12    1    1    2    0    0  0.10065268977E+01 -0.53844089678E-01  0.61382162530E+00  0.11801578579E+01  0.00000000000E+00 0. -1.
         11    1    3    3    0    0  0.41507237008E+01 -0.15744324083E+01  0.81996627417E+01  0.93242594337E+01  0.51100000000E-03 0. -1.
        -11    1    3    3    0    0 -0.20530740223E+00  0.26482266749E+02 -0.35231765602E+02  0.44075275506E+02  0.51100000000E-03 0.  1.
         12    1    3    3    0    0 -0.49519431963E+01 -0.24853990251E+02  0.26418281235E+02  0.36608307202E+02  0.00000000000E+00 0. -1.
</event>
<event>
 7    1  0.3795708E-015  0.9000770E+02  0.7816164E-02  0.1186339E+00
        -11   -1    0    0    0    0  0.00000000000E+00  0.00000000000E+00  0.45593999997E+02  0.45594000000E+02  0.51100000000E-03 0. -1.
         11   -1    0    0    0    0 -0.00000000000E+00 -0.00000000000E+00 -0.45593999997E+02  0.45594000000E+02  0.51100000000E-03 0.  1.
    9900012    2    1    2    0    0 -0.99108054652E+00 -0.60784543933E+00 -0.20343425173E+00  0.90007702486E+02  0.89999963358E+02 0.  0.
         12    1    1    2    0    0  0.99108054652E+00  0.60784543933E+00  0.20343425173E+00  0.11802975144E+01  0.00000000000E+00 0. -1.
         11    1    3    3    0    0 -0.60853016482E+01 -0.86269622328E+00  0.16931168880E+02  0.18012207550E+02  0.51100000000E-03 0. -1.
        -11    1    3    3    0    0 -0.24507327630E+02 -0.15857428127E+02  0.76321616962E+01  0.30171460468E+02  0.51100000000E-03 0.  1.
        -12    1    3    3    0    0  0.29601548732E+02  0.16112278911E+02 -0.24766764828E+02  0.41824034467E+02  0.00000000000E+00 0.  1.
</event>
<event>
 7    1  0.3795708E-015  0.9000833E+02  0.7816164E-02  0.1186338E+00
        -11   -1    0    0    0    0  0.00000000000E+00  0.00000000000E+00  0.45593999997E+02  0.45594000000E+02  0.51100000000E-03 0. -1.
         11   -1    0    0    0    0 -0.00000000000E+00 -0.00000000000E+00 -0.45593999997E+02  0.45594000000E+02  0.51100000000E-03 0.  1.
    9900012    2    1    2    0    0  0.17271673235E+00  0.48048695095E+00 -0.10634442537E+01  0.90008333750E+02  0.90000602954E+02 0.  0.
         12    1    1    2    0    0 -0.17271673235E+00 -0.48048695095E+00  0.10634442537E+01  0.11796662495E+01  0.00000000000E+00 0. -1.
         11    1    3    3    0    0 -0.26527737700E+01  0.10670681734E+01 -0.44597641398E+01  0.52976730369E+01  0.51100000000E-03 0. -1.
        -11    1    3    3    0    0 -0.20597168183E+02  0.34320230796E+02 -0.87139420627E+01  0.40964061878E+02  0.51100000000E-03 0.  1.
         12    1    3    3    0    0  0.23422658685E+02 -0.34906812018E+02  0.12110261949E+02  0.43746598835E+02  0.00000000000E+00 0. -1.
</event>
<event>
 7    1  0.3795708E-015  0.9000749E+02  0.7816164E-02  0.1186340E+00
        -11   -1    0    0    0    0  0.00000000000E+00  0.00000000000E+00  0.45593999997E+02  0.45594000000E+02  0.51100000000E-03 0.  1.
         11   -1    0    0    0    0 -0.00000000000E+00 -0.00000000000E+00 -0.45593999997E+02  0.45594000000E+02  0.51100000000E-03 0. -1.
    9900012    2    1    2    0    0  0.80770083847E+00 -0.64270039921E-01  0.85853555937E+00  0.90007493927E+02  0.89999752046E+02 0.  0.
         12    1    1    2    0    0 -0.80770083847E+00  0.64270039921E-01 -0.85853555937E+00  0.11805060733E+01  0.00000000000E+00 0. -1.
         11    1    3    3    0    0 -0.36513420827E+02  0.38140585416E+01  0.10080471630E+02  0.38070892445E+02  0.51100000000E-03 0. -1.
        -11    1    3    3    0    0 -0.53483764776E+01  0.62350124198E+00 -0.71892449895E+01  0.89821561178E+01  0.51100000000E-03 0.  1.
        -12    1    3    3    0    0  0.42669498143E+02 -0.45018298235E+01 -0.20326910808E+01  0.42954445364E+02  0.00000000000E+00 0.  1.
</event>
<event>
 7    1  0.3795708E-015  0.9000757E+02  0.7816164E-02  0.1186339E+00
        -11   -1    0    0    0    0  0.00000000000E+00  0.00000000000E+00  0.45593999997E+02  0.45594000000E+02  0.51100000000E-03 0. -1.
         11   -1    0    0    0    0 -0.00000000000E+00 -0.00000000000E+00 -0.45593999997E+02  0.45594000000E+02  0.51100000000E-03 0.  1.
    9900012    2    1    2    0    0 -0.28877056752E+00  0.23718366821E+00 -0.11197192300E+01  0.90007569703E+02  0.89999828822E+02 0.  0.
         12    1    1    2    0    0  0.28877056752E+00 -0.23718366821E+00  0.11197192300E+01  0.11804302975E+01  0.00000000000E+00 0. -1.
         11    1    3    3    0    0  0.64737886069E+01  0.70029877897E+01  0.18664134124E+01  0.97177814442E+01  0.51100000000E-03 0. -1.
        -11    1    3    3    0    0  0.32627515686E+02  0.94608481686E+01 -0.13258942462E+02  0.36467272771E+02  0.51100000000E-03 0.  1.
         12    1    3    3    0    0 -0.39390074860E+02 -0.16226652290E+02  0.10272809820E+02  0.43822515487E+02  0.00000000000E+00 0. -1.
</event>
<event>
 7    1  0.3795708E-015  0.9000775E+02  0.7816164E-02  0.1186339E+00
        -11   -1    0    0    0    0  0.00000000000E+00  0.00000000000E+00  0.45593999997E+02  0.45594000000E+02  0.51100000000E-03 0.  1.
         11   -1    0    0    0    0 -0.00000000000E+00 -0.00000000000E+00 -0.45593999997E+02  0.45594000000E+02  0.51100000000E-03 0. -1.
    9900012    2    1    2    0    0 -0.33918675750E+00 -0.26181977674E+00  0.10997241139E+01  0.90007749866E+02  0.90000011364E+02 0.  0.
         12    1    1    2    0    0  0.33918675750E+00  0.26181977674E+00 -0.10997241139E+01  0.11802501339E+01  0.00000000000E+00 0. -1.
         11    1    3    3    0    0 -0.98414717268E+01 -0.16675909196E+01 -0.15784997666E+01  0.10105794724E+02  0.51100000000E-03 0. -1.
        -11    1    3    3    0    0 -0.95086136517E+01  0.30618176250E+02  0.23091093081E+02  0.39510568591E+02  0.51100000000E-03 0.  1.
         12    1    3    3    0    0  0.19010898621E+02 -0.29212405107E+02 -0.20412869200E+02  0.40391386551E+02  0.00000000000E+00 0. -1.
</event>
<event>
 7    1  0.3795708E-015  0.9000773E+02  0.7816164E-02  0.1186339E+00
        -11   -1    0    0    0    0  0.00000000000E+00  0.00000000000E+00  0.45593999997E+02  0.45594000000E+02  0.51100000000E-03 0. -1.
         11   -1    0    0    0    0 -0.00000000000E+00 -0.00000000000E+00 -0.45593999997E+02  0.45594000000E+02  0.51100000000E-03 0.  1.
    9900012    2    1    2    0    0  0.90428579742E-01  0.11231697048E+01 -0.35122061168E+00  0.90007727391E+02  0.89999988592E+02 0.  0.
         12    1    1    2    0    0 -0.90428579742E-01 -0.11231697048E+01  0.35122061168E+00  0.11802726091E+01  0.00000000000E+00 0. -1.
         11    1    3    3    0    0  0.14037284441E+02 -0.35199298464E+02  0.11724797237E+02  0.39667453124E+02  0.51100000000E-03 0. -1.
        -11    1    3    3    0    0 -0.76717409182E+01 -0.17918161423E+01  0.35891524955E+01  0.86572645622E+01  0.51100000000E-03 0.  1.
        -12    1    3    3    0    0 -0.62751149430E+01  0.38114284311E+02 -0.15665170344E+02  0.41683009704E+02  0.00000000000E+00 0.  1.
</event>
<event>
 7    1  0.3795708E-015  0.9000790E+02  0.7816164E-02  0.1186339E+00
        -11   -1    0    0    0    0  0.00000000000E+00  0.00000000000E+00  0.45593999997E+02  0.45594000000E+02  0.51100000000E-03 0.  1.
         11   -1    0    0    0    0 -0.00000000000E+00 -0.00000000000E+00 -0.45593999997E+02  0.45594000000E+02  0.51100000000E-03 0. -1.
    9900012    2    1    2    0    0  0.86531514154E+00 -0.54240824662E+00 -0.59131426164E+00  0.90007902734E+02  0.90000166250E+02 0.  0.
         12    1    1    2    0    0 -0.86531514154E+00  0.54240824662E+00  0.59131426164E+00  0.11800972656E+01  0.00000000000E+00 0. -1.
         11    1    3    3    0    0  0.10707441538E+02  0.32881859866E+02 -0.19226537569E+02  0.39566725410E+02  0.51100000000E-03 0. -1.
        -11    1    3    3    0    0 -0.15759685023E+01 -0.49082392702E+01 -0.86813539266E+01  0.10096553655E+02  0.51100000000E-03 0.  1.
        -12    1    3    3    0    0 -0.82661578944E+01 -0.28516028842E+02  0.27316577234E+02  0.40344623669E+02  0.00000000000E+00 0.  1.
</event>
<event>
 7    1  0.3795708E-015  0.9000770E+02  0.7816164E-02  0.1186339E+00
        -11   -1    0    0    0    0  0.00000000000E+00  0.00000000000E+00  0.45593999997E+02  0.45594000000E+02  0.51100000000E-03 0.  1.
         11   -1    0    0    0    0 -0.00000000000E+00 -0.00000000000E+00 -0.45593999997E+02  0.45594000000E+02  0.51100000000E-03 0. -1.
    9900012    2    1    2    0    0  0.88894560975E+00 -0.77624076136E+00 -0.18529036851E-01  0.90007696081E+02  0.89999956869E+02 0.  0.
         12    1    1    2    0    0 -0.88894560975E+00  0.77624076136E+00  0.18529036851E-01  0.11803039193E+01  0.00000000000E+00 0. -1.
         11    1    3    3    0    0  0.57093552895E+00  0.63329591818E+01  0.59395103341E+01  0.87011563971E+01  0.51100000000E-03 0. -1.
        -11    1    3    3    0    0 -0.32197329602E+02  0.20690737152E+02 -0.40244671296E+01  0.38483385680E+02  0.51100000000E-03 0.  1.
         12    1    3    3    0    0  0.32515339683E+02 -0.27799937096E+02 -0.19335722414E+01  0.42823154004E+02  0.00000000000E+00 0. -1.
</event>
<event>
 7    1  0.3795708E-015  0.9000829E+02  0.7816164E-02  0.1186338E+00
        -11   -1    0    0    0    0  0.00000000000E+00  0.00000000000E+00  0.45593999997E+02  0.45594000000E+02  0.51100000000E-03 0.  1.
         11   -1    0    0    0    0 -0.00000000000E+00 -0.00000000000E+00 -0.45593999997E+02  0.45594000000E+02  0.51100000000E-03 0. -1.
    9900012    2    1    2    0    0 -0.73594807095E+00 -0.58934671229E+00  0.70906672067E+00  0.90008286168E+02  0.90000554744E+02 0.  0.
         12    1    1    2    0    0  0.73594807095E+00  0.58934671229E+00 -0.70906672067E+00  0.11797138317E+01  0.00000000000E+00 0. -1.
         11    1    3    3    0    0 -0.24819487463E+02 -0.30676214287E+02 -0.18360921134E+02  0.43521954299E+02  0.51100000000E-03 0. -1.
        -11    1    3    3    0    0 -0.16188086520E+01  0.54840638847E+01  0.67218102026E+01  0.88248643505E+01  0.51100000000E-03 0.  1.
        -12    1    3    3    0    0  0.25702348044E+02  0.24602803690E+02  0.12348177652E+02  0.37661467519E+02  0.00000000000E+00 0.  1.
</event>
<event>
 7    1  0.3795708E-015  0.9000768E+02  0.7816164E-02  0.1186339E+00
        -11   -1    0    0    0    0  0.00000000000E+00  0.00000000000E+00  0.45593999997E+02  0.45594000000E+02  0.51100000000E-03 0.  1.
         11   -1    0    0    0    0 -0.00000000000E+00 -0.00000000000E+00 -0.45593999997E+02  0.45594000000E+02  0.51100000000E-03 0. -1.
    9900012    2    1    2    0    0  0.52794308450E+00 -0.99136645093E+00  0.36279312602E+00  0.90007682165E+02  0.89999942769E+02 0.  0.
         12    1    1    2    0    0 -0.52794308450E+00  0.99136645093E+00 -0.36279312602E+00  0.11803178355E+01  0.00000000000E+00 0. -1.
         11    1    3    3    0    0 -0.22612876163E+02 -0.10068964863E+02  0.27630732881E+02  0.37096948952E+02  0.51100000000E-03 0. -1.
        -11    1    3    3    0    0 -0.46591048692E+01 -0.46200205026E+01  0.49405424644E+01  0.82134528507E+01  0.51100000000E-03 0.  1.
        -12    1    3    3    0    0  0.27799924116E+02  0.13697618914E+02 -0.32208482220E+02  0.44697280361E+02  0.00000000000E+00 0.  1.
</event>
<event>
 7    1  0.3795708E-015  0.9000780E+02  0.7816164E-02  0.1186339E+00
        -11   -1    0    0    0    0  0.00000000000E+00  0.00000000000E+00  0.45593999997E+02  0.45594000000E+02  0.51100000000E-03 0.  1.
         11   -1    0    0    0    0 -0.00000000000E+00 -0.00000000000E+00 -0.45593999997E+02  0.45594000000E+02  0.51100000000E-03 0. -1.
    9900012    2    1    2    0    0  0.28484152859E+00 -0.11417198473E+01 -0.90645594658E-01  0.90007798521E+02  0.90000060662E+02 0.  0.
         12    1    1    2    0    0 -0.28484152859E+00  0.11417198473E+01  0.90645594658E-01  0.11802014785E+01  0.00000000000E+00 0. -1.
         11    1    3    3    0    0 -0.13268557960E+01 -0.38604412080E+01  0.47937974565E+01  0.62963518754E+01  0.51100000000E-03 0. -1.
        -11    1    3    3    0    0 -0.56592214032E+01  0.42587199433E+02 -0.66950797084E+00  0.42966784656E+02  0.51100000000E-03 0.  1.
         12    1    3    3    0    0  0.72709187277E+01 -0.39868478073E+02 -0.42149350803E+01  0.40744661990E+02  0.00000000000E+00 0. -1.
</event>
<event>
 7    1  0.3795708E-015  0.9000800E+02  0.7816164E-02  0.1186339E+00
        -11   -1    0    0    0    0  0.00000000000E+00  0.00000000000E+00  0.45593999997E+02  0.45594000000E+02  0.51100000000E-03 0. -1.
         11   -1    0    0    0    0 -0.00000000000E+00 -0.00000000000E+00 -0.45593999997E+02  0.45594000000E+02  0.51100000000E-03 0.  1.
    9900012    2    1    2    0    0  0.11113270563E+01  0.37967831560E+00  0.11489652546E+00  0.90007998025E+02  0.90000262799E+02 0.  0.
         12    1    1    2    0    0 -0.11113270563E+01 -0.37967831560E+00 -0.11489652546E+00  0.11800019750E+01  0.00000000000E+00 0. -1.
         11    1    3    3    0    0  0.33139115907E+01 -0.59792995219E+01  0.34477969767E+02  0.35149173992E+02  0.51100000000E-03 0. -1.
        -11    1    3    3    0    0 -0.20297023223E+00 -0.31128613942E+01  0.94694450415E+01  0.99700297206E+01  0.51100000000E-03 0.  1.
        -12    1    3    3    0    0 -0.19996143021E+01  0.94718392317E+01 -0.43832518283E+02  0.44888794312E+02  0.00000000000E+00 0.  1.
</event>
<event>
 7    1  0.3795708E-015  0.9000773E+02  0.7816164E-02  0.1186339E+00
        -11   -1    0    0    0    0  0.00000000000E+00  0.00000000000E+00  0.45593999997E+02  0.45594000000E+02  0.51100000000E-03 0.  1.
         11   -1    0    0    0    0 -0.00000000000E+00 -0.00000000000E+00 -0.45593999997E+02  0.45594000000E+02  0.51100000000E-03 0. -1.
    9900012    2    1    2    0    0  0.73877963084E+00  0.36483188029E+00  0.84506191645E+00  0.90007734231E+02  0.89999995522E+02 0.  0.
         12    1    1    2    0    0 -0.73877963083E+00 -0.36483188029E+00 -0.84506191645E+00  0.11802657694E+01  0.00000000000E+00 0. -1.
         11    1    3    3    0    0  0.80506354119E+00 -0.88964969709E+01  0.44774776846E+01  0.99921765564E+01  0.51100000000E-03 0. -1.
        -11    1    3    3    0    0  0.16885548388E+02 -0.15757015197E+02  0.27980880228E+02  0.36281330335E+02  0.51100000000E-03 0.  1.
         12    1    3    3    0    0 -0.16951832298E+02  0.25018344048E+02 -0.31613295997E+02  0.43734227339E+02  0.00000000000E+00 0. -1.
</event>
<event>
 7    1  0.3795708E-015  0.9000775E+02  0.7816164E-02  0.1186339E+00
        -11   -1    0    0    0    0  0.00000000000E+00  0.00000000000E+00  0.45593999997E+02  0.45594000000E+02  0.51100000000E-03 0.  1.
         11   -1    0    0    0    0 -0.00000000000E+00 -0.00000000000E+00 -0.45593999997E+02  0.45594000000E+02  0.51100000000E-03 0. -1.
    9900012    2    1    2    0    0 -0.61778041386E+00  0.19789871828E+00  0.98598963067E+00  0.90007749139E+02  0.90000010628E+02 0.  0.
         12    1    1    2    0    0  0.61778041386E+00 -0.19789871828E+00 -0.98598963067E+00  0.11802508607E+01  0.00000000000E+00 0. -1.
         11    1    3    3    0    0  0.18410446305E+01 -0.43217480172E+01  0.79140383674E+01  0.92032035073E+01  0.51100000000E-03 0. -1.
        -11    1    3    3    0    0 -0.12714838849E+02 -0.36271866474E+02 -0.26697103257E+01  0.38528467111E+02  0.51100000000E-03 0.  1.
         12    1    3    3    0    0  0.10256013805E+02  0.40791513209E+02 -0.42583384110E+01  0.42276078521E+02  0.00000000000E+00 0. -1.
</event>
<event>
 7    1  0.3795708E-015  0.9000784E+02  0.7816164E-02  0.1186339E+00
        -11   -1    0    0    0    0  0.00000000000E+00  0.00000000000E+00  0.45593999997E+02  0.45594000000E+02  0.51100000000E-03 0.  1.
         11   -1    0    0    0    0 -0.00000000000E+00 -0.00000000000E+00 -0.45593999997E+02  0.45594000000E+02  0.51100000000E-03 0. -1.
    9900012    2    1    2    0    0  0.30584962280E+00 -0.65661552244E+00  0.93170908148E+00  0.90007843337E+02  0.90000106069E+02 0.  0.
         12    1    1    2    0    0 -0.30584962280E+00  0.65661552244E+00 -0.93170908148E+00  0.11801566627E+01  0.00000000000E+00 0. -1.
         11    1    3    3    0    0  0.26668239963E+02  0.94583367136E+01 -0.26252190149E+02  0.38598350275E+02  0.51100000000E-03 0. -1.
        -11    1    3    3    0    0  0.30033064476E+01 -0.95231932829E+01 -0.17982849836E+01  0.10146176081E+02  0.51100000000E-03 0.  1.
        -12    1    3    3    0    0 -0.29365696788E+02 -0.59175895314E+00  0.28982184214E+02  0.41263316981E+02  0.00000000000E+00 0.  1.
</event>
<event>
 7    1  0.3795708E-015  0.9000770E+02  0.7816164E-02  0.1186339E+00
        -11   -1    0    0    0    0  0.00000000000E+00  0.00000000000E+00  0.45593999997E+02  0.45594000000E+02  0.51100000000E-03 0. -1.
         11   -1    0    0    0    0 -0.00000000000E+00 -0.00000000000E+00 -0.45593999997E+02  0.45594000000E+02  0.51100000000E-03 0.  1.
    9900012    2    1    2    0    0  0.36182505754E+00  0.11123057953E+01 -0.15799378821E+00  0.90007701906E+02  0.89999962771E+02 0.  0.
         12    1    1    2    0    0 -0.36182505754E+00 -0.11123057953E+01  0.15799378821E+00  0.11802980944E+01  0.00000000000E+00 0. -1.
         11    1    3    3    0    0 -0.17591970242E+02  0.68015661837E+01  0.85403332847E+01  0.20704492566E+02  0.51100000000E-03 0. -1.
        -11    1    3    3    0    0  0.20032299350E+01  0.20229147931E+02 -0.26995300526E+02  0.33793159174E+02  0.51100000000E-03 0.  1.
        -12    1    3    3    0    0  0.15950565364E+02 -0.25918408319E+02  0.18296973453E+02  0.35510050166E+02  0.00000000000E+00 0.  1.
</event>
<event>
 7    1  0.3795708E-015  0.9000781E+02  0.7816164E-02  0.1186339E+00
        -11   -1    0    0    0    0  0.00000000000E+00  0.00000000000E+00  0.45593999997E+02  0.45594000000E+02  0.51100000000E-03 0. -1.
         11   -1    0    0    0    0 -0.00000000000E+00 -0.00000000000E+00 -0.45593999997E+02  0.45594000000E+02  0.51100000000E-03 0.  1.
    9900012    2    1    2    0    0  0.97045913125E+00 -0.54026334285E+00 -0.39896107989E+00  0.90007811308E+02  0.90000073617E+02 0.  0.
         12    1    1    2    0    0 -0.97045913125E+00  0.54026334285E+00  0.39896107989E+00  0.11801886918E+01  0.00000000000E+00 0. -1.
         11    1    3    3    0    0  0.34762251168E+02  0.52599194576E+01 -0.72851169293E+01  0.35904787813E+02  0.51100000000E-03 0. -1.
        -11    1    3    3    0    0  0.54249187228E+01  0.99236574124E+01  0.10066480286E+00  0.11310121717E+02  0.51100000000E-03 0.  1.
        -12    1    3    3    0    0 -0.39216710760E+02 -0.15723840213E+02  0.67854910465E+01  0.42792901778E+02  0.00000000000E+00 0.  1.
</event>
<event>
 7    1  0.3795708E-015  0.9000835E+02  0.7816164E-02  0.1186338E+00
        -11   -1    0    0    0    0  0.00000000000E+00  0.00000000000E+00  0.45593999997E+02  0.45594000000E+02  0.51100000000E-03 0. -1.
         11   -1    0    0    0    0 -0.00000000000E+00 -0.00000000000E+00 -0.45593999997E+02  0.45594000000E+02  0.51100000000E-03 0.  1.
    9900012    2    1    2    0    0 -0.60169243022E+00 -0.94277479697E+00 -0.37513107631E+00  0.90008346906E+02  0.90000616283E+02 0.  0.
         12    1    1    2    0    0  0.60169243022E+00  0.94277479697E+00  0.37513107631E+00  0.11796530943E+01  0.00000000000E+00 0. -1.
         11    1    3    3    0    0  0.10534474816E+02  0.93834667469E+01  0.12629779627E+01  0.14164029138E+02  0.51100000000E-03 0. -1.
        -11    1    3    3    0    0  0.31462793575E+02 -0.54421189759E+01 -0.68323974907E+01  0.32652805304E+02  0.51100000000E-03 0.  1.
         12    1    3    3    0    0 -0.42598960821E+02 -0.48841225679E+01  0.51942884517E+01  0.43191512463E+02  0.00000000000E+00 0. -1.
</event>
<event>
 7    1  0.3795708E-015  0.9000793E+02  0.7816164E-02  0.1186339E+00
        -11   -1    0    0    0    0  0.00000000000E+00  0.00000000000E+00  0.45593999997E+02  0.45594000000E+02  0.51100000000E-03 0.  1.
         11   -1    0    0    0    0 -0.00000000000E+00 -0.00000000000E+00 -0.45593999997E+02  0.45594000000E+02  0.51100000000E-03 0. -1.
    9900012    2    1    2    0    0 -0.69609813878E+00  0.46503073322E+00  0.83171544599E+00  0.90007933568E+02  0.90000197491E+02 0.  0.
         12    1    1    2    0    0  0.69609813878E+00 -0.46503073322E+00 -0.83171544599E+00  0.11800664323E+01  0.00000000000E+00 0. -1.
         11    1    3    3    0    0 -0.81590458694E+01 -0.30319180051E+02 -0.17035167129E+02  0.35721416935E+02  0.51100000000E-03 0. -1.
        -11    1    3    3    0    0  0.11823644231E+01 -0.90109154016E+01 -0.20921470802E+01  0.93258598354E+01  0.51100000000E-03 0.  1.
        -12    1    3    3    0    0  0.62805833076E+01  0.39795126186E+02  0.19959029655E+02  0.44960656797E+02  0.00000000000E+00 0.  1.
</event>
<event>
 7    1  0.3795708E-015  0.9000801E+02  0.7816164E-02  0.1186338E+00
        -11   -1    0    0    0    0  0.00000000000E+00  0.00000000000E+00  0.45593999997E+02  0.45594000000E+02  0.51100000000E-03 0. -1.
         11   -1    0    0    0    0 -0.00000000000E+00 -0.00000000000E+00 -0.45593999997E+02  0.45594000000E+02  0.51100000000E-03 0.  1.
    9900012    2    1    2    0    0 -0.69820488289E+00 -0.31106795384E+00  0.89895111410E+00  0.90008014222E+02  0.90000279209E+02 0.  0.
         12    1    1    2    0    0  0.69820488289E+00  0.31106795384E+00 -0.89895111410E+00  0.11799857779E+01  0.00000000000E+00 0. -1.
         11    1    3    3    0    0  0.69242249789E+01 -0.39638050505E+02  0.16546630488E+02  0.43507596120E+02  0.51100000000E-03 0. -1.
        -11    1    3    3    0    0 -0.58339897136E+01  0.32620875274E+01 -0.63360940490E+01  0.92099261166E+01  0.51100000000E-03 0.  1.
        -12    1    3    3    0    0 -0.17884401481E+01  0.36064895024E+02 -0.93115853250E+01  0.37290491985E+02  0.00000000000E+00 0.  1.
</event>
<event>
 7    1  0.3795708E-015  0.9000767E+02  0.7816164E-02  0.1186339E+00
        -11   -1    0    0    0    0  0.00000000000E+00  0.00000000000E+00  0.45593999997E+02  0.45594000000E+02  0.51100000000E-03 0.  1.
         11   -1    0    0    0    0 -0.00000000000E+00 -0.00000000000E+00 -0.45593999997E+02  0.45594000000E+02  0.51100000000E-03 0. -1.
    9900012    2    1    2    0    0  0.24015930809E+00 -0.13512190382E-01  0.11555636695E+01  0.90007666798E+02  0.89999927200E+02 0.  0.
         12    1    1    2    0    0 -0.24015930809E+00  0.13512190382E-01 -0.11555636695E+01  0.11803332016E+01  0.00000000000E+00 0. -1.
         11    1    3    3    0    0  0.69105016833E+01  0.38154135541E-01  0.13529072411E+01  0.70417929192E+01  0.51100000000E-03 0. -1.
        -11    1    3    3    0    0  0.89803213639E+01  0.11798275425E+02  0.37576269875E+02  0.40395810832E+02  0.51100000000E-03 0.  1.
         12    1    3    3    0    0 -0.15650663739E+02 -0.11849941750E+02 -0.37773613447E+02  0.42570063047E+02  0.00000000000E+00 0. -1.
</event>
<event>
 7    1  0.3795708E-015  0.9000769E+02  0.7816164E-02  0.1186339E+00
        -11   -1    0    0    0    0  0.00000000000E+00  0.00000000000E+00  0.45593999997E+02  0.45594000000E+02  0.51100000000E-03 0. -1.
         11   -1    0    0    0    0 -0.00000000000E+00 -0.00000000000E+00 -0.45593999997E+02  0.45594000000E+02  0.51100000000E-03 0.  1.
    9900012    2    1    2    0    0 -0.25517314154E+00 -0.10072804779E+01 -0.55982456041E+00  0.90007690366E+02  0.89999951079E+02 0.  0.
         12    1    1    2    0    0  0.25517314154E+00  0.10072804779E+01  0.55982456041E+00  0.11803096338E+01  0.00000000000E+00 0. -1.
         11    1    3    3    0    0 -0.51140958681E+01  0.83948297883E+01  0.33056034703E+01  0.10370832092E+02  0.51100000000E-03 0. -1.
        -11    1    3    3    0    0 -0.26749001459E+02  0.27497550784E+01 -0.27406206276E+02  0.38394926420E+02  0.51100000000E-03 0.  1.
         12    1    3    3    0    0  0.31607924186E+02 -0.12151865345E+02  0.23540778245E+02  0.41241931854E+02  0.00000000000E+00 0. -1.
</event>
<event>
 7    1  0.3795708E-015  0.9000768E+02  0.7816164E-02  0.1186339E+00
        -11   -1    0    0    0    0  0.00000000000E+00  0.00000000000E+00  0.45593999997E+02  0.45594000000E+02  0.51100000000E-03 0. -1.
         11   -1    0    0    0    0 -0.00000000000E+00 -0.00000000000E+00 -0.45593999997E+02  0.45594000000E+02  0.51100000000E-03 0.  1.
    9900012    2    1    2    0    0  0.29269350036E+00  0.87627367847E+00 -0.73458853151E+00  0.90007684214E+02  0.89999944845E+02 0.  0.
         12    1    1    2    0    0 -0.29269350036E+00 -0.87627367847E+00  0.73458853151E+00  0.11803157863E+01  0.00000000000E+00 0. -1.
         11    1    3    3    0    0 -0.46286886956E+01 -0.55217324227E-01  0.15816536011E+02  0.16480006664E+02  0.51100000000E-03 0. -1.
        -11    1    3    3    0    0 -0.27593905211E+02 -0.88874781659E+01  0.97327952672E+01  0.30580029054E+02  0.51100000000E-03 0.  1.
         12    1    3    3    0    0  0.32515287407E+02  0.98189691686E+01 -0.26283919810E+02  0.42947648496E+02  0.00000000000E+00 0. -1.
</event>
<event>
 7    1  0.3795708E-015  0.9000780E+02  0.7816164E-02  0.1186339E+00
        -11   -1    0    0    0    0  0.00000000000E+00  0.00000000000E+00  0.45593999997E+02  0.45594000000E+02  0.51100000000E-03 0.  1.
         11   -1    0    0    0    0 -0.00000000000E+00 -0.00000000000E+00 -0.45593999997E+02  0.45594000000E+02  0.51100000000E-03 0. -1.
    9900012    2    1    2    0    0  0.47586726994E+00 -0.80292540722E-01  0.10770176235E+01  0.90007803613E+02  0.90000065821E+02 0.  0.
         12    1    1    2    0    0 -0.47586726994E+00  0.80292540722E-01 -0.10770176235E+01  0.11801963871E+01  0.00000000000E+00 0. -1.
         11    1    3    3    0    0  0.30372592461E+01  0.15672866640E+01  0.87680128427E+01  0.94105993797E+01  0.51100000000E-03 0. -1.
        -11    1    3    3    0    0  0.90730742268E+01 -0.38209815062E+02  0.62656716790E+01  0.39768948752E+02  0.51100000000E-03 0.  1.
         12    1    3    3    0    0 -0.11634466203E+02  0.36562235857E+02 -0.13956666898E+02  0.40828255481E+02  0.00000000000E+00 0. -1.
</event>
<event>
 7    1  0.3795708E-015  0.9000736E+02  0.7816164E-02  0.1186340E+00
        -11   -1    0    0    0    0  0.00000000000E+00  0.00000000000E+00  0.45593999997E+02  0.45594000000E+02  0.51100000000E-03 0.  1.
         11   -1    0    0    0    0 -0.00000000000E+00 -0.00000000000E+00 -0.45593999997E+02  0.45594000000E+02  0.51100000000E-03 0. -1.
    9900012    2    1    2    0    0 -0.67317547360E+00  0.78755533130E+00  0.56613763873E+00  0.90007355920E+02  0.89999612217E+02 0.  0.
         12    1    1    2    0    0  0.67317547360E+00 -0.78755533130E+00 -0.56613763873E+00  0.11806440802E+01  0.00000000000E+00 0. -1.
         11    1    3    3    0    0 -0.33889642969E+01 -0.19676211369E+01  0.80164421246E+01  0.89230015433E+01  0.51100000000E-03 0. -1.
        -11    1    3    3    0    0 -0.26178770877E+02 -0.27715551184E+02 -0.85746930444E+01  0.39076913684E+02  0.51100000000E-03 0.  1.
         12    1    3    3    0    0  0.28894559700E+02  0.30470727652E+02  0.11243885586E+01  0.42007440692E+02  0.00000000000E+00 0. -1.
</event>
<event>
 7    1  0.3795708E-015  0.9000775E+02  0.7816164E-02  0.1186339E+00
        -11   -1    0    0    0    0  0.00000000000E+00  0.00000000000E+00  0.45593999997E+02  0.45594000000E+02  0.51100000000E-03 0. -1.
         11   -1    0    0    0    0 -0.00000000000E+00 -0.00000000000E+00 -0.45593999997E+02  0.45594000000E+02  0.51100000000E-03 0.  1.
    9900012    2    1    2    0    0 -0.11455078521E+01  0.60930516243E-02 -0.28417773807E+00  0.90007753267E+02  0.90000014810E+02 0.  0.
         12    1    1    2    0    0  0.11455078521E+01 -0.60930516243E-02  0.28417773807E+00  0.11802467332E+01  0.00000000000E+00 0. -1.
         11    1    3    3    0    0  0.94065884044E+01  0.13596384104E+01  0.12908244652E+02  0.16029825398E+02  0.51100000000E-03 0. -1.
        -11    1    3    3    0    0 -0.36054165862E+02 -0.17013926066E+02  0.29487000963E+01  0.39975885090E+02  0.51100000000E-03 0.  1.
         12    1    3    3    0    0  0.25502069606E+02  0.15660380707E+02 -0.16141122486E+02  0.34002042780E+02  0.00000000000E+00 0. -1.
</event>
<event>
 7    1  0.3795708E-015  0.9000776E+02  0.7816164E-02  0.1186339E+00
        -11   -1    0    0    0    0  0.00000000000E+00  0.00000000000E+00  0.45593999997E+02  0.45594000000E+02  0.51100000000E-03 0.  1.
         11   -1    0    0    0    0 -0.00000000000E+00 -0.00000000000E+00 -0.45593999997E+02  0.45594000000E+02  0.51100000000E-03 0. -1.
    9900012    2    1    2    0    0  0.60055915763E+00 -0.28272110325E+00  0.97589264607E+00  0.90007758931E+02  0.90000020549E+02 0.  0.
         12    1    1    2    0    0 -0.60055915763E+00  0.28272110325E+00 -0.97589264607E+00  0.11802410689E+01  0.00000000000E+00 0. -1.
         11    1    3    3    0    0 -0.38235947543E+01  0.36765588697E+02  0.11981166166E+02  0.38857132319E+02  0.51100000000E-03 0. -1.
        -11    1    3    3    0    0 -0.97953186470E+01  0.48097632247E+00 -0.26224941045E+01  0.10151703365E+02  0.51100000000E-03 0.  1.
        -12    1    3    3    0    0  0.14219472559E+02 -0.37529286123E+02 -0.83827794154E+01  0.40998923248E+02  0.00000000000E+00 0.  1.
</event>
<event>
 7    1  0.3795708E-015  0.9000809E+02  0.7816164E-02  0.1186338E+00
        -11   -1    0    0    0    0  0.00000000000E+00  0.00000000000E+00  0.45593999997E+02  0.45594000000E+02  0.51100000000E-03 0. -1.
         11   -1    0    0    0    0 -0.00000000000E+00 -0.00000000000E+00 -0.45593999997E+02  0.45594000000E+02  0.51100000000E-03 0.  1.
    9900012    2    1    2    0    0  0.63511214605E+00  0.40015792957E+00 -0.91032969410E+00  0.90008087309E+02  0.90000353261E+02 0.  0.
         12    1    1    2    0    0 -0.63511214605E+00 -0.40015792957E+00  0.91032969410E+00  0.11799126911E+01  0.00000000000E+00 0. -1.
         11    1    3    3    0    0 -0.35143348900E+01  0.87891024542E+01  0.10597306302E+01  0.95248045093E+01  0.51100000000E-03 0. -1.
        -11    1    3    3    0    0 -0.37329525754E+02 -0.40305541144E+01  0.59953564837E+01  0.38022140380E+02  0.51100000000E-03 0.  1.
         12    1    3    3    0    0  0.41478972790E+02 -0.43583904102E+01 -0.79654168080E+01  0.42461142420E+02  0.00000000000E+00 0. -1.
</event>
<event>
 7    1  0.5207751E-015  0.9000781E+02  0.7816164E-02  0.1186339E+00
        -11   -1    0    0    0    0  0.00000000000E+00  0.00000000000E+00  0.45593999997E+02  0.45594000000E+02  0.51100000000E-03 0.  1.
         11   -1    0    0    0    0 -0.00000000000E+00 -0.00000000000E+00 -0.45593999997E+02  0.45594000000E+02  0.51100000000E-03 0. -1.
    9900012    2    1    2    0    0 -0.33676532060E+00  0.61601296304E+00  0.94866692966E+00  0.90007808577E+02  0.90000070850E+02 0.  0.
         12    1    1    2    0    0  0.33676532060E+00 -0.61601296304E+00 -0.94866692966E+00  0.11801914231E+01  0.00000000000E+00 0. -1.
         11    1    3    3    0    0  0.34148112667E+01  0.12729325354E+01 -0.42543831113E+02  0.42699635352E+02  0.51100000000E-03 0. -1.
        -11    1    3    3    0    0  0.54279374171E+01  0.34688507095E+01  0.72688154888E+01  0.97124203328E+01  0.51100000000E-03 0.  1.
        -12    1    3    3    0    0 -0.91795140044E+01 -0.41257702819E+01  0.36223682553E+02  0.37595752892E+02  0.00000000000E+00 0.  1.
</event>
<event>
 7    1  0.3795708E-015  0.9000767E+02  0.7816164E-02  0.1186339E+00
        -11   -1    0    0    0    0  0.00000000000E+00  0.00000000000E+00  0.45593999997E+02  0.45594000000E+02  0.51100000000E-03 0.  1.
         11   -1    0    0    0    0 -0.00000000000E+00 -0.00000000000E+00 -0.45593999997E+02  0.45594000000E+02  0.51100000000E-03 0. -1.
    9900012    2    1    2    0    0 -0.79478094911E+00 -0.17248648911E+00  0.85542938701E+00  0.90007666241E+02  0.89999926636E+02 0.  0.
         12    1    1    2    0    0  0.79478094911E+00  0.17248648911E+00 -0.85542938701E+00  0.11803337588E+01  0.00000000000E+00 0. -1.
         11    1    3    3    0    0 -0.92592986245E+01  0.17420888446E+01  0.10882223819E+02  0.14394175213E+02  0.51100000000E-03 0. -1.
        -11    1    3    3    0    0  0.56306394955E+01 -0.32092983966E+01  0.32415472807E+02  0.33057020054E+02  0.51100000000E-03 0.  1.
         12    1    3    3    0    0  0.28338781799E+01  0.12947230629E+01 -0.42442267239E+02  0.42556470974E+02  0.00000000000E+00 0. -1.
</event>
<event>
 7    1  0.3795708E-015  0.9000770E+02  0.7816164E-02  0.1186339E+00
        -11   -1    0    0    0    0  0.00000000000E+00  0.00000000000E+00  0.45593999997E+02  0.45594000000E+02  0.51100000000E-03 0.  1.
         11   -1    0    0    0    0 -0.00000000000E+00 -0.00000000000E+00 -0.45593999997E+02  0.45594000000E+02  0.51100000000E-03 0. -1.
    9900012    2    1    2    0    0  0.26019072041E+00 -0.84433626755E+00  0.78262059501E+00  0.90007704300E+02  0.89999965197E+02 0.  0.
         12    1    1    2    0    0 -0.26019072041E+00  0.84433626755E+00 -0.78262059501E+00  0.11802957000E+01  0.00000000000E+00 0. -1.
         11    1    3    3    0    0  0.10531884044E+02 -0.80109457230E+01 -0.39801735058E+01  0.13818017741E+02  0.51100000000E-03 0. -1.
        -11    1    3    3    0    0 -0.10243218292E+02 -0.25915235589E+02  0.24976391287E+02  0.37421158168E+02  0.51100000000E-03 0.  1.
         12    1    3    3    0    0 -0.28475031626E-01  0.33081845045E+02 -0.20213597186E+02  0.38768528391E+02  0.00000000000E+00 0. -1.
</event>
<event>
 7    1  0.3795708E-015  0.9000775E+02  0.7816164E-02  0.1186339E+00
        -11   -1    0    0    0    0  0.00000000000E+00  0.00000000000E+00  0.45593999997E+02  0.45594000000E+02  0.51100000000E-03 0.  1.
         11   -1    0    0    0    0 -0.00000000000E+00 -0.00000000000E+00 -0.45593999997E+02  0.45594000000E+02  0.51100000000E-03 0. -1.
    9900012    2    1    2    0    0  0.51969431036E+00 -0.28952543793E+00  0.10193578671E+01  0.90007746800E+02  0.90000008258E+02 0.  0.
         12    1    1    2    0    0 -0.51969431036E+00  0.28952543793E+00 -0.10193578671E+01  0.11802532002E+01  0.00000000000E+00 0. -1.
         11    1    3    3    0    0 -0.29082543983E+02  0.22496821155E+02 -0.12664401543E+02  0.38888152352E+02  0.51100000000E-03 0. -1.
        -11    1    3    3    0    0  0.39260925874E-01  0.70403532592E+01  0.37017252505E+01  0.79542998137E+01  0.51100000000E-03 0.  1.
        -12    1    3    3    0    0  0.29562977368E+02 -0.29826699852E+02  0.99820341600E+01  0.43165294634E+02  0.00000000000E+00 0.  1.
</event>
<event>
 7    1  0.3795708E-015  0.9000774E+02  0.7816164E-02  0.1186339E+00
        -11   -1    0    0    0    0  0.00000000000E+00  0.00000000000E+00  0.45593999997E+02  0.45594000000E+02  0.51100000000E-03 0. -1.
         11   -1    0    0    0    0 -0.00000000000E+00 -0.00000000000E+00 -0.45593999997E+02  0.45594000000E+02  0.51100000000E-03 0.  1.
    9900012    2    1    2    0    0 -0.70654694727E+00 -0.16392071856E-01 -0.94527271292E+00  0.90007738253E+02  0.89999999598E+02 0.  0.
         12    1    1    2    0    0  0.70654694727E+00  0.16392071856E-01  0.94527271292E+00  0.11802617466E+01  0.00000000000E+00 0. -1.
         11    1    3    3    0    0  0.14786136374E+02 -0.61081638093E-01 -0.28532413365E+01  0.15059035369E+02  0.51100000000E-03 0. -1.
        -11    1    3    3    0    0 -0.17124111044E+02  0.41634524742E+01 -0.34251281708E+02  0.38519083770E+02  0.51100000000E-03 0.  1.
         12    1    3    3    0    0  0.16314277222E+01 -0.41187629080E+01  0.36159250332E+02  0.36429619115E+02  0.00000000000E+00 0. -1.
</event>
<event>
 7    1  0.3795708E-015  0.9000768E+02  0.7816164E-02  0.1186339E+00
        -11   -1    0    0    0    0  0.00000000000E+00  0.00000000000E+00  0.45593999997E+02  0.45594000000E+02  0.51100000000E-03 0. -1.
         11   -1    0    0    0    0 -0.00000000000E+00 -0.00000000000E+00 -0.45593999997E+02  0.45594000000E+02  0.51100000000E-03 0.  1.
    9900012    2    1    2    0    0 -0.96658943577E+00 -0.21018594436E+00  0.64395209693E+00  0.90007683275E+02  0.89999943894E+02 0.  0.
         12    1    1    2    0    0  0.96658943577E+00  0.21018594436E+00 -0.64395209693E+00  0.11803167252E+01  0.00000000000E+00 0. -1.
         11    1    3    3    0    0 -0.13911079806E+01  0.23986852780E+01 -0.91838180879E+01  0.95932990889E+01  0.51100000000E-03 0. -1.
        -11    1    3    3    0    0 -0.19761243240E+01  0.36670748159E+02 -0.73893230690E+01  0.37459991104E+02  0.51100000000E-03 0.  1.
         12    1    3    3    0    0  0.24006428689E+01 -0.39279619381E+02  0.17217093254E+02  0.42954393082E+02  0.00000000000E+00 0. -1.
</event>
<event>
 7    1  0.3795708E-015  0.9000772E+02  0.7816164E-02  0.1186339E+00
        -11   -1    0    0    0    0  0.00000000000E+00  0.00000000000E+00  0.45593999997E+02  0.45594000000E+02  0.51100000000E-03 0.  1.
         11   -1    0    0    0    0 -0.00000000000E+00 -0.00000000000E+00 -0.45593999997E+02  0.45594000000E+02  0.51100000000E-03 0. -1.
    9900012    2    1    2    0    0 -0.78625106233E+00  0.54838576928E+00  0.68858230017E+00  0.90007718987E+02  0.89999980078E+02 0.  0.
         12    1    1    2    0    0  0.78625106233E+00 -0.54838576928E+00 -0.68858230017E+00  0.11802810128E+01  0.00000000000E+00 0. -1.
         11    1    3    3    0    0  0.36077070441E+02  0.37716767246E+01 -0.77593386587E+01  0.37094310798E+02  0.51100000000E-03 0. -1.
        -11    1    3    3    0    0  0.15193671495E+01 -0.11262338824E+02 -0.35459902986E+01  0.11904738544E+02  0.51100000000E-03 0.  1.
        -12    1    3    3    0    0 -0.38382688653E+02  0.80390478691E+01  0.11993911257E+02  0.41008669646E+02  0.00000000000E+00 0.  1.
</event>
<event>
 7    1  0.3795708E-015  0.9000767E+02  0.7816164E-02  0.1186339E+00
        -11   -1    0    0    0    0  0.00000000000E+00  0.00000000000E+00  0.45593999997E+02  0.45594000000E+02  0.51100000000E-03 0.  1.
         11   -1    0    0    0    0 -0.00000000000E+00 -0.00000000000E+00 -0.45593999997E+02  0.45594000000E+02  0.51100000000E-03 0. -1.
    9900012    2    1    2    0    0 -0.10514215962E+01  0.28508891952E+00  0.45433278352E+00  0.90007668969E+02  0.89999929399E+02 0.  0.
         12    1    1    2    0    0  0.10514215962E+01 -0.28508891952E+00 -0.45433278352E+00  0.11803310312E+01  0.00000000000E+00 0. -1.
         11    1    3    3    0    0 -0.74595617565E+01  0.10463915975E+01  0.65416728677E+01  0.99766467886E+01  0.51100000000E-03 0. -1.
        -11    1    3    3    0    0  0.12752177897E+02  0.41371404579E+01  0.35359809847E+02  0.37816003557E+02  0.51100000000E-03 0.  1.
         12    1    3    3    0    0 -0.63440377367E+01 -0.48984431360E+01 -0.41447149931E+02  0.42215018624E+02  0.00000000000E+00 0. -1.
</event>
<event>
 7    1  0.3795708E-015  0.9000753E+02  0.7816164E-02  0.1186339E+00
        -11   -1    0    0    0    0  0.00000000000E+00  0.00000000000E+00  0.45593999997E+02  0.45594000000E+02  0.51100000000E-03 0. -1.
         11   -1    0    0    0    0 -0.00000000000E+00 -0.00000000000E+00 -0.45593999997E+02  0.45594000000E+02  0.51100000000E-03 0.  1.
    9900012    2    1    2    0    0 -0.11417748542E+00 -0.95673201166E+00 -0.68201529170E+00  0.90007526579E+02  0.89999785129E+02 0.  0.
         12    1    1    2    0    0  0.11417748542E+00  0.95673201166E+00  0.68201529170E+00  0.11804734213E+01  0.00000000000E+00 0. -1.
         11    1    3    3    0    0 -0.61506655500E+01  0.26830212316E+01  0.78856652835E+01  0.10354371389E+02  0.51100000000E-03 0. -1.
        -11    1    3    3    0    0  0.37715256983E+02  0.16705549092E+02 -0.10631513105E+01  0.41263134523E+02  0.51100000000E-03 0.  1.
         12    1    3    3    0    0 -0.31678768918E+02 -0.20345302335E+02 -0.75045292648E+01  0.38390020666E+02  0.00000000000E+00 0. -1.
</event>
<event>
 7    1  0.3795708E-015  0.9000775E+02  0.7816164E-02  0.1186339E+00
        -11   -1    0    0    0    0  0.00000000000E+00  0.00000000000E+00  0.45593999997E+02  0.45594000000E+02  0.51100000000E-03 0. -1.
         11   -1    0    0    0    0 -0.00000000000E+00 -0.00000000000E+00 -0.45593999997E+02  0.45594000000E+02  0.51100000000E-03 0.  1.
    9900012    2    1    2    0    0  0.51666579785E+00  0.69502293306E+00 -0.80187286356E+00  0.90007745573E+02  0.90000007014E+02 0.  0.
         12    1    1    2    0    0 -0.51666579785E+00 -0.69502293306E+00  0.80187286356E+00  0.11802544274E+01  0.00000000000E+00 0. -1.
         11    1    3    3    0    0  0.37988654726E+02  0.10983041165E+02 -0.50137992948E+00  0.39547648011E+02  0.51100000000E-03 0. -1.
        -11    1    3    3    0    0 -0.17075470812E+01 -0.10550973978E+02  0.84671930081E+01  0.13635693111E+02  0.51100000000E-03 0.  1.
        -12    1    3    3    0    0 -0.35764441847E+02  0.26295574610E+00 -0.87676859422E+01  0.36824404451E+02  0.00000000000E+00 0.  1.
</event>
<event>
 7    1  0.3795708E-015  0.9000774E+02  0.7816164E-02  0.1186339E+00
        -11   -1    0    0    0    0  0.00000000000E+00  0.00000000000E+00  0.45593999997E+02  0.45594000000E+02  0.51100000000E-03 0.  1.
         11   -1    0    0    0    0 -0.00000000000E+00 -0.00000000000E+00 -0.45593999997E+02  0.45594000000E+02  0.51100000000E-03 0. -1.
    9900012    2    1    2    0    0  0.72945916140E-01 -0.23294235715E+00  0.11547443064E+01  0.90007738308E+02  0.89999999654E+02 0.  0.
         12    1    1    2    0    0 -0.72945916140E-01  0.23294235715E+00 -0.11547443064E+01  0.11802616920E+01  0.00000000000E+00 0. -1.
         11    1    3    3    0    0 -0.33375642261E+02  0.15613619081E+02 -0.18106173574E+02  0.41055476113E+02  0.51100000000E-03 0. -1.
        -11    1    3    3    0    0  0.17668279398E+01 -0.68220071002E+01 -0.44765998852E+01  0.83487369486E+01  0.51100000000E-03 0.  1.
        -12    1    3    3    0    0  0.31681760237E+02 -0.90245543376E+01  0.23737517766E+02  0.40603525246E+02  0.00000000000E+00 0.  1.
</event>
<event>
 7    1  0.3795708E-015  0.9000769E+02  0.7816164E-02  0.1186339E+00
        -11   -1    0    0    0    0  0.00000000000E+00  0.00000000000E+00  0.45593999997E+02  0.45594000000E+02  0.51100000000E-03 0. -1.
         11   -1    0    0    0    0 -0.00000000000E+00 -0.00000000000E+00 -0.45593999997E+02  0.45594000000E+02  0.51100000000E-03 0.  1.
    9900012    2    1    2    0    0 -0.78802011711E+00 -0.81648234993E+00  0.32482094062E+00  0.90007691661E+02  0.89999952390E+02 0.  0.
         12    1    1    2    0    0  0.78802011711E+00  0.81648234993E+00 -0.32482094062E+00  0.11803083395E+01  0.00000000000E+00 0. -1.
         11    1    3    3    0    0 -0.10940072191E+02  0.45279117613E+01  0.38086903236E+01  0.12437575596E+02  0.51100000000E-03 0. -1.
        -11    1    3    3    0    0 -0.19380731611E+02  0.15289755225E+02 -0.25384599862E+02  0.35408576405E+02  0.51100000000E-03 0.  1.
         12    1    3    3    0    0  0.29532783685E+02 -0.20634149336E+02  0.21900730479E+02  0.42161539660E+02  0.00000000000E+00 0. -1.
</event>
<event>
 7    1  0.3795708E-015  0.9000778E+02  0.7816164E-02  0.1186339E+00
        -11   -1    0    0    0    0  0.00000000000E+00  0.00000000000E+00  0.45593999997E+02  0.45594000000E+02  0.51100000000E-03 0. -1.
         11   -1    0    0    0    0 -0.00000000000E+00 -0.00000000000E+00 -0.45593999997E+02  0.45594000000E+02  0.51100000000E-03 0.  1.
    9900012    2    1    2    0    0  0.78483742375E+00  0.74894628820E+00 -0.46479716630E+00  0.90007776830E+02  0.90000038685E+02 0.  0.
         12    1    1    2    0    0 -0.78483742375E+00 -0.74894628820E+00  0.46479716630E+00  0.11802231696E+01  0.00000000000E+00 0. -1.
         11    1    3    3    0    0  0.29351546708E+02 -0.17491650963E+01 -0.21122489396E+02  0.36204038880E+02  0.51100000000E-03 0. -1.
        -11    1    3    3    0    0  0.80505737187E+01 -0.11972909628E+01 -0.44265674612E+01  0.92649739665E+01  0.51100000000E-03 0.  1.
        -12    1    3    3    0    0 -0.36617283003E+02  0.36954023473E+01  0.25084259691E+02  0.44538763984E+02  0.00000000000E+00 0.  1.
</event>
<event>
 7    1  0.3795708E-015  0.9000774E+02  0.7816164E-02  0.1186339E+00
        -11   -1    0    0    0    0  0.00000000000E+00  0.00000000000E+00  0.45593999997E+02  0.45594000000E+02  0.51100000000E-03 0. -1.
         11   -1    0    0    0    0 -0.00000000000E+00 -0.00000000000E+00 -0.45593999997E+02  0.45594000000E+02  0.51100000000E-03 0.  1.
    9900012    2    1    2    0    0 -0.79291207140E+00  0.61857275609E+00  0.61779394305E+00  0.90007741061E+02  0.90000002443E+02 0.  0.
         12    1    1    2    0    0  0.79291207140E+00 -0.61857275609E+00 -0.61779394305E+00  0.11802589392E+01  0.00000000000E+00 0. -1.
         11    1    3    3    0    0 -0.21413812527E+02 -0.28057650426E+02 -0.20591770374E+01  0.35355668919E+02  0.51100000000E-03 0. -1.
        -11    1    3    3    0    0 -0.25640980670E+01 -0.93101661820E+01 -0.21342563118E+01  0.98898353626E+01  0.51100000000E-03 0.  1.
        -12    1    3    3    0    0  0.23184998523E+02  0.37986389364E+02  0.48112272923E+01  0.44762236779E+02  0.00000000000E+00 0.  1.
</event>
<event>
 7    1  0.3795708E-015  0.9000769E+02  0.7816164E-02  0.1186339E+00
        -11   -1    0    0    0    0  0.00000000000E+00  0.00000000000E+00  0.45593999997E+02  0.45594000000E+02  0.51100000000E-03 0.  1.
         11   -1    0    0    0    0 -0.00000000000E+00 -0.00000000000E+00 -0.45593999997E+02  0.45594000000E+02  0.51100000000E-03 0. -1.
    9900012    2    1    2    0    0  0.88703783277E+00  0.11247870309E+00  0.77047661366E+00  0.90007694197E+02  0.89999954961E+02 0.  0.
         12    1    1    2    0    0 -0.88703783277E+00 -0.11247870309E+00 -0.77047661366E+00  0.11803058026E+01  0.00000000000E+00 0. -1.
         11    1    3    3    0    0  0.21793400944E+01  0.89039438744E+00 -0.10251609026E+02  0.10518451088E+02  0.51100000000E-03 0. -1.
        -11    1    3    3    0    0  0.68041543820E+01 -0.38593367369E+02 -0.31290677853E+00  0.39189825627E+02  0.51100000000E-03 0.  1.
         12    1    3    3    0    0 -0.80964566437E+01  0.37815451685E+02  0.11334992418E+02  0.40299417483E+02  0.00000000000E+00 0. -1.
</event>
<event>
 7    1  0.3795708E-015  0.9000769E+02  0.7816164E-02  0.1186339E+00
        -11   -1    0    0    0    0  0.00000000000E+00  0.00000000000E+00  0.45593999997E+02  0.45594000000E+02  0.51100000000E-03 0. -1.
         11   -1    0    0    0    0 -0.00000000000E+00 -0.00000000000E+00 -0.45593999997E+02  0.45594000000E+02  0.51100000000E-03 0.  1.
    9900012    2    1    2    0    0  0.56802074803E-01  0.67756604234E+00  0.96478100460E+00  0.90007693004E+02  0.89999953752E+02 0.  0.
         12    1    1    2    0    0 -0.56802074803E-01 -0.67756604234E+00 -0.96478100460E+00  0.11803069958E+01  0.00000000000E+00 0. -1.
         11    1    3    3    0    0  0.99980825012E+01 -0.36507442676E+02  0.13909181202E+02  0.40326422435E+02  0.51100000000E-03 0. -1.
        -11    1    3    3    0    0 -0.91141221617E+01 -0.47778088202E+00  0.16622280581E+01  0.92767720533E+01  0.51100000000E-03 0.  1.
        -12    1    3    3    0    0 -0.82715826470E+00  0.37662789601E+02 -0.14606628255E+02  0.40404498516E+02  0.00000000000E+00 0.  1.
</event>
<event>
 7    1  0.3795708E-015  0.9000775E+02  0.7816164E-02  0.1186339E+00
        -11   -1    0    0    0    0  0.00000000000E+00  0.00000000000E+00  0.45593999997E+02  0.45594000000E+02  0.51100000000E-03 0.  1.
         11   -1    0    0    0    0 -0.00000000000E+00 -0.00000000000E+00 -0.45593999997E+02  0.45594000000E+02  0.51100000000E-03 0. -1.
    9900012    2    1    2    0    0  0.99580901390E+00 -0.29369620448E+00  0.56133437565E+00  0.90007750309E+02  0.90000011813E+02 0.  0.
         12    1    1    2    0    0 -0.99580901390E+00  0.29369620448E+00 -0.56133437565E+00  0.11802496914E+01  0.00000000000E+00 0. -1.
         11    1    3    3    0    0  0.14192599404E+01 -0.67869560214E+01 -0.36216304125E+02  0.36874079725E+02  0.51100000000E-03 0. -1.
        -11    1    3    3    0    0  0.32079555456E+01 -0.35421418451E+01 -0.67759281389E+01  0.82916192652E+01  0.51100000000E-03 0.  1.
        -12    1    3    3    0    0 -0.36314064722E+01  0.10035401662E+02  0.43553566639E+02  0.44842051319E+02  0.00000000000E+00 0.  1.
</event>
<event>
 7    1  0.3795708E-015  0.9000774E+02  0.7816164E-02  0.1186339E+00
        -11   -1    0    0    0    0  0.00000000000E+00  0.00000000000E+00  0.45593999997E+02  0.45594000000E+02  0.51100000000E-03 0.  1.
         11   -1    0    0    0    0 -0.00000000000E+00 -0.00000000000E+00 -0.45593999997E+02  0.45594000000E+02  0.51100000000E-03 0. -1.
    9900012    2    1    2    0    0  0.17326818363E-02 -0.92981437719E+00  0.72695647179E+00  0.90007735839E+02  0.89999997152E+02 0.  0.
         12    1    1    2    0    0 -0.17326818363E-02  0.92981437719E+00 -0.72695647179E+00  0.11802641611E+01  0.00000000000E+00 0. -1.
         11    1    3    3    0    0  0.34688100091E+01  0.36472785155E+01 -0.37448060322E+02  0.37784818454E+02  0.51100000000E-03 0. -1.
        -11    1    3    3    0    0 -0.25536016133E+01  0.83796589420E+01 -0.28331448158E+01  0.92068602136E+01  0.51100000000E-03 0.  1.
        -12    1    3    3    0    0 -0.91347571398E+00 -0.12956751835E+02  0.41008161610E+02  0.43016057171E+02  0.00000000000E+00 0.  1.
</event>
<event>
 7    1  0.3795708E-015  0.9000766E+02  0.7816164E-02  0.1186339E+00
        -11   -1    0    0    0    0  0.00000000000E+00  0.00000000000E+00  0.45593999997E+02  0.45594000000E+02  0.51100000000E-03 0. -1.
         11   -1    0    0    0    0 -0.00000000000E+00 -0.00000000000E+00 -0.45593999997E+02  0.45594000000E+02  0.51100000000E-03 0.  1.
    9900012    2    1    2    0    0 -0.21902343779E+00  0.11132074052E+00 -0.11544876126E+01  0.90007658854E+02  0.89999919151E+02 0.  0.
         12    1    1    2    0    0  0.21902343779E+00 -0.11132074052E+00  0.11544876126E+01  0.11803411461E+01  0.00000000000E+00 0. -1.
         11    1    3    3    0    0 -0.17397080699E+01  0.10875049258E+02 -0.33261006788E+01  0.11504617617E+02  0.51100000000E-03 0. -1.
        -11    1    3    3    0    0  0.87337973499E+01  0.12648486724E+02 -0.32557064416E+02  0.36003137033E+02  0.51100000000E-03 0.  1.
         12    1    3    3    0    0 -0.72131127177E+01 -0.23412215242E+02  0.34728677483E+02  0.42499904203E+02  0.00000000000E+00 0. -1.
</event>
<event>
 7    1  0.3795708E-015  0.9000773E+02  0.7816164E-02  0.1186339E+00
        -11   -1    0    0    0    0  0.00000000000E+00  0.00000000000E+00  0.45593999997E+02  0.45594000000E+02  0.51100000000E-03 0.  1.
         11   -1    0    0    0    0 -0.00000000000E+00 -0.00000000000E+00 -0.45593999997E+02  0.45594000000E+02  0.51100000000E-03 0. -1.
    9900012    2    1    2    0    0  0.31545733096E+00  0.23909599102E+00 -0.11119196255E+01  0.90007726526E+02  0.89999987716E+02 0.  0.
         12    1    1    2    0    0 -0.31545733096E+00 -0.23909599102E+00  0.11119196255E+01  0.11802734743E+01  0.00000000000E+00 0. -1.
         11    1    3    3    0    0 -0.19869126684E+02  0.14692238547E+02 -0.28878251314E+02  0.38007860607E+02  0.51100000000E-03 0. -1.
        -11    1    3    3    0    0 -0.92665058973E+01 -0.52750378241E+01  0.25447685375E+00  0.10665782405E+02  0.51100000000E-03 0.  1.
        -12    1    3    3    0    0  0.29451089912E+02 -0.91781047319E+01  0.27511854835E+02  0.41334083514E+02  0.00000000000E+00 0.  1.
</event>
<event>
 7    1  0.3795708E-015  0.9000777E+02  0.7816164E-02  0.1186339E+00
        -11   -1    0    0    0    0  0.00000000000E+00  0.00000000000E+00  0.45593999997E+02  0.45594000000E+02  0.51100000000E-03 0. -1.
         11   -1    0    0    0    0 -0.00000000000E+00 -0.00000000000E+00 -0.45593999997E+02  0.45594000000E+02  0.51100000000E-03 0.  1.
    9900012    2    1    2    0    0 -0.42242206327E-01 -0.69627954352E+00 -0.95202902853E+00  0.90007767448E+02  0.90000029178E+02 0.  0.
         12    1    1    2    0    0  0.42242206327E-01  0.69627954352E+00  0.95202902853E+00  0.11802325525E+01  0.00000000000E+00 0. -1.
         11    1    3    3    0    0 -0.68634100857E+01  0.54610059302E+01 -0.35864822079E+01  0.94758555636E+01  0.51100000000E-03 0. -1.
        -11    1    3    3    0    0 -0.30201423196E+02  0.58352728834E+01 -0.18852534622E+02  0.36077616809E+02  0.51100000000E-03 0.  1.
         12    1    3    3    0    0  0.37022591075E+02 -0.11992558357E+02  0.21486987801E+02  0.44454295075E+02  0.00000000000E+00 0. -1.
</event>
<event>
 7    1  0.3795708E-015  0.9000772E+02  0.7816164E-02  0.1186339E+00
        -11   -1    0    0    0    0  0.00000000000E+00  0.00000000000E+00  0.45593999997E+02  0.45594000000E+02  0.51100000000E-03 0. -1.
         11   -1    0    0    0    0 -0.00000000000E+00 -0.00000000000E+00 -0.45593999997E+02  0.45594000000E+02  0.51100000000E-03 0.  1.
    9900012    2    1    2    0    0  0.98620980021E+00  0.32827560855E-01 -0.64759641024E+00  0.90007716759E+02  0.89999977820E+02 0.  0.
         12    1    1    2    0    0 -0.98620980021E+00 -0.32827560855E-01  0.64759641024E+00  0.11802832412E+01  0.00000000000E+00 0. -1.
         11    1    3    3    0    0  0.19106128535E+01  0.59119187733E+01  0.79502318959E+01  0.10089965932E+02  0.51100000000E-03 0. -1.
        -11    1    3    3    0    0  0.34681048715E+02  0.93420452547E+00  0.13763873787E+02  0.37324149019E+02  0.51100000000E-03 0.  1.
         12    1    3    3    0    0 -0.35605451769E+02 -0.68132957379E+01 -0.22361702093E+02  0.42593601808E+02  0.00000000000E+00 0. -1.
</event>
<event>
 7    1  0.3795708E-015  0.9000778E+02  0.7816164E-02  0.1186339E+00
        -11   -1    0    0    0    0  0.00000000000E+00  0.00000000000E+00  0.45593999997E+02  0.45594000000E+02  0.51100000000E-03 0.  1.
         11   -1    0    0    0    0 -0.00000000000E+00 -0.00000000000E+00 -0.45593999997E+02  0.45594000000E+02  0.51100000000E-03 0. -1.
    9900012    2    1    2    0    0 -0.63758280281E+00 -0.99309149808E+00 -0.13521082157E-01  0.90007777405E+02  0.90000039267E+02 0.  0.
         12    1    1    2    0    0  0.63758280281E+00  0.99309149808E+00  0.13521082157E-01  0.11802225950E+01  0.00000000000E+00 0. -1.
         11    1    3    3    0    0 -0.13248244323E+02  0.27941043510E+02  0.39588168269E+01  0.31175152301E+02  0.51100000000E-03 0. -1.
        -11    1    3    3    0    0  0.12428192630E+02  0.75818722482E+01  0.12105129382E+02  0.18933539459E+02  0.51100000000E-03 0.  1.
         12    1    3    3    0    0  0.18246889020E+00 -0.36516007256E+02 -0.16077467291E+02  0.39899085645E+02  0.00000000000E+00 0. -1.
</event>
<event>
 7    1  0.3795708E-015  0.9000768E+02  0.7816164E-02  0.1186339E+00
        -11   -1    0    0    0    0  0.00000000000E+00  0.00000000000E+00  0.45593999997E+02  0.45594000000E+02  0.51100000000E-03 0. -1.
         11   -1    0    0    0    0 -0.00000000000E+00 -0.00000000000E+00 -0.45593999997E+02  0.45594000000E+02  0.51100000000E-03 0.  1.
    9900012    2    1    2    0    0  0.48768316586E+00  0.95094743896E+00  0.50101332011E+00  0.90007682141E+02  0.89999942745E+02 0.  0.
         12    1    1    2    0    0 -0.48768316586E+00 -0.95094743896E+00 -0.50101332011E+00  0.11803178592E+01  0.00000000000E+00 0. -1.
         11    1    3    3    0    0 -0.35532695460E+02 -0.92172779656E+01  0.16055817769E+02  0.40066444117E+02  0.51100000000E-03 0. -1.
        -11    1    3    3    0    0  0.38373776104E+01  0.10675955827E+02  0.42895136270E+01  0.12128537718E+02  0.51100000000E-03 0.  1.
        -12    1    3    3    0    0  0.32183001015E+02 -0.50773042281E+00 -0.19844318076E+02  0.37812700306E+02  0.00000000000E+00 0.  1.
</event>
<event>
 7    1  0.3795708E-015  0.9000776E+02  0.7816164E-02  0.1186339E+00
        -11   -1    0    0    0    0  0.00000000000E+00  0.00000000000E+00  0.45593999997E+02  0.45594000000E+02  0.51100000000E-03 0.  1.
         11   -1    0    0    0    0 -0.00000000000E+00 -0.00000000000E+00 -0.45593999997E+02  0.45594000000E+02  0.51100000000E-03 0. -1.
    9900012    2    1    2    0    0 -0.95352836258E+00 -0.16682741234E-01  0.69531761675E+00  0.90007762210E+02  0.90000023871E+02 0.  0.
         12    1    1    2    0    0  0.95352836258E+00  0.16682741234E-01 -0.69531761675E+00  0.11802377897E+01  0.00000000000E+00 0. -1.
         11    1    3    3    0    0 -0.44688247983E+01 -0.13179357454E+02 -0.34399875245E+02  0.37108183398E+02  0.51100000000E-03 0. -1.
        -11    1    3    3    0    0  0.54264705893E+01  0.28913873295E+01 -0.71219049874E+01  0.94089443965E+01  0.51100000000E-03 0.  1.
        -12    1    3    3    0    0 -0.19111741536E+01  0.10271287383E+02  0.42217097849E+02  0.43490634416E+02  0.00000000000E+00 0.  1.
</event>
<event>
 7    1  0.3795708E-015  0.9000777E+02  0.7816164E-02  0.1186339E+00
        -11   -1    0    0    0    0  0.00000000000E+00  0.00000000000E+00  0.45593999997E+02  0.45594000000E+02  0.51100000000E-03 0.  1.
         11   -1    0    0    0    0 -0.00000000000E+00 -0.00000000000E+00 -0.45593999997E+02  0.45594000000E+02  0.51100000000E-03 0. -1.
    9900012    2    1    2    0    0  0.99330275258E+00  0.10319296352E+00 -0.62899792032E+00  0.90007772255E+02  0.90000034049E+02 0.  0.
         12    1    1    2    0    0 -0.99330275258E+00 -0.10319296352E+00  0.62899792032E+00  0.11802277449E+01  0.00000000000E+00 0. -1.
         11    1    3    3    0    0 -0.25117778658E+01 -0.61461939749E+01  0.78091030279E+01  0.10250210670E+02  0.51100000000E-03 0. -1.
        -11    1    3    3    0    0 -0.18238837916E+02 -0.73639521534E+01  0.28595040275E+02  0.34706761999E+02  0.51100000000E-03 0.  1.
         12    1    3    3    0    0  0.21743918534E+02  0.13613339092E+02 -0.37033141224E+02  0.45050799586E+02  0.00000000000E+00 0. -1.
</event>
<event>
 7    1  0.3795708E-015  0.9000773E+02  0.7816164E-02  0.1186339E+00
        -11   -1    0    0    0    0  0.00000000000E+00  0.00000000000E+00  0.45593999997E+02  0.45594000000E+02  0.51100000000E-03 0.  1.
         11   -1    0    0    0    0 -0.00000000000E+00 -0.00000000000E+00 -0.45593999997E+02  0.45594000000E+02  0.51100000000E-03 0. -1.
    9900012    2    1    2    0    0 -0.65064743346E+00 -0.19887712826E+00  0.96444513396E+00  0.90007725197E+02  0.89999986369E+02 0.  0.
         12    1    1    2    0    0  0.65064743346E+00  0.19887712826E+00 -0.96444513396E+00  0.11802748033E+01  0.00000000000E+00 0. -1.
         11    1    3    3    0    0 -0.36358108021E+00  0.63763070995E+01 -0.40509124371E+01  0.75630268586E+01  0.51100000000E-03 0. -1.
        -11    1    3    3    0    0  0.26403112735E+02  0.21844729324E+02  0.21128531052E+02  0.40258308285E+02  0.51100000000E-03 0.  1.
         12    1    3    3    0    0 -0.26690179088E+02 -0.28419913552E+02 -0.16113173481E+02  0.42186390053E+02  0.00000000000E+00 0. -1.
</event>
<event>
 7    1  0.3795708E-015  0.9000769E+02  0.7816164E-02  0.1186339E+00
        -11   -1    0    0    0    0  0.00000000000E+00  0.00000000000E+00  0.45593999997E+02  0.45594000000E+02  0.51100000000E-03 0.  1.
         11   -1    0    0    0    0 -0.00000000000E+00 -0.00000000000E+00 -0.45593999997E+02  0.45594000000E+02  0.51100000000E-03 0. -1.
    9900012    2    1    2    0    0  0.86636305279E+00  0.31504667890E+00  0.73708845562E+00  0.90007687016E+02  0.89999947684E+02 0.  0.
         12    1    1    2    0    0 -0.86636305279E+00 -0.31504667890E+00 -0.73708845562E+00  0.11803129841E+01  0.00000000000E+00 0. -1.
         11    1    3    3    0    0 -0.20222111328E+02  0.16684483167E+02 -0.16460403094E+02  0.30955623647E+02  0.51100000000E-03 0. -1.
        -11    1    3    3    0    0 -0.44266792830E+01 -0.23518442801E+02 -0.50438186326E+01  0.24457161485E+02  0.51100000000E-03 0.  1.
        -12    1    3    3    0    0  0.25515153663E+02  0.71490063133E+01  0.22241310182E+02  0.34594901884E+02  0.00000000000E+00 0.  1.
</event>
<event>
 7    1  0.3795708E-015  0.9000769E+02  0.7816164E-02  0.1186339E+00
        -11   -1    0    0    0    0  0.00000000000E+00  0.00000000000E+00  0.45593999997E+02  0.45594000000E+02  0.51100000000E-03 0.  1.
         11   -1    0    0    0    0 -0.00000000000E+00 -0.00000000000E+00 -0.45593999997E+02  0.45594000000E+02  0.51100000000E-03 0. -1.
    9900012    2    1    2    0    0  0.18043445756E+00 -0.11663235009E+01  0.16278199700E-01  0.90007689837E+02  0.89999950542E+02 0.  0.
         12    1    1    2    0    0 -0.18043445756E+00  0.11663235009E+01 -0.16278199700E-01  0.11803101634E+01  0.00000000000E+00 0. -1.
         11    1    3    3    0    0  0.38967389456E+01 -0.40780990153E+02 -0.93500345289E+01  0.42020196076E+02  0.51100000000E-03 0. -1.
        -11    1    3    3    0    0  0.34365017988E+01  0.56656413358E+01 -0.69893326240E+01  0.96311892905E+01  0.51100000000E-03 0.  1.
        -12    1    3    3    0    0 -0.71528062868E+01  0.33949025317E+02  0.16355645353E+02  0.38356304470E+02  0.00000000000E+00 0.  1.
</event>
<event>
 7    1  0.3795708E-015  0.9000778E+02  0.7816164E-02  0.1186339E+00
        -11   -1    0    0    0    0  0.00000000000E+00  0.00000000000E+00  0.45593999997E+02  0.45594000000E+02  0.51100000000E-03 0. -1.
         11   -1    0    0    0    0 -0.00000000000E+00 -0.00000000000E+00 -0.45593999997E+02  0.45594000000E+02  0.51100000000E-03 0.  1.
    9900012    2    1    2    0    0  0.11025605293E+01  0.14490765594E+00 -0.39533582459E+00  0.90007776138E+02  0.90000037983E+02 0.  0.
         12    1    1    2    0    0 -0.11025605293E+01 -0.14490765594E+00  0.39533582459E+00  0.11802238617E+01  0.00000000000E+00 0. -1.
         11    1    3    3    0    0 -0.23397873502E+02  0.27110862482E+02 -0.23345948427E+02  0.42749183117E+02  0.51100000000E-03 0. -1.
        -11    1    3    3    0    0 -0.12722832716E+01 -0.35938043646E+01  0.89993439449E+01  0.97735523856E+01  0.51100000000E-03 0.  1.
        -12    1    3    3    0    0  0.25772717303E+02 -0.23372150461E+02  0.13951268658E+02  0.37485040636E+02  0.00000000000E+00 0.  1.
</event>
<event>
 7    1  0.4305884E-015  0.9000782E+02  0.7816164E-02  0.1186339E+00
        -11   -1    0    0    0    0  0.00000000000E+00  0.00000000000E+00  0.45593999997E+02  0.45594000000E+02  0.51100000000E-03 0. -1.
         11   -1    0    0    0    0 -0.00000000000E+00 -0.00000000000E+00 -0.45593999997E+02  0.45594000000E+02  0.51100000000E-03 0.  1.
    9900012    2    1    2    0    0  0.98523431477E+00 -0.61240359052E+00 -0.21702116416E+00  0.90007820777E+02  0.90000083211E+02 0.  0.
         12    1    1    2    0    0 -0.98523431477E+00  0.61240359052E+00  0.21702116416E+00  0.11801792230E+01  0.00000000000E+00 0. -1.
         11    1    3    3    0    0  0.62438314352E+01  0.24374123075E+02  0.26692867771E+02  0.36682318585E+02  0.51100000000E-03 0. -1.
        -11    1    3    3    0    0  0.88611316742E+00 -0.23006796816E+01  0.95961578109E+01  0.99078034163E+01  0.51100000000E-03 0.  1.
        -12    1    3    3    0    0 -0.61447102878E+01 -0.22685846984E+02 -0.36506046746E+02  0.43417698775E+02  0.00000000000E+00 0.  1.
</event>
<event>
 7    1  0.3795708E-015  0.9000776E+02  0.7816164E-02  0.1186339E+00
        -11   -1    0    0    0    0  0.00000000000E+00  0.00000000000E+00  0.45593999997E+02  0.45594000000E+02  0.51100000000E-03 0.  1.
         11   -1    0    0    0    0 -0.00000000000E+00 -0.00000000000E+00 -0.45593999997E+02  0.45594000000E+02  0.51100000000E-03 0. -1.
    9900012    2    1    2    0    0  0.10762376989E+01  0.45409883986E+00  0.16876675685E+00  0.90007756144E+02  0.90000017725E+02 0.  0.
         12    1    1    2    0    0 -0.10762376989E+01 -0.45409883986E+00 -0.16876675685E+00  0.11802438557E+01  0.00000000000E+00 0. -1.
         11    1    3    3    0    0 -0.92530029423E-01  0.21696055528E+01 -0.38423075080E+02  0.38484392277E+02  0.51100000000E-03 0. -1.
        -11    1    3    3    0    0  0.99093791202E+01  0.12993346596E+01 -0.17406551710E+01  0.10144651093E+02  0.51100000000E-03 0.  1.
        -12    1    3    3    0    0 -0.87406113919E+01 -0.30148413725E+01  0.40332497008E+02  0.41378712775E+02  0.00000000000E+00 0.  1.
</event>
<event>
 7    1  0.3795708E-015  0.9000772E+02  0.7816164E-02  0.1186339E+00
        -11   -1    0    0    0    0  0.00000000000E+00  0.00000000000E+00  0.45593999997E+02  0.45594000000E+02  0.51100000000E-03 0.  1.
         11   -1    0    0    0    0 -0.00000000000E+00 -0.00000000000E+00 -0.45593999997E+02  0.45594000000E+02  0.51100000000E-03 0. -1.
    9900012    2    1    2    0    0  0.59996530898E+00 -0.47987181502E+00 -0.89600334781E+00  0.90007721503E+02  0.89999982627E+02 0.  0.
         12    1    1    2    0    0 -0.59996530898E+00  0.47987181502E+00  0.89600334781E+00  0.11802784968E+01  0.00000000000E+00 0. -1.
         11    1    3    3    0    0 -0.27743344599E+01 -0.12797648383E+02  0.49715321483E+01  0.14006886449E+02  0.51100000000E-03 0. -1.
        -11    1    3    3    0    0 -0.13448297078E+02 -0.23311120967E+02 -0.20646373631E+02  0.33919578409E+02  0.51100000000E-03 0.  1.
         12    1    3    3    0    0  0.16822596847E+02  0.35628897535E+02  0.14778838135E+02  0.42081256646E+02  0.00000000000E+00 0. -1.
</event>
<event>
 7    1  0.3795708E-015  0.9000777E+02  0.7816164E-02  0.1186339E+00
        -11   -1    0    0    0    0  0.00000000000E+00  0.00000000000E+00  0.45593999997E+02  0.45594000000E+02  0.51100000000E-03 0.  1.
         11   -1    0    0    0    0 -0.00000000000E+00 -0.00000000000E+00 -0.45593999997E+02  0.45594000000E+02  0.51100000000E-03 0. -1.
    9900012    2    1    2    0    0  0.56827972775E+00  0.40883851271E+00  0.95018421316E+00  0.90007770862E+02  0.90000032638E+02 0.  0.
         12    1    1    2    0    0 -0.56827972775E+00 -0.40883851271E+00 -0.95018421316E+00  0.11802291377E+01  0.00000000000E+00 0. -1.
         11    1    3    3    0    0  0.35548132506E+02 -0.68418658510E+01 -0.38550672569E+01  0.36405252324E+02  0.51100000000E-03 0. -1.
        -11    1    3    3    0    0  0.88148417533E+01  0.31878933259E+01  0.15772904474E+00  0.93749121439E+01  0.51100000000E-03 0.  1.
        -12    1    3    3    0    0 -0.43794694532E+02  0.40628110378E+01  0.46475224253E+01  0.44227606394E+02  0.00000000000E+00 0.  1.
</event>
<event>
 7    1  0.3795708E-015  0.9000771E+02  0.7816164E-02  0.1186339E+00
        -11   -1    0    0    0    0  0.00000000000E+00  0.00000000000E+00  0.45593999997E+02  0.45594000000E+02  0.51100000000E-03 0. -1.
         11   -1    0    0    0    0 -0.00000000000E+00 -0.00000000000E+00 -0.45593999997E+02  0.45594000000E+02  0.51100000000E-03 0.  1.
    9900012    2    1    2    0    0  0.33745384280E+00  0.10934186856E+01  0.28920473316E+00  0.90007712367E+02  0.89999973371E+02 0.  0.
         12    1    1    2    0    0 -0.33745384280E+00 -0.10934186856E+01 -0.28920473316E+00  0.11802876326E+01  0.00000000000E+00 0. -1.
         11    1    3    3    0    0 -0.64053529377E+01 -0.70115687849E+01 -0.25399009198E+01  0.98306530823E+01  0.51100000000E-03 0. -1.
        -11    1    3    3    0    0 -0.27163086617E+02 -0.15711121189E+02 -0.15346761279E+02  0.34931299512E+02  0.51100000000E-03 0.  1.
         12    1    3    3    0    0  0.33905893397E+02  0.23816108659E+02  0.18175866932E+02  0.45245759773E+02  0.00000000000E+00 0. -1.
</event>
<event>
 7    1  0.3795708E-015  0.9000793E+02  0.7816164E-02  0.1186339E+00
        -11   -1    0    0    0    0  0.00000000000E+00  0.00000000000E+00  0.45593999997E+02  0.45594000000E+02  0.51100000000E-03 0. -1.
         11   -1    0    0    0    0 -0.00000000000E+00 -0.00000000000E+00 -0.45593999997E+02  0.45594000000E+02  0.51100000000E-03 0.  1.
    9900012    2    1    2    0    0  0.63392269993E-01 -0.69926547656E+00 -0.94846198477E+00  0.90007927577E+02  0.90000191421E+02 0.  0.
         12    1    1    2    0    0 -0.63392269993E-01  0.69926547656E+00  0.94846198477E+00  0.11800724228E+01  0.00000000000E+00 0. -1.
         11    1    3    3    0    0  0.23049016630E+01  0.60198699430E+01 -0.31086463146E+01  0.71564717548E+01  0.51100000000E-03 0. -1.
        -11    1    3    3    0    0  0.54287653733E+01  0.27405590164E+02 -0.25834102127E+02  0.38051789692E+02  0.51100000000E-03 0.  1.
         12    1    3    3    0    0 -0.76702747663E+01 -0.34124725584E+02  0.27994286457E+02  0.44799666131E+02  0.00000000000E+00 0. -1.
</event>
<event>
 7    1  0.3795708E-015  0.9000769E+02  0.7816164E-02  0.1186339E+00
        -11   -1    0    0    0    0  0.00000000000E+00  0.00000000000E+00  0.45593999997E+02  0.45594000000E+02  0.51100000000E-03 0.  1.
         11   -1    0    0    0    0 -0.00000000000E+00 -0.00000000000E+00 -0.45593999997E+02  0.45594000000E+02  0.51100000000E-03 0. -1.
    9900012    2    1    2    0    0 -0.67941900740E+00  0.96142223475E+00 -0.84828343078E-01  0.90007687012E+02  0.89999947681E+02 0.  0.
         12    1    1    2    0    0  0.67941900740E+00 -0.96142223475E+00  0.84828343078E-01  0.11803129877E+01  0.00000000000E+00 0. -1.
         11    1    3    3    0    0  0.43391759595E+01  0.45981543614E+01 -0.65077181751E+01  0.90731399001E+01  0.51100000000E-03 0. -1.
        -11    1    3    3    0    0  0.22535089375E+02 -0.24393807493E+02  0.25171911536E+02  0.41671491787E+02  0.51100000000E-03 0.  1.
         12    1    3    3    0    0 -0.27553684342E+02  0.20757075366E+02 -0.18749021704E+02  0.39263055325E+02  0.00000000000E+00 0. -1.
</event>
<event>
 7    1  0.3795708E-015  0.9000907E+02  0.7816164E-02  0.1186336E+00
        -11   -1    0    0    0    0  0.00000000000E+00  0.00000000000E+00  0.45593999997E+02  0.45594000000E+02  0.51100000000E-03 0.  1.
         11   -1    0    0    0    0 -0.00000000000E+00 -0.00000000000E+00 -0.45593999997E+02  0.45594000000E+02  0.51100000000E-03 0. -1.
    9900012    2    1    2    0    0 -0.54600685049E+00 -0.19665935292E+00  0.10261965930E+01  0.90009069201E+02  0.90001348104E+02 0.  0.
         12    1    1    2    0    0  0.54600685049E+00  0.19665935292E+00 -0.10261965930E+01  0.11789307992E+01  0.00000000000E+00 0. -1.
         11    1    3    3    0    0  0.82068399223E+00 -0.81385364992E+01  0.47773561667E+01  0.94727203468E+01  0.51100000000E-03 0. -1.
        -11    1    3    3    0    0 -0.23305916634E+02  0.21916091068E+02  0.25849982593E+02  0.41130309969E+02  0.51100000000E-03 0.  1.
         12    1    3    3    0    0  0.21939225791E+02 -0.13974213921E+02 -0.29601142167E+02  0.39406038885E+02  0.00000000000E+00 0. -1.
</event>
<event>
 7    1  0.3795708E-015  0.9000782E+02  0.7816164E-02  0.1186339E+00
        -11   -1    0    0    0    0  0.00000000000E+00  0.00000000000E+00  0.45593999997E+02  0.45594000000E+02  0.51100000000E-03 0.  1.
         11   -1    0    0    0    0 -0.00000000000E+00 -0.00000000000E+00 -0.45593999997E+02  0.45594000000E+02  0.51100000000E-03 0. -1.
    9900012    2    1    2    0    0  0.13400436381E+00 -0.80943803683E+00  0.84834228986E+00  0.90007817071E+02  0.90000079456E+02 0.  0.
         12    1    1    2    0    0 -0.13400436381E+00  0.80943803683E+00 -0.84834228986E+00  0.11801829289E+01  0.00000000000E+00 0. -1.
         11    1    3    3    0    0 -0.51807864173E+01  0.62765607696E+01 -0.42218364589E+01  0.91684058780E+01  0.51100000000E-03 0. -1.
        -11    1    3    3    0    0  0.39321155217E+02  0.11784184955E+02  0.80628249665E+01  0.41833352834E+02  0.51100000000E-03 0.  1.
         12    1    3    3    0    0 -0.34006364436E+02 -0.18870183761E+02 -0.29926462177E+01  0.39006058359E+02  0.00000000000E+00 0. -1.
</event>
<event>
 7    1  0.3795708E-015  0.9000773E+02  0.7816164E-02  0.1186339E+00
        -11   -1    0    0    0    0  0.00000000000E+00  0.00000000000E+00  0.45593999997E+02  0.45594000000E+02  0.51100000000E-03 0.  1.
         11   -1    0    0    0    0 -0.00000000000E+00 -0.00000000000E+00 -0.45593999997E+02  0.45594000000E+02  0.51100000000E-03 0. -1.
    9900012    2    1    2    0    0 -0.21832513571E+00  0.34254861209E+00  0.11081607454E+01  0.90007734922E+02  0.89999996223E+02 0.  0.
         12    1    1    2    0    0  0.21832513571E+00 -0.34254861209E+00 -0.11081607454E+01  0.11802650779E+01  0.00000000000E+00 0. -1.
         11    1    3    3    0    0 -0.60144027927E+01  0.62634041819E+01  0.15924705322E+01  0.88283200868E+01  0.51100000000E-03 0. -1.
        -11    1    3    3    0    0  0.42202931909E+02  0.62878117698E+01 -0.23627637864E+01  0.42734139649E+02  0.51100000000E-03 0.  1.
         12    1    3    3    0    0 -0.36406854252E+02 -0.12208667340E+02  0.18784539996E+01  0.38445275186E+02  0.00000000000E+00 0. -1.
</event>
<event>
 7    1  0.3795708E-015  0.9000771E+02  0.7816164E-02  0.1186339E+00
        -11   -1    0    0    0    0  0.00000000000E+00  0.00000000000E+00  0.45593999997E+02  0.45594000000E+02  0.51100000000E-03 0.  1.
         11   -1    0    0    0    0 -0.00000000000E+00 -0.00000000000E+00 -0.45593999997E+02  0.45594000000E+02  0.51100000000E-03 0. -1.
    9900012    2    1    2    0    0  0.34375438617E+00 -0.61548212205E+00  0.94662858379E+00  0.90007707241E+02  0.89999968177E+02 0.  0.
         12    1    1    2    0    0 -0.34375438617E+00  0.61548212205E+00 -0.94662858379E+00  0.11802927587E+01  0.00000000000E+00 0. -1.
         11    1    3    3    0    0 -0.49122005565E+01 -0.77149172693E+01  0.24376387741E+01  0.94652916402E+01  0.51100000000E-03 0. -1.
        -11    1    3    3    0    0 -0.18377825833E+02 -0.22407654765E+02  0.21688329263E+02  0.36197114538E+02  0.51100000000E-03 0.  1.
         12    1    3    3    0    0  0.23633780776E+02  0.29507089912E+02 -0.23179339453E+02  0.44345301063E+02  0.00000000000E+00 0. -1.
</event>
<event>
 7    1  0.3795708E-015  0.9000771E+02  0.7816164E-02  0.1186339E+00
        -11   -1    0    0    0    0  0.00000000000E+00  0.00000000000E+00  0.45593999997E+02  0.45594000000E+02  0.51100000000E-03 0.  1.
         11   -1    0    0    0    0 -0.00000000000E+00 -0.00000000000E+00 -0.45593999997E+02  0.45594000000E+02  0.51100000000E-03 0. -1.
    9900012    2    1    2    0    0  0.74467646735E+00 -0.56293250799E+00  0.72224786799E+00  0.90007712733E+02  0.89999973741E+02 0.  0.
         12    1    1    2    0    0 -0.74467646735E+00  0.56293250799E+00 -0.72224786799E+00  0.11802872669E+01  0.00000000000E+00 0. -1.
         11    1    3    3    0    0  0.39021575286E+01 -0.71036069495E+01 -0.52663306899E+01  0.96655214172E+01  0.51100000000E-03 0. -1.
        -11    1    3    3    0    0 -0.51319155371E+01 -0.35162250129E+02  0.13328608201E+02  0.37952235614E+02  0.51100000000E-03 0.  1.
         12    1    3    3    0    0  0.19744344758E+01  0.41702924571E+02 -0.73400296436E+01  0.42389955702E+02  0.00000000000E+00 0. -1.
</event>
<event>
 7    1  0.3795708E-015  0.9000787E+02  0.7816164E-02  0.1186339E+00
        -11   -1    0    0    0    0  0.00000000000E+00  0.00000000000E+00  0.45593999997E+02  0.45594000000E+02  0.51100000000E-03 0.  1.
         11   -1    0    0    0    0 -0.00000000000E+00 -0.00000000000E+00 -0.45593999997E+02  0.45594000000E+02  0.51100000000E-03 0. -1.
    9900012    2    1    2    0    0 -0.52870134207E+00 -0.48543395580E+00  0.93676396573E+00  0.90007873752E+02  0.90000136885E+02 0.  0.
         12    1    1    2    0    0  0.52870134207E+00  0.48543395580E+00 -0.93676396573E+00  0.11801262483E+01  0.00000000000E+00 0. -1.
         11    1    3    3    0    0 -0.16062258954E+02 -0.21107941983E+02 -0.32367835609E+02  0.41847558588E+02  0.51100000000E-03 0. -1.
        -11    1    3    3    0    0 -0.59430754734E+01  0.45635021253E+01  0.42202939613E+01  0.85998011088E+01  0.51100000000E-03 0.  1.
        -12    1    3    3    0    0  0.21476633086E+02  0.16059005902E+02  0.29084305614E+02  0.39560514055E+02  0.00000000000E+00 0.  1.
</event>
<event>
 7    1  0.3795708E-015  0.9000790E+02  0.7816164E-02  0.1186339E+00
        -11   -1    0    0    0    0  0.00000000000E+00  0.00000000000E+00  0.45593999997E+02  0.45594000000E+02  0.51100000000E-03 0.  1.
         11   -1    0    0    0    0 -0.00000000000E+00 -0.00000000000E+00 -0.45593999997E+02  0.45594000000E+02  0.51100000000E-03 0. -1.
    9900012    2    1    2    0    0 -0.25591743946E+00 -0.10080689138E+01 -0.55761933421E+00  0.90007900007E+02  0.90000163487E+02 0.  0.
         12    1    1    2    0    0  0.25591743946E+00  0.10080689138E+01  0.55761933421E+00  0.11800999927E+01  0.00000000000E+00 0. -1.
         11    1    3    3    0    0 -0.69422492017E+01 -0.16260830106E+02 -0.36331114927E+02  0.40404941924E+02  0.51100000000E-03 0. -1.
        -11    1    3    3    0    0 -0.19055433357E+01  0.28784848887E+01 -0.50338106582E+01  0.61037710198E+01  0.51100000000E-03 0.  1.
        -12    1    3    3    0    0  0.85918750979E+01  0.12374276304E+02  0.40807306251E+02  0.43499187064E+02  0.00000000000E+00 0.  1.
</event>
<event>
 7    1  0.3795708E-015  0.9000770E+02  0.7816164E-02  0.1186339E+00
        -11   -1    0    0    0    0  0.00000000000E+00  0.00000000000E+00  0.45593999997E+02  0.45594000000E+02  0.51100000000E-03 0.  1.
         11   -1    0    0    0    0 -0.00000000000E+00 -0.00000000000E+00 -0.45593999997E+02  0.45594000000E+02  0.51100000000E-03 0. -1.
    9900012    2    1    2    0    0 -0.11760017408E+01 -0.88958187380E-01  0.46935868456E-01  0.90007704855E+02  0.89999965759E+02 0.  0.
         12    1    1    2    0    0  0.11760017408E+01  0.88958187380E-01 -0.46935868456E-01  0.11802951449E+01  0.00000000000E+00 0. -1.
         11    1    3    3    0    0  0.10435065815E+02 -0.76848636114E+01 -0.33299215641E+02  0.35732135255E+02  0.51100000000E-03 0. -1.
        -11    1    3    3    0    0  0.74529772016E+01 -0.34278564666E+01 -0.53203655035E+01  0.97776969924E+01  0.51100000000E-03 0.  1.
        -12    1    3    3    0    0 -0.19064044757E+02  0.11023761891E+02  0.38666517013E+02  0.44497872608E+02  0.00000000000E+00 0.  1.
</event>
<event>
 7    1  0.3795708E-015  0.9000777E+02  0.7816164E-02  0.1186339E+00
        -11   -1    0    0    0    0  0.00000000000E+00  0.00000000000E+00  0.45593999997E+02  0.45594000000E+02  0.51100000000E-03 0.  1.
         11   -1    0    0    0    0 -0.00000000000E+00 -0.00000000000E+00 -0.45593999997E+02  0.45594000000E+02  0.51100000000E-03 0. -1.
    9900012    2    1    2    0    0  0.41027651290E+00  0.15986011738E+00  0.10950119649E+01  0.90007774057E+02  0.90000035874E+02 0.  0.
         12    1    1    2    0    0 -0.41027651290E+00 -0.15986011738E+00 -0.10950119649E+01  0.11802259434E+01  0.00000000000E+00 0. -1.
         11    1    3    3    0    0 -0.15037107963E+02  0.27893692221E-01  0.79224201226E+01  0.16996474187E+02  0.51100000000E-03 0. -1.
        -11    1    3    3    0    0 -0.46546456662E+01  0.21700441123E+01  0.30305310161E+02  0.30737381833E+02  0.51100000000E-03 0.  1.
        -12    1    3    3    0    0  0.20102030142E+02 -0.20380776872E+01 -0.37132718318E+02  0.42273918037E+02  0.00000000000E+00 0.  1.
</event>
<event>
 7    1  0.3795708E-015  0.9000770E+02  0.7816164E-02  0.1186339E+00
        -11   -1    0    0    0    0  0.00000000000E+00  0.00000000000E+00  0.45593999997E+02  0.45594000000E+02  0.51100000000E-03 0. -1.
         11   -1    0    0    0    0 -0.00000000000E+00 -0.00000000000E+00 -0.45593999997E+02  0.45594000000E+02  0.51100000000E-03 0.  1.
    9900012    2    1    2    0    0  0.55204338815E-01  0.10988086285E+01  0.42740001457E+00  0.90007703980E+02  0.89999964873E+02 0.  0.
         12    1    1    2    0    0 -0.55204338815E-01 -0.10988086285E+01 -0.42740001457E+00  0.11802960195E+01  0.00000000000E+00 0. -1.
         11    1    3    3    0    0  0.21835820436E+02 -0.25373527968E+02  0.17724460924E+02  0.37878430418E+02  0.51100000000E-03 0. -1.
        -11    1    3    3    0    0  0.63775063064E+00 -0.79777825310E+01 -0.38673810368E+01  0.88886656098E+01  0.51100000000E-03 0.  1.
        -12    1    3    3    0    0 -0.22418366728E+02  0.34450119127E+02 -0.13429679873E+02  0.43240607952E+02  0.00000000000E+00 0.  1.
</event>
<event>
 7    1  0.3795708E-015  0.9000778E+02  0.7816164E-02  0.1186339E+00
        -11   -1    0    0    0    0  0.00000000000E+00  0.00000000000E+00  0.45593999997E+02  0.45594000000E+02  0.51100000000E-03 0.  1.
         11   -1    0    0    0    0 -0.00000000000E+00 -0.00000000000E+00 -0.45593999997E+02  0.45594000000E+02  0.51100000000E-03 0. -1.
    9900012    2    1    2    0    0 -0.64423890021E+00  0.74592976745E+00  0.64921031132E+00  0.90007775866E+02  0.90000037707E+02 0.  0.
         12    1    1    2    0    0  0.64423890021E+00 -0.74592976745E+00 -0.64921031132E+00  0.11802241341E+01  0.00000000000E+00 0. -1.
         11    1    3    3    0    0  0.24042687861E+02 -0.13247943284E+02 -0.21279899165E+02  0.34733167859E+02  0.51100000000E-03 0. -1.
        -11    1    3    3    0    0  0.76968132224E+01 -0.37906696135E+01 -0.46525941514E+01  0.97599560705E+01  0.51100000000E-03 0.  1.
        -12    1    3    3    0    0 -0.32383739984E+02  0.17784542664E+02  0.26581703628E+02  0.45514651936E+02  0.00000000000E+00 0.  1.
</event>
<event>
 7    1  0.3795708E-015  0.9000772E+02  0.7816164E-02  0.1186339E+00
        -11   -1    0    0    0    0  0.00000000000E+00  0.00000000000E+00  0.45593999997E+02  0.45594000000E+02  0.51100000000E-03 0.  1.
         11   -1    0    0    0    0 -0.00000000000E+00 -0.00000000000E+00 -0.45593999997E+02  0.45594000000E+02  0.51100000000E-03 0. -1.
    9900012    2    1    2    0    0 -0.19015111862E+00  0.57477597888E+00  0.10131830452E+01  0.90007718357E+02  0.89999979439E+02 0.  0.
         12    1    1    2    0    0  0.19015111862E+00 -0.57477597888E+00 -0.10131830452E+01  0.11802816430E+01  0.00000000000E+00 0. -1.
         11    1    3    3    0    0 -0.21435010783E+02  0.14673194901E+02 -0.18811736414E+02  0.32072476721E+02  0.51100000000E-03 0. -1.
        -11    1    3    3    0    0 -0.14338709249E+01  0.15835203903E+02  0.10124307060E+01  0.15932190203E+02  0.51100000000E-03 0.  1.
        -12    1    3    3    0    0  0.22678730589E+02 -0.29933622825E+02  0.18812488753E+02  0.42003051433E+02  0.00000000000E+00 0.  1.
</event>
<event>
 7    1  0.3795708E-015  0.9000777E+02  0.7816164E-02  0.1186339E+00
        -11   -1    0    0    0    0  0.00000000000E+00  0.00000000000E+00  0.45593999997E+02  0.45594000000E+02  0.51100000000E-03 0.  1.
         11   -1    0    0    0    0 -0.00000000000E+00 -0.00000000000E+00 -0.45593999997E+02  0.45594000000E+02  0.51100000000E-03 0. -1.
    9900012    2    1    2    0    0 -0.91585940997E+00 -0.71678776800E+00  0.20089394926E+00  0.90007770555E+02  0.90000032327E+02 0.  0.
         12    1    1    2    0    0  0.91585940997E+00  0.71678776800E+00 -0.20089394926E+00  0.11802294447E+01  0.00000000000E+00 0. -1.
         11    1    3    3    0    0 -0.71824422425E+01  0.71358678954E+01 -0.30330768868E+02  0.31975985170E+02  0.51100000000E-03 0. -1.
        -11    1    3    3    0    0 -0.62906817603E+01  0.51412978533E+01 -0.10453813988E+02  0.13239631708E+02  0.51100000000E-03 0.  1.
        -12    1    3    3    0    0  0.12557264593E+02 -0.12993953517E+02  0.40985476805E+02  0.44792153677E+02  0.00000000000E+00 0.  1.
</event>
<event>
 7    1  0.3795708E-015  0.9000824E+02  0.7816164E-02  0.1186338E+00
        -11   -1    0    0    0    0  0.00000000000E+00  0.00000000000E+00  0.45593999997E+02  0.45594000000E+02  0.51100000000E-03 0.  1.
         11   -1    0    0    0    0 -0.00000000000E+00 -0.00000000000E+00 -0.45593999997E+02  0.45594000000E+02  0.51100000000E-03 0. -1.
    9900012    2    1    2    0    0 -0.24201878695E+00 -0.10333858407E+01  0.51514946739E+00  0.90008238006E+02  0.90000505946E+02 0.  0.
         12    1    1    2    0    0  0.24201878695E+00  0.10333858407E+01 -0.51514946739E+00  0.11797619941E+01  0.00000000000E+00 0. -1.
         11    1    3    3    0    0  0.19357860952E+02 -0.18240066020E+02 -0.32671607525E+02  0.42129095974E+02  0.51100000000E-03 0. -1.
        -11    1    3    3    0    0 -0.15974188362E+00  0.99751307394E+01  0.16189429972E+01  0.10106914832E+02  0.51100000000E-03 0.  1.
        -12    1    3    3    0    0 -0.19440137855E+02  0.72315494396E+01  0.31567813996E+02  0.37772227199E+02  0.00000000000E+00 0.  1.
</event>
<event>
 7    1  0.3795708E-015  0.9000767E+02  0.7816164E-02  0.1186339E+00
        -11   -1    0    0    0    0  0.00000000000E+00  0.00000000000E+00  0.45593999997E+02  0.45594000000E+02  0.51100000000E-03 0.  1.
         11   -1    0    0    0    0 -0.00000000000E+00 -0.00000000000E+00 -0.45593999997E+02  0.45594000000E+02  0.51100000000E-03 0. -1.
    9900012    2    1    2    0    0 -0.51566719163E+00 -0.97938570768E+00  0.40995154081E+00  0.90007674078E+02  0.89999934576E+02 0.  0.
         12    1    1    2    0    0  0.51566719163E+00  0.97938570768E+00 -0.40995154081E+00  0.11803259223E+01  0.00000000000E+00 0. -1.
         11    1    3    3    0    0  0.82223619245E+00 -0.41344251538E+01  0.94733706676E+01  0.10368910057E+02  0.51100000000E-03 0. -1.
        -11    1    3    3    0    0  0.22989693413E+02 -0.25432056099E+02  0.12330393232E+02  0.36432870847E+02  0.51100000000E-03 0.  1.
         12    1    3    3    0    0 -0.24327596798E+02  0.28587095545E+02 -0.21393812359E+02  0.43205893173E+02  0.00000000000E+00 0. -1.
</event>
<event>
 7    1  0.3795708E-015  0.9000772E+02  0.7816164E-02  0.1186339E+00
        -11   -1    0    0    0    0  0.00000000000E+00  0.00000000000E+00  0.45593999997E+02  0.45594000000E+02  0.51100000000E-03 0. -1.
         11   -1    0    0    0    0 -0.00000000000E+00 -0.00000000000E+00 -0.45593999997E+02  0.45594000000E+02  0.51100000000E-03 0.  1.
    9900012    2    1    2    0    0 -0.67345843396E+00  0.31486375177E+00 -0.91672260686E+00  0.90007717923E+02  0.89999978999E+02 0.  0.
         12    1    1    2    0    0  0.67345843396E+00 -0.31486375177E+00  0.91672260686E+00  0.11802820775E+01  0.00000000000E+00 0. -1.
         11    1    3    3    0    0 -0.70172647909E+01  0.46742778301E+01 -0.68801073394E+01  0.10882405784E+02  0.51100000000E-03 0. -1.
        -11    1    3    3    0    0 -0.31072353026E+02 -0.14664055585E+02  0.17606535332E+02  0.38607197974E+02  0.51100000000E-03 0.  1.
         12    1    3    3    0    0  0.37416159383E+02  0.10304641507E+02 -0.11643150600E+02  0.40518114164E+02  0.00000000000E+00 0. -1.
</event>
<event>
 7    1  0.3795708E-015  0.9000776E+02  0.7816164E-02  0.1186339E+00
        -11   -1    0    0    0    0  0.00000000000E+00  0.00000000000E+00  0.45593999997E+02  0.45594000000E+02  0.51100000000E-03 0. -1.
         11   -1    0    0    0    0 -0.00000000000E+00 -0.00000000000E+00 -0.45593999997E+02  0.45594000000E+02  0.51100000000E-03 0.  1.
    9900012    2    1    2    0    0  0.81917494893E+00  0.24074444007E+00 -0.81484036689E+00  0.90007758370E+02  0.90000019980E+02 0.  0.
         12    1    1    2    0    0 -0.81917494893E+00 -0.24074444007E+00  0.81484036689E+00  0.11802416303E+01  0.00000000000E+00 0. -1.
         11    1    3    3    0    0  0.18584409700E+01  0.49158088857E+01  0.67867553083E+01  0.85836488578E+01  0.51100000000E-03 0. -1.
        -11    1    3    3    0    0  0.24321780964E+01  0.24385467565E+02  0.26761302765E+02  0.36286827425E+02  0.51100000000E-03 0.  1.
         12    1    3    3    0    0 -0.34714441174E+01 -0.29060532011E+02 -0.34362898440E+02  0.45137282087E+02  0.00000000000E+00 0. -1.
</event>
<event>
 7    1  0.3795708E-015  0.9000775E+02  0.7816164E-02  0.1186339E+00
        -11   -1    0    0    0    0  0.00000000000E+00  0.00000000000E+00  0.45593999997E+02  0.45594000000E+02  0.51100000000E-03 0.  1.
         11   -1    0    0    0    0 -0.00000000000E+00 -0.00000000000E+00 -0.45593999997E+02  0.45594000000E+02  0.51100000000E-03 0. -1.
    9900012    2    1    2    0    0  0.71035563688E+00 -0.87971304599E+00  0.33835040154E+00  0.90007753768E+02  0.90000015318E+02 0.  0.
         12    1    1    2    0    0 -0.71035563688E+00  0.87971304599E+00 -0.33835040154E+00  0.11802462321E+01  0.00000000000E+00 0. -1.
         11    1    3    3    0    0 -0.62839621774E+01 -0.29918577776E+02 -0.21706634539E+02  0.37493832294E+02  0.51100000000E-03 0. -1.
        -11    1    3    3    0    0  0.78893287493E+01 -0.70043991692E+01  0.60702342220E+00  0.10567478107E+02  0.51100000000E-03 0.  1.
        -12    1    3    3    0    0 -0.89501093506E+00  0.36043263900E+02  0.21437961518E+02  0.41946443367E+02  0.00000000000E+00 0.  1.
</event>
<event>
 7    1  0.3795708E-015  0.9000781E+02  0.7816164E-02  0.1186339E+00
        -11   -1    0    0    0    0  0.00000000000E+00  0.00000000000E+00  0.45593999997E+02  0.45594000000E+02  0.51100000000E-03 0. -1.
         11   -1    0    0    0    0 -0.00000000000E+00 -0.00000000000E+00 -0.45593999997E+02  0.45594000000E+02  0.51100000000E-03 0.  1.
    9900012    2    1    2    0    0  0.60767558563E+00 -0.56115826262E+00 -0.84182503594E+00  0.90007814589E+02  0.90000076942E+02 0.  0.
         12    1    1    2    0    0 -0.60767558563E+00  0.56115826262E+00  0.84182503594E+00  0.11801854109E+01  0.00000000000E+00 0. -1.
         11    1    3    3    0    0 -0.36441862923E+01  0.71788395418E+01  0.61540023143E+01  0.10133487832E+02  0.51100000000E-03 0. -1.
        -11    1    3    3    0    0 -0.64561977509E+01  0.11556932142E+02 -0.38894538112E+02  0.41085645487E+02  0.51100000000E-03 0.  1.
         12    1    3    3    0    0  0.10708059629E+02 -0.19296929946E+02  0.31898710762E+02  0.38788681269E+02  0.00000000000E+00 0. -1.
</event>
<event>
 7    1  0.3795708E-015  0.9000803E+02  0.7816164E-02  0.1186338E+00
        -11   -1    0    0    0    0  0.00000000000E+00  0.00000000000E+00  0.45593999997E+02  0.45594000000E+02  0.51100000000E-03 0. -1.
         11   -1    0    0    0    0 -0.00000000000E+00 -0.00000000000E+00 -0.45593999997E+02  0.45594000000E+02  0.51100000000E-03 0.  1.
    9900012    2    1    2    0    0 -0.30357647933E+00 -0.11401766059E+01 -0.12737178804E-01  0.90008032370E+02  0.90000297597E+02 0.  0.
         12    1    1    2    0    0  0.30357647933E+00  0.11401766059E+01  0.12737178804E-01  0.11799676297E+01  0.00000000000E+00 0. -1.
         11    1    3    3    0    0  0.26702636524E+02  0.30259775725E+02 -0.45931493083E+01  0.40617506633E+02  0.51100000000E-03 0. -1.
        -11    1    3    3    0    0 -0.90819012534E+01  0.22365621551E+01 -0.42393216901E+01  0.10269127972E+02  0.51100000000E-03 0.  1.
        -12    1    3    3    0    0 -0.17924311749E+02 -0.33636514486E+02  0.88197338196E+01  0.39121397765E+02  0.00000000000E+00 0.  1.
</event>
<event>
 7    1  0.3795708E-015  0.9000799E+02  0.7816164E-02  0.1186339E+00
        -11   -1    0    0    0    0  0.00000000000E+00  0.00000000000E+00  0.45593999997E+02  0.45594000000E+02  0.51100000000E-03 0. -1.
         11   -1    0    0    0    0 -0.00000000000E+00 -0.00000000000E+00 -0.45593999997E+02  0.45594000000E+02  0.51100000000E-03 0.  1.
    9900012    2    1    2    0    0  0.77577413814E+00 -0.81807811253E+00  0.34835904079E+00  0.90007986723E+02  0.90000251348E+02 0.  0.
         12    1    1    2    0    0 -0.77577413814E+00  0.81807811253E+00 -0.34835904079E+00  0.11800132766E+01  0.00000000000E+00 0. -1.
         11    1    3    3    0    0 -0.37347393621E+02  0.16609008120E+02 -0.87364675571E+01  0.41797282527E+02  0.51100000000E-03 0. -1.
        -11    1    3    3    0    0  0.58689997499E+01 -0.13667647646E+02  0.28651182675E+01  0.15147892698E+02  0.51100000000E-03 0.  1.
        -12    1    3    3    0    0  0.32254168009E+02 -0.37594385867E+01  0.62197083304E+01  0.33062811498E+02  0.00000000000E+00 0.  1.
</event>
<event>
 7    1  0.3795708E-015  0.9000761E+02  0.7816164E-02  0.1186339E+00
        -11   -1    0    0    0    0  0.00000000000E+00  0.00000000000E+00  0.45593999997E+02  0.45594000000E+02  0.51100000000E-03 0. -1.
         11   -1    0    0    0    0 -0.00000000000E+00 -0.00000000000E+00 -0.45593999997E+02  0.45594000000E+02  0.51100000000E-03 0.  1.
    9900012    2    1    2    0    0 -0.90005223927E+00 -0.50653981695E+00  0.57151776379E+00  0.90007614820E+02  0.89999874535E+02 0.  0.
         12    1    1    2    0    0  0.90005223927E+00  0.50653981695E+00 -0.57151776379E+00  0.11803851803E+01  0.00000000000E+00 0. -1.
         11    1    3    3    0    0  0.53340854289E+01 -0.47934880451E+01  0.50124010243E+01  0.87495233750E+01  0.51100000000E-03 0. -1.
        -11    1    3    3    0    0  0.47604405901E+01  0.31834586165E+01 -0.41855718541E+02  0.42245678811E+02  0.51100000000E-03 0.  1.
         12    1    3    3    0    0 -0.10994578258E+02  0.11034896117E+01  0.37414835281E+02  0.39012412633E+02  0.00000000000E+00 0. -1.
</event>
<event>
 7    1  0.3795708E-015  0.9000775E+02  0.7816164E-02  0.1186339E+00
        -11   -1    0    0    0    0  0.00000000000E+00  0.00000000000E+00  0.45593999997E+02  0.45594000000E+02  0.51100000000E-03 0. -1.
         11   -1    0    0    0    0 -0.00000000000E+00 -0.00000000000E+00 -0.45593999997E+02  0.45594000000E+02  0.51100000000E-03 0.  1.
    9900012    2    1    2    0    0 -0.28658627065E-01  0.21418173605E+00 -0.11603017020E+01  0.90007747835E+02  0.90000009307E+02 0.  0.
         12    1    1    2    0    0  0.28658627065E-01 -0.21418173605E+00  0.11603017020E+01  0.11802521649E+01  0.00000000000E+00 0. -1.
         11    1    3    3    0    0  0.51489104805E+01 -0.66534259300E+01 -0.29714033553E+01  0.89223648157E+01  0.51100000000E-03 0. -1.
        -11    1    3    3    0    0 -0.42258111661E+02  0.77939459496E+01 -0.53682242866E+01  0.43304866088E+02  0.51100000000E-03 0.  1.
         12    1    3    3    0    0  0.37080542554E+02 -0.92633828350E+00  0.71793259399E+01  0.37780516932E+02  0.00000000000E+00 0. -1.
</event>
<event>
 7    1  0.3795708E-015  0.9000770E+02  0.7816164E-02  0.1186339E+00
        -11   -1    0    0    0    0  0.00000000000E+00  0.00000000000E+00  0.45593999997E+02  0.45594000000E+02  0.51100000000E-03 0.  1.
         11   -1    0    0    0    0 -0.00000000000E+00 -0.00000000000E+00 -0.45593999997E+02  0.45594000000E+02  0.51100000000E-03 0. -1.
    9900012    2    1    2    0    0 -0.77649483247E-01  0.70133623473E+00  0.94615038760E+00  0.90007702363E+02  0.89999963234E+02 0.  0.
         12    1    1    2    0    0  0.77649483247E-01 -0.70133623473E+00 -0.94615038760E+00  0.11802976372E+01  0.00000000000E+00 0. -1.
         11    1    3    3    0    0  0.23546722989E+01  0.46258844835E+01  0.77098876318E+00  0.52476387856E+01  0.51100000000E-03 0. -1.
        -11    1    3    3    0    0 -0.19977184764E+02  0.34754223563E+02  0.96769736464E+01  0.41238183590E+02  0.51100000000E-03 0.  1.
         12    1    3    3    0    0  0.17544862982E+02 -0.38678771812E+02 -0.95018120220E+01  0.43521879987E+02  0.00000000000E+00 0. -1.
</event>
<event>
 7    1  0.4839168E-015  0.9000776E+02  0.7816164E-02  0.1186339E+00
        -11   -1    0    0    0    0  0.00000000000E+00  0.00000000000E+00  0.45593999997E+02  0.45594000000E+02  0.51100000000E-03 0. -1.
         11   -1    0    0    0    0 -0.00000000000E+00 -0.00000000000E+00 -0.45593999997E+02  0.45594000000E+02  0.51100000000E-03 0.  1.
    9900012    2    1    2    0    0 -0.81418634478E-01  0.11225945604E+01 -0.35512386501E+00  0.90007762524E+02  0.90000024189E+02 0.  0.
         12    1    1    2    0    0  0.81418634478E-01 -0.11225945604E+01  0.35512386501E+00  0.11802374763E+01  0.00000000000E+00 0. -1.
         11    1    3    3    0    0  0.33956734805E+02  0.60890010408E+01  0.15647183641E+02  0.37880999570E+02  0.51100000000E-03 0. -1.
        -11    1    3    3    0    0  0.23817689406E-01  0.76669076459E+01  0.59280332090E+01  0.96914198197E+01  0.51100000000E-03 0.  1.
        -12    1    3    3    0    0 -0.34061971129E+02 -0.12633314126E+02 -0.21930340715E+02  0.42435343134E+02  0.00000000000E+00 0.  1.
</event>
<event>
 7    1  0.3795708E-015  0.9000778E+02  0.7816164E-02  0.1186339E+00
        -11   -1    0    0    0    0  0.00000000000E+00  0.00000000000E+00  0.45593999997E+02  0.45594000000E+02  0.51100000000E-03 0. -1.
         11   -1    0    0    0    0 -0.00000000000E+00 -0.00000000000E+00 -0.45593999997E+02  0.45594000000E+02  0.51100000000E-03 0.  1.
    9900012    2    1    2    0    0 -0.97396191580E+00  0.20042734109E+00 -0.63573149729E+00  0.90007776517E+02  0.90000038367E+02 0.  0.
         12    1    1    2    0    0  0.97396191580E+00 -0.20042734109E+00  0.63573149729E+00  0.11802234827E+01  0.00000000000E+00 0. -1.
         11    1    3    3    0    0 -0.30923807389E+02  0.22747505064E+02  0.16174515247E+02  0.41657481847E+02  0.51100000000E-03 0. -1.
        -11    1    3    3    0    0  0.84144443049E+01  0.51724660176E+01 -0.12564200536E+01  0.99566997180E+01  0.51100000000E-03 0.  1.
        -12    1    3    3    0    0  0.21535401168E+02 -0.27719543740E+02 -0.15553826691E+02  0.38393594953E+02  0.00000000000E+00 0.  1.
</event>
<event>
 7    1  0.3795708E-015  0.9000719E+02  0.7816164E-02  0.1186340E+00
        -11   -1    0    0    0    0  0.00000000000E+00  0.00000000000E+00  0.45593999997E+02  0.45594000000E+02  0.51100000000E-03 0. -1.
         11   -1    0    0    0    0 -0.00000000000E+00 -0.00000000000E+00 -0.45593999997E+02  0.45594000000E+02  0.51100000000E-03 0.  1.
    9900012    2    1    2    0    0  0.10394374223E+01 -0.34639916715E+00 -0.44033112509E+00  0.90007189246E+02  0.89999443342E+02 0.  0.
         12    1    1    2    0    0 -0.10394374223E+01  0.34639916715E+00  0.44033112509E+00  0.11808107544E+01  0.00000000000E+00 0. -1.
         11    1    3    3    0    0  0.13349926496E+02 -0.32357777463E+02 -0.12891922325E+02  0.37302117383E+02  0.51100000000E-03 0. -1.
        -11    1    3    3    0    0 -0.40367611944E+01 -0.66147976871E+01 -0.53092833523E+01  0.93935871400E+01  0.51100000000E-03 0.  1.
        -12    1    3    3    0    0 -0.82737278789E+01  0.38626175982E+02  0.17760874552E+02  0.43311484723E+02  0.00000000000E+00 0.  1.
</event>
<event>
 7    1  0.3795708E-015  0.9000769E+02  0.7816164E-02  0.1186339E+00
        -11   -1    0    0    0    0  0.00000000000E+00  0.00000000000E+00  0.45593999997E+02  0.45594000000E+02  0.51100000000E-03 0.  1.
         11   -1    0    0    0    0 -0.00000000000E+00 -0.00000000000E+00 -0.45593999997E+02  0.45594000000E+02  0.51100000000E-03 0. -1.
    9900012    2    1    2    0    0  0.37104338918E+00 -0.12898962464E+00  0.11130268652E+01  0.90007686346E+02  0.89999947005E+02 0.  0.
         12    1    1    2    0    0 -0.37104338918E+00  0.12898962464E+00 -0.11130268652E+01  0.11803136543E+01  0.00000000000E+00 0. -1.
         11    1    3    3    0    0  0.16876607580E+01 -0.38078667983E+01 -0.77359652195E+00  0.42363309866E+01  0.51100000000E-03 0. -1.
        -11    1    3    3    0    0 -0.40228298280E+02 -0.18202211378E+01 -0.15035024273E+02  0.42984661714E+02  0.51100000000E-03 0.  1.
         12    1    3    3    0    0  0.38911680911E+02  0.54990983115E+01  0.16921647660E+02  0.42786693645E+02  0.00000000000E+00 0. -1.
</event>
<event>
 7    1  0.3795708E-015  0.9000760E+02  0.7816164E-02  0.1186339E+00
        -11   -1    0    0    0    0  0.00000000000E+00  0.00000000000E+00  0.45593999997E+02  0.45594000000E+02  0.51100000000E-03 0. -1.
         11   -1    0    0    0    0 -0.00000000000E+00 -0.00000000000E+00 -0.45593999997E+02  0.45594000000E+02  0.51100000000E-03 0.  1.
    9900012    2    1    2    0    0 -0.24206748504E+00 -0.10723655559E+01 -0.42984765684E+00  0.90007604490E+02  0.89999864069E+02 0.  0.
         12    1    1    2    0    0  0.24206748504E+00  0.10723655559E+01  0.42984765684E+00  0.11803955103E+01  0.00000000000E+00 0. -1.
         11    1    3    3    0    0  0.27876493552E+02  0.16232242623E+02  0.18539976046E+02  0.37206387965E+02  0.51100000000E-03 0. -1.
        -11    1    3    3    0    0  0.68777415079E+01  0.33234331902E+01 -0.72247268912E+01  0.10514048475E+02  0.51100000000E-03 0.  1.
        -12    1    3    3    0    0 -0.34996302545E+02 -0.20628041369E+02 -0.11745096812E+02  0.42287168050E+02  0.00000000000E+00 0.  1.
</event>
<event>
 7    1  0.3795708E-015  0.9000787E+02  0.7816164E-02  0.1186339E+00
        -11   -1    0    0    0    0  0.00000000000E+00  0.00000000000E+00  0.45593999997E+02  0.45594000000E+02  0.51100000000E-03 0.  1.
         11   -1    0    0    0    0 -0.00000000000E+00 -0.00000000000E+00 -0.45593999997E+02  0.45594000000E+02  0.51100000000E-03 0. -1.
    9900012    2    1    2    0    0  0.11535548468E+01 -0.15558798538E+00  0.19442858171E+00  0.90007873363E+02  0.90000136491E+02 0.  0.
         12    1    1    2    0    0 -0.11535548468E+01  0.15558798538E+00 -0.19442858171E+00  0.11801266369E+01  0.00000000000E+00 0. -1.
         11    1    3    3    0    0 -0.17614072036E+02 -0.27316253844E+02 -0.14075715719E+02  0.35419754813E+02  0.51100000000E-03 0. -1.
        -11    1    3    3    0    0 -0.62736622679E+01 -0.35343014332E+01 -0.66395384969E+01  0.97945697499E+01  0.51100000000E-03 0.  1.
        -12    1    3    3    0    0  0.25041289151E+02  0.30694967292E+02  0.20909682798E+02  0.44793548800E+02  0.00000000000E+00 0.  1.
</event>
<event>
 8    1  0.3795708E-015  0.9000766E+02  0.7816164E-02  0.1186339E+00
        -11   -1    0    0    0    0  0.00000000000E+00  0.00000000000E+00  0.45593999997E+02  0.45594000000E+02  0.51100000000E-03 0.  1.
         11   -1    0    0    0    0 -0.00000000000E+00 -0.00000000000E+00 -0.45593999997E+02  0.45594000000E+02  0.51100000000E-03 0. -1.
    9900012    2    1    2    0    0  0.28324278850E+00 -0.68460018414E+00  0.91885765634E+00  0.90007659675E+02  0.89999919983E+02 0.  0.
         23    2    3    3    0    0  0.19086911696E+02  0.40458063560E+01 -0.17277829901E+02  0.63416793791E+02  0.57814250678E+02 0.  0.
         12    1    1    2    0    0 -0.28324278850E+00  0.68460018414E+00 -0.91885765634E+00  0.11803403246E+01  0.00000000000E+00 0. -1.
         11    1    4    4    0    0 -0.17091859567E+01  0.75143379125E+01 -0.35022252449E+02  0.35860071915E+02  0.51100000000E-03 0. -1.
        -11    1    4    4    0    0  0.20796097653E+02 -0.34685315564E+01  0.17744422547E+02  0.27556721876E+02  0.51100000000E-03 0.  1.
        -12    1    3    3    0    0 -0.18803668908E+02 -0.47304065402E+01  0.18196687558E+02  0.26590865885E+02  0.00000000000E+00 0.  1.
</event>
<event>
 7    1  0.3795708E-015  0.9000770E+02  0.7816164E-02  0.1186339E+00
        -11   -1    0    0    0    0  0.00000000000E+00  0.00000000000E+00  0.45593999997E+02  0.45594000000E+02  0.51100000000E-03 0.  1.
         11   -1    0    0    0    0 -0.00000000000E+00 -0.00000000000E+00 -0.45593999997E+02  0.45594000000E+02  0.51100000000E-03 0. -1.
    9900012    2    1    2    0    0 -0.35584719178E+00  0.53210174979E+00  0.99163827104E+00  0.90007700904E+02  0.89999961756E+02 0.  0.
         12    1    1    2    0    0  0.35584719178E+00 -0.53210174979E+00 -0.99163827104E+00  0.11802990963E+01  0.00000000000E+00 0. -1.
         11    1    3    3    0    0 -0.82526798050E+01 -0.36690809440E+02 -0.15534911968E+02  0.40689749464E+02  0.51100000000E-03 0. -1.
        -11    1    3    3    0    0 -0.54237541570E+01 -0.77534875207E+00 -0.69781077170E+00  0.55231526302E+01  0.51100000000E-03 0.  1.
        -12    1    3    3    0    0  0.13320586770E+02  0.37998259942E+02  0.17224361011E+02  0.43794798809E+02  0.00000000000E+00 0.  1.
</event>
<event>
 7    1  0.3795708E-015  0.9000774E+02  0.7816164E-02  0.1186339E+00
        -11   -1    0    0    0    0  0.00000000000E+00  0.00000000000E+00  0.45593999997E+02  0.45594000000E+02  0.51100000000E-03 0. -1.
         11   -1    0    0    0    0 -0.00000000000E+00 -0.00000000000E+00 -0.45593999997E+02  0.45594000000E+02  0.51100000000E-03 0.  1.
    9900012    2    1    2    0    0  0.89735414615E+00 -0.50511515596E+00 -0.57673782617E+00  0.90007740577E+02  0.90000001953E+02 0.  0.
         12    1    1    2    0    0 -0.89735414615E+00  0.50511515596E+00  0.57673782617E+00  0.11802594226E+01  0.00000000000E+00 0. -1.
         11    1    3    3    0    0 -0.24125129448E+01 -0.83452321435E+01 -0.81247335158E+00  0.87248628325E+01  0.51100000000E-03 0. -1.
        -11    1    3    3    0    0 -0.21444805135E+02 -0.21805500282E+02 -0.21103339827E+02  0.37157912508E+02  0.51100000000E-03 0.  1.
         12    1    3    3    0    0  0.24754672226E+02  0.29645617270E+02  0.21339075352E+02  0.44124965237E+02  0.00000000000E+00 0. -1.
</event>
<event>
 7    1  0.3795708E-015  0.9000773E+02  0.7816164E-02  0.1186339E+00
        -11   -1    0    0    0    0  0.00000000000E+00  0.00000000000E+00  0.45593999997E+02  0.45594000000E+02  0.51100000000E-03 0.  1.
         11   -1    0    0    0    0 -0.00000000000E+00 -0.00000000000E+00 -0.45593999997E+02  0.45594000000E+02  0.51100000000E-03 0. -1.
    9900012    2    1    2    0    0 -0.89888640338E+00  0.33638425584E+00 -0.68693975939E+00  0.90007729960E+02  0.89999991196E+02 0.  0.
         12    1    1    2    0    0  0.89888640338E+00 -0.33638425584E+00  0.68693975939E+00  0.11802700398E+01  0.00000000000E+00 0. -1.
         11    1    3    3    0    0 -0.25835273927E+01  0.70929565421E+01  0.74098008796E+01  0.10577797296E+02  0.51100000000E-03 0. -1.
        -11    1    3    3    0    0  0.28814590855E+02  0.23055194717E+02 -0.12309802809E+02  0.38901849507E+02  0.51100000000E-03 0.  1.
         12    1    3    3    0    0 -0.27129949865E+02 -0.29811767004E+02  0.42130621700E+01  0.40528083158E+02  0.00000000000E+00 0. -1.
</event>
<event>
 7    1  0.3795708E-015  0.9000768E+02  0.7816164E-02  0.1186339E+00
        -11   -1    0    0    0    0  0.00000000000E+00  0.00000000000E+00  0.45593999997E+02  0.45594000000E+02  0.51100000000E-03 0. -1.
         11   -1    0    0    0    0 -0.00000000000E+00 -0.00000000000E+00 -0.45593999997E+02  0.45594000000E+02  0.51100000000E-03 0.  1.
    9900012    2    1    2    0    0 -0.91380496289E+00 -0.37213985635E+00 -0.64779270477E+00  0.90007676751E+02  0.89999937284E+02 0.  0.
         12    1    1    2    0    0  0.91380496289E+00  0.37213985635E+00  0.64779270477E+00  0.11803232486E+01  0.00000000000E+00 0. -1.
         11    1    3    3    0    0  0.76902820063E+01  0.51102887723E+01  0.89111586327E+00  0.92762910916E+01  0.51100000000E-03 0. -1.
        -11    1    3    3    0    0 -0.39136699590E+02 -0.18219834329E+02  0.12273562465E+02  0.44880774878E+02  0.51100000000E-03 0.  1.
         12    1    3    3    0    0  0.30532612621E+02  0.12737405700E+02 -0.13812471033E+02  0.35850610782E+02  0.00000000000E+00 0. -1.
</event>
<event>
 7    1  0.3795708E-015  0.9000780E+02  0.7816164E-02  0.1186339E+00
        -11   -1    0    0    0    0  0.00000000000E+00  0.00000000000E+00  0.45593999997E+02  0.45594000000E+02  0.51100000000E-03 0.  1.
         11   -1    0    0    0    0 -0.00000000000E+00 -0.00000000000E+00 -0.45593999997E+02  0.45594000000E+02  0.51100000000E-03 0. -1.
    9900012    2    1    2    0    0  0.10370371780E+01 -0.56159743698E+00 -0.45049259614E-01  0.90007802040E+02  0.90000064227E+02 0.  0.
         12    1    1    2    0    0 -0.10370371780E+01  0.56159743698E+00  0.45049259614E-01  0.11801979604E+01  0.00000000000E+00 0. -1.
         11    1    3    3    0    0 -0.64932279678E+01 -0.43694132313E+01 -0.46116890517E+01  0.90841321874E+01  0.51100000000E-03 0. -1.
        -11    1    3    3    0    0 -0.34906736280E+02  0.12645321482E+02  0.56989178844E+01  0.37561443774E+02  0.51100000000E-03 0.  1.
         12    1    3    3    0    0  0.42437001426E+02 -0.88375056878E+01 -0.11322780923E+01  0.43362226078E+02  0.00000000000E+00 0. -1.
</event>
<event>
 7    1  0.3795708E-015  0.9000777E+02  0.7816164E-02  0.1186339E+00
        -11   -1    0    0    0    0  0.00000000000E+00  0.00000000000E+00  0.45593999997E+02  0.45594000000E+02  0.51100000000E-03 0. -1.
         11   -1    0    0    0    0 -0.00000000000E+00 -0.00000000000E+00 -0.45593999997E+02  0.45594000000E+02  0.51100000000E-03 0.  1.
    9900012    2    1    2    0    0 -0.26558104969E+00  0.11021201336E+01  0.32824883880E+00  0.90007767234E+02  0.90000028961E+02 0.  0.
         12    1    1    2    0    0  0.26558104969E+00 -0.11021201336E+01 -0.32824883880E+00  0.11802327664E+01  0.00000000000E+00 0. -1.
         11    1    3    3    0    0 -0.12663969690E+02 -0.26903018711E+02  0.24635527416E+02  0.38614217012E+02  0.51100000000E-03 0. -1.
        -11    1    3    3    0    0 -0.16567142192E+01  0.61824266854E+01  0.78104088801E+01  0.10097999250E+02  0.51100000000E-03 0.  1.
        -12    1    3    3    0    0  0.14055102860E+02  0.21822712159E+02 -0.32117687458E+02  0.41295550971E+02  0.00000000000E+00 0.  1.
</event>
<event>
 7    1  0.3795708E-015  0.9000774E+02  0.7816164E-02  0.1186339E+00
        -11   -1    0    0    0    0  0.00000000000E+00  0.00000000000E+00  0.45593999997E+02  0.45594000000E+02  0.51100000000E-03 0. -1.
         11   -1    0    0    0    0 -0.00000000000E+00 -0.00000000000E+00 -0.45593999997E+02  0.45594000000E+02  0.51100000000E-03 0.  1.
    9900012    2    1    2    0    0 -0.79910775947E+00 -0.44855987724E+00 -0.74379980684E+00  0.90007738450E+02  0.89999999797E+02 0.  0.
         12    1    1    2    0    0  0.79910775947E+00  0.44855987724E+00  0.74379980684E+00  0.11802615504E+01  0.00000000000E+00 0. -1.
         11    1    3    3    0    0  0.19066710277E+02  0.24312259832E+02  0.31339342139E+02  0.44008860300E+02  0.51100000000E-03 0. -1.
        -11    1    3    3    0    0 -0.64715950327E+01 -0.24217292630E+01 -0.70989703263E+01  0.99066490220E+01  0.51100000000E-03 0.  1.
        -12    1    3    3    0    0 -0.13394223004E+02 -0.22339090446E+02 -0.24984171620E+02  0.36092229127E+02  0.00000000000E+00 0.  1.
</event>
<event>
 7    1  0.6972411E-015  0.9000763E+02  0.7816164E-02  0.1186339E+00
        -11   -1    0    0    0    0  0.00000000000E+00  0.00000000000E+00  0.45593999997E+02  0.45594000000E+02  0.51100000000E-03 0.  1.
         11   -1    0    0    0    0 -0.00000000000E+00 -0.00000000000E+00 -0.45593999997E+02  0.45594000000E+02  0.51100000000E-03 0. -1.
    9900012    2    1    2    0    0  0.38801868884E+00 -0.47133079107E+00 -0.10102305994E+01  0.90007628414E+02  0.89999888309E+02 0.  0.
         12    1    1    2    0    0 -0.38801868884E+00  0.47133079107E+00  0.10102305994E+01  0.11803715862E+01  0.00000000000E+00 0. -1.
         11    1    3    3    0    0  0.35818498316E+02  0.61746185351E+01  0.13680030544E+02  0.38835988099E+02  0.51100000000E-03 0. -1.
        -11    1    3    3    0    0 -0.13457951700E+01  0.44266532053E+01  0.76502632432E+01  0.89405229820E+01  0.51100000000E-03 0.  1.
        -12    1    3    3    0    0 -0.34084684457E+02 -0.11072602531E+02 -0.22340524387E+02  0.42231117333E+02  0.00000000000E+00 0.  1.
</event>
<event>
 7    1  0.3795708E-015  0.9000771E+02  0.7816164E-02  0.1186339E+00
        -11   -1    0    0    0    0  0.00000000000E+00  0.00000000000E+00  0.45593999997E+02  0.45594000000E+02  0.51100000000E-03 0.  1.
         11   -1    0    0    0    0 -0.00000000000E+00 -0.00000000000E+00 -0.45593999997E+02  0.45594000000E+02  0.51100000000E-03 0. -1.
    9900012    2    1    2    0    0  0.40442843246E+00 -0.83779353834E+00  0.72638185311E+00  0.90007707254E+02  0.89999968190E+02 0.  0.
         12    1    1    2    0    0 -0.40442843246E+00  0.83779353834E+00 -0.72638185311E+00  0.11802927461E+01  0.00000000000E+00 0. -1.
         11    1    3    3    0    0  0.11352473988E+02 -0.16457899189E+02  0.98581351579E+01  0.22291790875E+02  0.51100000000E-03 0. -1.
        -11    1    3    3    0    0  0.14790596608E+02 -0.17454015558E+02  0.51308481907E+01  0.23446321898E+02  0.51100000000E-03 0.  1.
         12    1    3    3    0    0 -0.25738642163E+02  0.33074121208E+02 -0.14262601495E+02  0.44269594481E+02  0.00000000000E+00 0. -1.
</event>
<event>
 7    1  0.3795708E-015  0.9000771E+02  0.7816164E-02  0.1186339E+00
        -11   -1    0    0    0    0  0.00000000000E+00  0.00000000000E+00  0.45593999997E+02  0.45594000000E+02  0.51100000000E-03 0.  1.
         11   -1    0    0    0    0 -0.00000000000E+00 -0.00000000000E+00 -0.45593999997E+02  0.45594000000E+02  0.51100000000E-03 0. -1.
    9900012    2    1    2    0    0  0.72423824918E+00 -0.92551831206E+00 -0.10947080475E+00  0.90007708068E+02  0.89999969015E+02 0.  0.
         12    1    1    2    0    0 -0.72423824918E+00  0.92551831206E+00  0.10947080475E+00  0.11802919320E+01  0.00000000000E+00 0. -1.
         11    1    3    3    0    0 -0.11972887075E+02  0.13433167883E+01 -0.32831133119E+01  0.12487327904E+02  0.51100000000E-03 0. -1.
        -11    1    3    3    0    0 -0.40728262259E+01  0.10476229868E+02  0.36446749575E+02  0.38140593343E+02  0.51100000000E-03 0.  1.
         12    1    3    3    0    0  0.16769951550E+02 -0.12745064968E+02 -0.33273107068E+02  0.39379786820E+02  0.00000000000E+00 0. -1.
</event>
<event>
 7    1  0.3795708E-015  0.9000781E+02  0.7816164E-02  0.1186339E+00
        -11   -1    0    0    0    0  0.00000000000E+00  0.00000000000E+00  0.45593999997E+02  0.45594000000E+02  0.51100000000E-03 0.  1.
         11   -1    0    0    0    0 -0.00000000000E+00 -0.00000000000E+00 -0.45593999997E+02  0.45594000000E+02  0.51100000000E-03 0. -1.
    9900012    2    1    2    0    0  0.48541455219E+00  0.27690280006E+00  0.10394915439E+01  0.90007811406E+02  0.90000073716E+02 0.  0.
         12    1    1    2    0    0 -0.48541455219E+00 -0.27690280006E+00 -0.10394915439E+01  0.11801885942E+01  0.00000000000E+00 0. -1.
         11    1    3    3    0    0 -0.27048125885E+02 -0.19838563990E+02  0.12355661422E+02  0.35746777540E+02  0.51100000000E-03 0. -1.
        -11    1    3    3    0    0  0.10713160685E+02 -0.12444055237E+02 -0.34930567859E+01  0.16787726724E+02  0.51100000000E-03 0.  1.
        -12    1    3    3    0    0  0.16820379753E+02  0.32559522027E+02 -0.78231130924E+01  0.37473307141E+02  0.00000000000E+00 0.  1.
</event>
<event>
 7    1  0.3795708E-015  0.9000775E+02  0.7816164E-02  0.1186339E+00
        -11   -1    0    0    0    0  0.00000000000E+00  0.00000000000E+00  0.45593999997E+02  0.45594000000E+02  0.51100000000E-03 0.  1.
         11   -1    0    0    0    0 -0.00000000000E+00 -0.00000000000E+00 -0.45593999997E+02  0.45594000000E+02  0.51100000000E-03 0. -1.
    9900012    2    1    2    0    0 -0.36184529674E+00  0.17075084643E+00  0.11103647535E+01  0.90007746741E+02  0.90000008198E+02 0.  0.
         12    1    1    2    0    0  0.36184529674E+00 -0.17075084643E+00 -0.11103647535E+01  0.11802532593E+01  0.00000000000E+00 0. -1.
         11    1    3    3    0    0 -0.40851644841E+02 -0.11440379181E+02 -0.70107173074E+01  0.42998712997E+02  0.51100000000E-03 0. -1.
        -11    1    3    3    0    0  0.53505691209E+01  0.44347198591E+01  0.87061876148E+01  0.11139705256E+02  0.51100000000E-03 0.  1.
        -12    1    3    3    0    0  0.35139230423E+02  0.71764101687E+01 -0.58510555388E+00  0.35869328487E+02  0.00000000000E+00 0.  1.
</event>
<event>
 7    1  0.3795708E-015  0.9000769E+02  0.7816164E-02  0.1186339E+00
        -11   -1    0    0    0    0  0.00000000000E+00  0.00000000000E+00  0.45593999997E+02  0.45594000000E+02  0.51100000000E-03 0. -1.
         11   -1    0    0    0    0 -0.00000000000E+00 -0.00000000000E+00 -0.45593999997E+02  0.45594000000E+02  0.51100000000E-03 0.  1.
    9900012    2    1    2    0    0 -0.10159845839E+01  0.23585183352E+00 -0.55251207509E+00  0.90007694804E+02  0.89999955576E+02 0.  0.
         12    1    1    2    0    0  0.10159845839E+01 -0.23585183352E+00  0.55251207509E+00  0.11803051958E+01  0.00000000000E+00 0. -1.
         11    1    3    3    0    0  0.98773303356E+01 -0.14882998591E+01  0.40525919878E+01  0.10779619340E+02  0.51100000000E-03 0. -1.
        -11    1    3    3    0    0 -0.12384681773E+01  0.30737781810E+02 -0.27314971860E+02  0.41139430259E+02  0.51100000000E-03 0.  1.
         12    1    3    3    0    0 -0.96548467422E+01 -0.29013630118E+02  0.22709867797E+02  0.38088645205E+02  0.00000000000E+00 0. -1.
</event>
<event>
 7    1  0.3795708E-015  0.9000770E+02  0.7816164E-02  0.1186339E+00
        -11   -1    0    0    0    0  0.00000000000E+00  0.00000000000E+00  0.45593999997E+02  0.45594000000E+02  0.51100000000E-03 0. -1.
         11   -1    0    0    0    0 -0.00000000000E+00 -0.00000000000E+00 -0.45593999997E+02  0.45594000000E+02  0.51100000000E-03 0.  1.
    9900012    2    1    2    0    0 -0.22040144363E-01 -0.57010984399E+00 -0.10332413706E+01  0.90007703964E+02  0.89999964857E+02 0.  0.
         12    1    1    2    0    0  0.22040144363E-01  0.57010984399E+00  0.10332413706E+01  0.11802960358E+01  0.00000000000E+00 0. -1.
         11    1    3    3    0    0 -0.79813537768E+01 -0.36768621586E+02 -0.63631876670E+01  0.38159188920E+02  0.51100000000E-03 0. -1.
        -11    1    3    3    0    0 -0.56515250053E+01 -0.15626685574E+01 -0.76718206319E+01  0.96560084908E+01  0.51100000000E-03 0.  1.
        -12    1    3    3    0    0  0.13610838638E+02  0.37761180300E+02  0.13001766928E+02  0.42192506554E+02  0.00000000000E+00 0.  1.
</event>
<event>
 7    1  0.3795708E-015  0.9000777E+02  0.7816164E-02  0.1186339E+00
        -11   -1    0    0    0    0  0.00000000000E+00  0.00000000000E+00  0.45593999997E+02  0.45594000000E+02  0.51100000000E-03 0.  1.
         11   -1    0    0    0    0 -0.00000000000E+00 -0.00000000000E+00 -0.45593999997E+02  0.45594000000E+02  0.51100000000E-03 0. -1.
    9900012    2    1    2    0    0 -0.26533782607E-01 -0.84820384416E+00 -0.82024389173E+00  0.90007765343E+02  0.90000027046E+02 0.  0.
         12    1    1    2    0    0  0.26533782607E-01  0.84820384416E+00  0.82024389173E+00  0.11802346567E+01  0.00000000000E+00 0. -1.
         11    1    3    3    0    0  0.27385959135E+01 -0.79698914362E+01  0.22299977726E+01  0.87173371742E+01  0.51100000000E-03 0. -1.
        -11    1    3    3    0    0  0.35207167079E+02  0.11261785880E+02  0.13912626841E+02  0.39495994997E+02  0.51100000000E-03 0.  1.
         12    1    3    3    0    0 -0.37972296775E+02 -0.41400982883E+01 -0.16962868506E+02  0.41794433172E+02  0.00000000000E+00 0. -1.
</event>
<event>
 7    1  0.3795708E-015  0.9000768E+02  0.7816164E-02  0.1186339E+00
        -11   -1    0    0    0    0  0.00000000000E+00  0.00000000000E+00  0.45593999997E+02  0.45594000000E+02  0.51100000000E-03 0. -1.
         11   -1    0    0    0    0 -0.00000000000E+00 -0.00000000000E+00 -0.45593999997E+02  0.45594000000E+02  0.51100000000E-03 0.  1.
    9900012    2    1    2    0    0 -0.10178216822E+01 -0.42852664546E+00 -0.41659332480E+00  0.90007683915E+02  0.89999944543E+02 0.  0.
         12    1    1    2    0    0  0.10178216822E+01  0.42852664546E+00  0.41659332480E+00  0.11803160852E+01  0.00000000000E+00 0. -1.
         11    1    3    3    0    0 -0.12140929680E+02 -0.12554703144E+02  0.33930113433E+02  0.38161175851E+02  0.51100000000E-03 0. -1.
        -11    1    3    3    0    0 -0.63556271038E+01  0.74742787591E+01  0.30759860142E+01  0.10282048875E+02  0.51100000000E-03 0.  1.
        -12    1    3    3    0    0  0.17478735102E+02  0.46518977391E+01 -0.37422692772E+02  0.41564459188E+02  0.00000000000E+00 0.  1.
</event>
<event>
 7    1  0.3795708E-015  0.9000811E+02  0.7816164E-02  0.1186338E+00
        -11   -1    0    0    0    0  0.00000000000E+00  0.00000000000E+00  0.45593999997E+02  0.45594000000E+02  0.51100000000E-03 0.  1.
         11   -1    0    0    0    0 -0.00000000000E+00 -0.00000000000E+00 -0.45593999997E+02  0.45594000000E+02  0.51100000000E-03 0. -1.
    9900012    2    1    2    0    0 -0.53691434085E+00 -0.10316143915E+01  0.19907923092E+00  0.90008111106E+02  0.90000377372E+02 0.  0.
         12    1    1    2    0    0  0.53691434085E+00  0.10316143915E+01 -0.19907923092E+00  0.11798888940E+01  0.00000000000E+00 0. -1.
         11    1    3    3    0    0 -0.36665542364E+00  0.94363408057E+01 -0.21842122848E+01  0.96927677971E+01  0.51100000000E-03 0. -1.
        -11    1    3    3    0    0 -0.17051098877E+02  0.30421528907E+02 -0.57261725256E+01  0.35341172109E+02  0.51100000000E-03 0.  1.
         12    1    3    3    0    0  0.16880839960E+02 -0.40889484105E+02  0.81094640414E+01  0.44974171200E+02  0.00000000000E+00 0. -1.
</event>
<event>
 7    1  0.3795708E-015  0.9000770E+02  0.7816164E-02  0.1186339E+00
        -11   -1    0    0    0    0  0.00000000000E+00  0.00000000000E+00  0.45593999997E+02  0.45594000000E+02  0.51100000000E-03 0.  1.
         11   -1    0    0    0    0 -0.00000000000E+00 -0.00000000000E+00 -0.45593999997E+02  0.45594000000E+02  0.51100000000E-03 0. -1.
    9900012    2    1    2    0    0 -0.62382907132E+00 -0.17636868771E-01  0.10018191037E+01  0.90007696952E+02  0.89999957751E+02 0.  0.
         12    1    1    2    0    0  0.62382907132E+00  0.17636868771E-01 -0.10018191037E+01  0.11803030484E+01  0.00000000000E+00 0. -1.
         11    1    3    3    0    0  0.25223953997E+02  0.28247032900E+02 -0.45023802496E+01  0.38136782127E+02  0.51100000000E-03 0. -1.
        -11    1    3    3    0    0  0.44000701595E+01 -0.51052763179E+00 -0.75845570503E+01  0.87833229350E+01  0.51100000000E-03 0.  1.
        -12    1    3    3    0    0 -0.30247853227E+02 -0.27754142137E+02  0.13088756404E+02  0.43087591889E+02  0.00000000000E+00 0.  1.
</event>
<event>
 7    1  0.3795708E-015  0.9000774E+02  0.7816164E-02  0.1186339E+00
        -11   -1    0    0    0    0  0.00000000000E+00  0.00000000000E+00  0.45593999997E+02  0.45594000000E+02  0.51100000000E-03 0. -1.
         11   -1    0    0    0    0 -0.00000000000E+00 -0.00000000000E+00 -0.45593999997E+02  0.45594000000E+02  0.51100000000E-03 0.  1.
    9900012    2    1    2    0    0 -0.45673331271E+00 -0.66018538404E+00 -0.86519805894E+00  0.90007738274E+02  0.89999999619E+02 0.  0.
         12    1    1    2    0    0  0.45673331271E+00  0.66018538404E+00  0.86519805894E+00  0.11802617258E+01  0.00000000000E+00 0. -1.
         11    1    3    3    0    0 -0.46473120165E+01  0.31434553479E+01 -0.70101095193E+01  0.89788894768E+01  0.51100000000E-03 0. -1.
        -11    1    3    3    0    0  0.76245546113E+01 -0.95686522113E+01 -0.36170993016E+02  0.38184207131E+02  0.51100000000E-03 0.  1.
         12    1    3    3    0    0 -0.34339759075E+01  0.57650114794E+01  0.42315904476E+02  0.42844641667E+02  0.00000000000E+00 0. -1.
</event>
<event>
 7    1  0.3795708E-015  0.9000768E+02  0.7816164E-02  0.1186339E+00
        -11   -1    0    0    0    0  0.00000000000E+00  0.00000000000E+00  0.45593999997E+02  0.45594000000E+02  0.51100000000E-03 0.  1.
         11   -1    0    0    0    0 -0.00000000000E+00 -0.00000000000E+00 -0.45593999997E+02  0.45594000000E+02  0.51100000000E-03 0. -1.
    9900012    2    1    2    0    0 -0.75066359333E+00 -0.59498342203E+00  0.68968457125E+00  0.90007675506E+02  0.89999936023E+02 0.  0.
         12    1    1    2    0    0  0.75066359333E+00  0.59498342203E+00 -0.68968457125E+00  0.11803244938E+01  0.00000000000E+00 0. -1.
         11    1    3    3    0    0 -0.14024978707E+02  0.30195195807E+01 -0.64155755488E+01  0.15715506232E+02  0.51100000000E-03 0. -1.
        -11    1    3    3    0    0 -0.23827767789E+02  0.19011006837E+02  0.22564635128E+01  0.30565871926E+02  0.51100000000E-03 0.  1.
         12    1    3    3    0    0  0.37102082903E+02 -0.22625509840E+02  0.48487966072E+01  0.43726297348E+02  0.00000000000E+00 0. -1.
</event>
<event>
 7    1  0.3795708E-015  0.9000791E+02  0.7816164E-02  0.1186339E+00
        -11   -1    0    0    0    0  0.00000000000E+00  0.00000000000E+00  0.45593999997E+02  0.45594000000E+02  0.51100000000E-03 0. -1.
         11   -1    0    0    0    0 -0.00000000000E+00 -0.00000000000E+00 -0.45593999997E+02  0.45594000000E+02  0.51100000000E-03 0.  1.
    9900012    2    1    2    0    0  0.92090237766E+00 -0.16692021130E+00  0.71881661889E+00  0.90007906411E+02  0.90000169976E+02 0.  0.
         12    1    1    2    0    0 -0.92090237766E+00  0.16692021130E+00 -0.71881661889E+00  0.11800935885E+01  0.00000000000E+00 0. -1.
         11    1    3    3    0    0  0.37352400694E+02 -0.25339263284E+01  0.86235376295E+01  0.38418589533E+02  0.51100000000E-03 0. -1.
        -11    1    3    3    0    0  0.25334097351E+01 -0.61787182029E+01  0.63625090211E+01  0.92236784865E+01  0.51100000000E-03 0.  1.
        -12    1    3    3    0    0 -0.38964908051E+02  0.85457243200E+01 -0.14267230032E+02  0.42365638392E+02  0.00000000000E+00 0.  1.
</event>
<event>
 7    1  0.3795708E-015  0.9000774E+02  0.7816164E-02  0.1186339E+00
        -11   -1    0    0    0    0  0.00000000000E+00  0.00000000000E+00  0.45593999997E+02  0.45594000000E+02  0.51100000000E-03 0. -1.
         11   -1    0    0    0    0 -0.00000000000E+00 -0.00000000000E+00 -0.45593999997E+02  0.45594000000E+02  0.51100000000E-03 0.  1.
    9900012    2    1    2    0    0 -0.61848653369E+00  0.55128438329E+00 -0.84058010127E+00  0.90007739448E+02  0.90000000809E+02 0.  0.
         12    1    1    2    0    0  0.61848653369E+00 -0.55128438329E+00  0.84058010127E+00  0.11802605519E+01  0.00000000000E+00 0. -1.
         11    1    3    3    0    0 -0.30776670244E+02 -0.31800103969E+02  0.55211041368E+01  0.44597450991E+02  0.51100000000E-03 0. -1.
        -11    1    3    3    0    0  0.46433068716E+01  0.14440564022E+01 -0.11268884706E+01  0.49915403917E+01  0.51100000000E-03 0.  1.
        -12    1    3    3    0    0  0.25514876839E+02  0.30907331950E+02 -0.52347957675E+01  0.40418748065E+02  0.00000000000E+00 0.  1.
</event>
<event>
 7    1  0.3795708E-015  0.9000771E+02  0.7816164E-02  0.1186339E+00
        -11   -1    0    0    0    0  0.00000000000E+00  0.00000000000E+00  0.45593999997E+02  0.45594000000E+02  0.51100000000E-03 0.  1.
         11   -1    0    0    0    0 -0.00000000000E+00 -0.00000000000E+00 -0.45593999997E+02  0.45594000000E+02  0.51100000000E-03 0. -1.
    9900012    2    1    2    0    0  0.62199469096E+00 -0.83532842618E+00  0.55537496439E+00  0.90007706678E+02  0.89999967606E+02 0.  0.
         12    1    1    2    0    0 -0.62199469096E+00  0.83532842618E+00 -0.55537496439E+00  0.11802933221E+01  0.00000000000E+00 0. -1.
         11    1    3    3    0    0 -0.27611771961E+01  0.10824163986E+02 -0.24224617715E+02  0.26676182808E+02  0.51100000000E-03 0. -1.
        -11    1    3    3    0    0 -0.76367688675E+01  0.16981244529E+02 -0.62980273290E+01  0.19655738424E+02  0.51100000000E-03 0.  1.
        -12    1    3    3    0    0  0.11019940755E+02 -0.28640736941E+02  0.31078020008E+02  0.43675785446E+02  0.00000000000E+00 0.  1.
</event>
<event>
 7    1  0.3795708E-015  0.9000773E+02  0.7816164E-02  0.1186339E+00
        -11   -1    0    0    0    0  0.00000000000E+00  0.00000000000E+00  0.45593999997E+02  0.45594000000E+02  0.51100000000E-03 0.  1.
         11   -1    0    0    0    0 -0.00000000000E+00 -0.00000000000E+00 -0.45593999997E+02  0.45594000000E+02  0.51100000000E-03 0. -1.
    9900012    2    1    2    0    0  0.95418815878E+00 -0.49838731573E+00  0.48390685952E+00  0.90007732739E+02  0.89999994011E+02 0.  0.
         12    1    1    2    0    0 -0.95418815878E+00  0.49838731573E+00 -0.48390685952E+00  0.11802672611E+01  0.00000000000E+00 0. -1.
         11    1    3    3    0    0 -0.24118510935E+02  0.91226328702E+01 -0.34855392044E+02  0.43356929723E+02  0.51100000000E-03 0. -1.
        -11    1    3    3    0    0  0.32967060654E+01 -0.74963402744E+01  0.65237275505E+01  0.10470072101E+02  0.51100000000E-03 0.  1.
        -12    1    3    3    0    0  0.21775993028E+02 -0.21246799116E+01  0.28815571353E+02  0.36180730915E+02  0.00000000000E+00 0.  1.
</event>
<event>
 7    1  0.3795708E-015  0.9000780E+02  0.7816164E-02  0.1186339E+00
        -11   -1    0    0    0    0  0.00000000000E+00  0.00000000000E+00  0.45593999997E+02  0.45594000000E+02  0.51100000000E-03 0.  1.
         11   -1    0    0    0    0 -0.00000000000E+00 -0.00000000000E+00 -0.45593999997E+02  0.45594000000E+02  0.51100000000E-03 0. -1.
    9900012    2    1    2    0    0  0.28796559332E+00  0.11362577813E+01 -0.13735831005E+00  0.90007799494E+02  0.90000061648E+02 0.  0.
         12    1    1    2    0    0 -0.28796559332E+00 -0.11362577813E+01  0.13735831005E+00  0.11802005058E+01  0.00000000000E+00 0. -1.
         11    1    3    3    0    0  0.80195627455E+01 -0.54460421418E+01 -0.78381260030E+00  0.97255911950E+01  0.51100000000E-03 0. -1.
        -11    1    3    3    0    0  0.16735170943E+02  0.27613407988E+01  0.34438019813E+02  0.38388385722E+02  0.51100000000E-03 0.  1.
         12    1    3    3    0    0 -0.24466768095E+02  0.38209591242E+01 -0.33791565522E+02  0.41893822577E+02  0.00000000000E+00 0. -1.
</event>
<event>
 7    1  0.3795708E-015  0.9000767E+02  0.7816164E-02  0.1186339E+00
        -11   -1    0    0    0    0  0.00000000000E+00  0.00000000000E+00  0.45593999997E+02  0.45594000000E+02  0.51100000000E-03 0.  1.
         11   -1    0    0    0    0 -0.00000000000E+00 -0.00000000000E+00 -0.45593999997E+02  0.45594000000E+02  0.51100000000E-03 0. -1.
    9900012    2    1    2    0    0  0.10059170360E+01  0.17323687054E+00 -0.59270662961E+00  0.90007669010E+02  0.89999929441E+02 0.  0.
         12    1    1    2    0    0 -0.10059170360E+01 -0.17323687054E+00  0.59270662961E+00  0.11803309898E+01  0.00000000000E+00 0. -1.
         11    1    3    3    0    0  0.74307775756E+01  0.16272719272E+02 -0.39950730378E+02  0.43773036288E+02  0.51100000000E-03 0. -1.
        -11    1    3    3    0    0 -0.53855944687E+01 -0.95987901213E+01  0.66256805103E+01  0.12846830039E+02  0.51100000000E-03 0.  1.
        -12    1    3    3    0    0 -0.10392660708E+01 -0.65006922805E+01  0.32732343238E+02  0.33387802682E+02  0.00000000000E+00 0.  1.
</event>
<event>
 7    1  0.3795708E-015  0.9000793E+02  0.7816164E-02  0.1186339E+00
        -11   -1    0    0    0    0  0.00000000000E+00  0.00000000000E+00  0.45593999997E+02  0.45594000000E+02  0.51100000000E-03 0.  1.
         11   -1    0    0    0    0 -0.00000000000E+00 -0.00000000000E+00 -0.45593999997E+02  0.45594000000E+02  0.51100000000E-03 0. -1.
    9900012    2    1    2    0    0  0.60824944510E+00  0.13164458521E-01  0.10111505526E+01  0.90007929608E+02  0.90000193478E+02 0.  0.
         12    1    1    2    0    0 -0.60824944510E+00 -0.13164458521E-01 -0.10111505526E+01  0.11800703922E+01  0.00000000000E+00 0. -1.
         11    1    3    3    0    0  0.23356185971E+01 -0.23525021096E+01 -0.90802296780E+01  0.96664342791E+01  0.51100000000E-03 0. -1.
        -11    1    3    3    0    0 -0.15574196106E+02 -0.18585826047E+02  0.36549842388E+02  0.43862050716E+02  0.51100000000E-03 0.  1.
         12    1    3    3    0    0  0.13846826954E+02  0.20951492615E+02 -0.26458462158E+02  0.36479444612E+02  0.00000000000E+00 0. -1.
</event>
<event>
 7    1  0.3795708E-015  0.9000767E+02  0.7816164E-02  0.1186339E+00
        -11   -1    0    0    0    0  0.00000000000E+00  0.00000000000E+00  0.45593999997E+02  0.45594000000E+02  0.51100000000E-03 0. -1.
         11   -1    0    0    0    0 -0.00000000000E+00 -0.00000000000E+00 -0.45593999997E+02  0.45594000000E+02  0.51100000000E-03 0.  1.
    9900012    2    1    2    0    0 -0.10296936328E+01  0.28416376082E+00  0.50215020071E+00  0.90007672569E+02  0.89999933047E+02 0.  0.
         12    1    1    2    0    0  0.10296936328E+01 -0.28416376082E+00 -0.50215020071E+00  0.11803274310E+01  0.00000000000E+00 0. -1.
         11    1    3    3    0    0 -0.27226128831E+00 -0.84806304978E+01 -0.34182145294E+01  0.91476450893E+01  0.51100000000E-03 0. -1.
        -11    1    3    3    0    0 -0.36421309575E+02 -0.13228071856E+02 -0.28029351774E+00  0.38750125689E+02  0.51100000000E-03 0.  1.
         12    1    3    3    0    0  0.35663877231E+02  0.21992866115E+02  0.42006582479E+01  0.42109901790E+02  0.00000000000E+00 0. -1.
</event>
<event>
 7    1  0.3795708E-015  0.9000780E+02  0.7816164E-02  0.1186339E+00
        -11   -1    0    0    0    0  0.00000000000E+00  0.00000000000E+00  0.45593999997E+02  0.45594000000E+02  0.51100000000E-03 0. -1.
         11   -1    0    0    0    0 -0.00000000000E+00 -0.00000000000E+00 -0.45593999997E+02  0.45594000000E+02  0.51100000000E-03 0.  1.
    9900012    2    1    2    0    0 -0.49523006411E-01  0.76553562633E-02 -0.11791394271E+01  0.90007796237E+02  0.90000058348E+02 0.  0.
         12    1    1    2    0    0  0.49523006411E-01 -0.76553562633E-02  0.11791394271E+01  0.11802037626E+01  0.00000000000E+00 0. -1.
         11    1    3    3    0    0 -0.36619609432E+02 -0.80076469905E+01  0.84165584364E+01  0.38418181392E+02  0.51100000000E-03 0. -1.
        -11    1    3    3    0    0 -0.95915201827E-01 -0.92572643781E+01 -0.57007545994E+01  0.10872200640E+02  0.51100000000E-03 0.  1.
        -12    1    3    3    0    0  0.36666001627E+02  0.17272566725E+02 -0.38949432642E+01  0.40717414206E+02  0.00000000000E+00 0.  1.
</event>
<event>
 7    1  0.3795708E-015  0.9000774E+02  0.7816164E-02  0.1186339E+00
        -11   -1    0    0    0    0  0.00000000000E+00  0.00000000000E+00  0.45593999997E+02  0.45594000000E+02  0.51100000000E-03 0.  1.
         11   -1    0    0    0    0 -0.00000000000E+00 -0.00000000000E+00 -0.45593999997E+02  0.45594000000E+02  0.51100000000E-03 0. -1.
    9900012    2    1    2    0    0 -0.50945471246E+00  0.65994505547E+00  0.83542240691E+00  0.90007744867E+02  0.90000006300E+02 0.  0.
         12    1    1    2    0    0  0.50945471246E+00 -0.65994505547E+00 -0.83542240691E+00  0.11802551327E+01  0.00000000000E+00 0. -1.
         11    1    3    3    0    0 -0.36158744592E+01 -0.30104567280E+01  0.68829775539E+01  0.83374323436E+01  0.51100000000E-03 0. -1.
        -11    1    3    3    0    0  0.32202534860E+01  0.18727640840E+00  0.37673118900E+02  0.37810963924E+02  0.51100000000E-03 0.  1.
         12    1    3    3    0    0 -0.11383373918E+00  0.34831253751E+01 -0.43720674047E+02  0.43859348600E+02  0.00000000000E+00 0. -1.
</event>
<event>
 7    1  0.3795708E-015  0.9000768E+02  0.7816164E-02  0.1186339E+00
        -11   -1    0    0    0    0  0.00000000000E+00  0.00000000000E+00  0.45593999997E+02  0.45594000000E+02  0.51100000000E-03 0. -1.
         11   -1    0    0    0    0 -0.00000000000E+00 -0.00000000000E+00 -0.45593999997E+02  0.45594000000E+02  0.51100000000E-03 0.  1.
    9900012    2    1    2    0    0  0.44765493498E+00  0.10370936795E+01 -0.34232891761E+00  0.90007683378E+02  0.89999943998E+02 0.  0.
         12    1    1    2    0    0 -0.44765493498E+00 -0.10370936795E+01  0.34232891761E+00  0.11803166222E+01  0.00000000000E+00 0. -1.
         11    1    3    3    0    0 -0.18613910624E+00 -0.93445699724E+01 -0.27523383718E+01  0.97432542053E+01  0.51100000000E-03 0. -1.
        -11    1    3    3    0    0 -0.27553089530E+02 -0.23182692115E+02  0.50205404780E+01  0.36356784557E+02  0.51100000000E-03 0.  1.
         12    1    3    3    0    0  0.28186883571E+02  0.33564355767E+02 -0.26105310238E+01  0.43907644616E+02  0.00000000000E+00 0. -1.
</event>
<event>
 7    1  0.3795708E-015  0.9000773E+02  0.7816164E-02  0.1186339E+00
        -11   -1    0    0    0    0  0.00000000000E+00  0.00000000000E+00  0.45593999997E+02  0.45594000000E+02  0.51100000000E-03 0. -1.
         11   -1    0    0    0    0 -0.00000000000E+00 -0.00000000000E+00 -0.45593999997E+02  0.45594000000E+02  0.51100000000E-03 0.  1.
    9900012    2    1    2    0    0 -0.11468015843E+01  0.18510961015E+00  0.20882418545E+00  0.90007734360E+02  0.89999995653E+02 0.  0.
         12    1    1    2    0    0  0.11468015843E+01 -0.18510961015E+00 -0.20882418545E+00  0.11802656405E+01  0.00000000000E+00 0. -1.
         11    1    3    3    0    0  0.16836520159E+02  0.24967152152E+02 -0.31908986044E+01  0.30282155336E+02  0.51100000000E-03 0. -1.
        -11    1    3    3    0    0  0.16277327001E+02 -0.42276524779E+01  0.94906728479E+01  0.19310548701E+02  0.51100000000E-03 0.  1.
        -12    1    3    3    0    0 -0.34260648745E+02 -0.20554390064E+02 -0.60909500581E+01  0.40415030322E+02  0.00000000000E+00 0.  1.
</event>
<event>
 7    1  0.3795708E-015  0.9000775E+02  0.7816164E-02  0.1186339E+00
        -11   -1    0    0    0    0  0.00000000000E+00  0.00000000000E+00  0.45593999997E+02  0.45594000000E+02  0.51100000000E-03 0. -1.
         11   -1    0    0    0    0 -0.00000000000E+00 -0.00000000000E+00 -0.45593999997E+02  0.45594000000E+02  0.51100000000E-03 0.  1.
    9900012    2    1    2    0    0  0.19340015960E+00 -0.40396970598E+00 -0.10919684142E+01  0.90007749958E+02  0.90000011457E+02 0.  0.
         12    1    1    2    0    0 -0.19340015960E+00  0.40396970598E+00  0.10919684142E+01  0.11802500425E+01  0.00000000000E+00 0. -1.
         11    1    3    3    0    0  0.20226022695E+01 -0.42246005299E+01  0.70848421946E+01  0.84931242050E+01  0.51100000000E-03 0. -1.
        -11    1    3    3    0    0  0.25530392722E+02 -0.28824093490E+02 -0.34382689214E+01  0.38658129953E+02  0.51100000000E-03 0.  1.
         12    1    3    3    0    0 -0.27359594832E+02  0.32644724313E+02 -0.47385416874E+01  0.42856495799E+02  0.00000000000E+00 0. -1.
</event>
<event>
 7    1  0.3795708E-015  0.9000777E+02  0.7816164E-02  0.1186339E+00
        -11   -1    0    0    0    0  0.00000000000E+00  0.00000000000E+00  0.45593999997E+02  0.45594000000E+02  0.51100000000E-03 0. -1.
         11   -1    0    0    0    0 -0.00000000000E+00 -0.00000000000E+00 -0.45593999997E+02  0.45594000000E+02  0.51100000000E-03 0.  1.
    9900012    2    1    2    0    0  0.73378092891E+00 -0.78405092560E+00 -0.48967105678E+00  0.90007767799E+02  0.90000029533E+02 0.  0.
         12    1    1    2    0    0 -0.73378092891E+00  0.78405092560E+00  0.48967105678E+00  0.11802322015E+01  0.00000000000E+00 0. -1.
         11    1    3    3    0    0 -0.38243835539E+02 -0.54132577866E+01 -0.15370730681E+02  0.41571067806E+02  0.51100000000E-03 0. -1.
        -11    1    3    3    0    0  0.94087842003E+01 -0.82269240762E+01 -0.91646804904E+00  0.12531855961E+02  0.51100000000E-03 0.  1.
        -12    1    3    3    0    0  0.29568832268E+02  0.12856130937E+02  0.15797527673E+02  0.35904844032E+02  0.00000000000E+00 0.  1.
</event>
<event>
 7    1  0.3795708E-015  0.9000784E+02  0.7816164E-02  0.1186339E+00
        -11   -1    0    0    0    0  0.00000000000E+00  0.00000000000E+00  0.45593999997E+02  0.45594000000E+02  0.51100000000E-03 0. -1.
         11   -1    0    0    0    0 -0.00000000000E+00 -0.00000000000E+00 -0.45593999997E+02  0.45594000000E+02  0.51100000000E-03 0.  1.
    9900012    2    1    2    0    0 -0.10469732401E+01  0.28764627126E-01 -0.54386480451E+00  0.90007843530E+02  0.90000106264E+02 0.  0.
         12    1    1    2    0    0  0.10469732401E+01 -0.28764627126E-01  0.54386480451E+00  0.11801564705E+01  0.00000000000E+00 0. -1.
         11    1    3    3    0    0 -0.35771247874E+02  0.44502617519E+01  0.14029476690E+02  0.38680915457E+02  0.51100000000E-03 0. -1.
        -11    1    3    3    0    0  0.28968855565E+01  0.11358678733E+02  0.23846299973E+01  0.11962357166E+02  0.51100000000E-03 0.  1.
        -12    1    3    3    0    0  0.31827389077E+02 -0.15780175857E+02 -0.16957971492E+02  0.39364570907E+02  0.00000000000E+00 0.  1.
</event>
<event>
 7    1  0.3795708E-015  0.9000777E+02  0.7816164E-02  0.1186339E+00
        -11   -1    0    0    0    0  0.00000000000E+00  0.00000000000E+00  0.45593999997E+02  0.45594000000E+02  0.51100000000E-03 0.  1.
         11   -1    0    0    0    0 -0.00000000000E+00 -0.00000000000E+00 -0.45593999997E+02  0.45594000000E+02  0.51100000000E-03 0. -1.
    9900012    2    1    2    0    0 -0.69268566572E+00  0.30005806875E+00  0.90725201709E+00  0.90007765066E+02  0.90000026765E+02 0.  0.
         12    1    1    2    0    0  0.69268566572E+00 -0.30005806875E+00 -0.90725201709E+00  0.11802349337E+01  0.00000000000E+00 0. -1.
         11    1    3    3    0    0 -0.24130848073E+02 -0.86254185945E+01 -0.23809385015E+02  0.34979743991E+02  0.51100000000E-03 0. -1.
        -11    1    3    3    0    0 -0.85562331522E+01 -0.91036852779E+00 -0.52684110587E+01  0.10089303839E+02  0.51100000000E-03 0.  1.
        -12    1    3    3    0    0  0.31994395560E+02  0.98358451910E+01  0.29985048090E+02  0.44938717236E+02  0.00000000000E+00 0.  1.
</event>
<event>
 7    1  0.3795708E-015  0.9000782E+02  0.7816164E-02  0.1186339E+00
        -11   -1    0    0    0    0  0.00000000000E+00  0.00000000000E+00  0.45593999997E+02  0.45594000000E+02  0.51100000000E-03 0. -1.
         11   -1    0    0    0    0 -0.00000000000E+00 -0.00000000000E+00 -0.45593999997E+02  0.45594000000E+02  0.51100000000E-03 0.  1.
    9900012    2    1    2    0    0 -0.11483590982E+01  0.27190968066E+00  0.13055454222E-01  0.90007816142E+02  0.90000078515E+02 0.  0.
         12    1    1    2    0    0  0.11483590982E+01 -0.27190968066E+00 -0.13055454222E-01  0.11801838576E+01  0.00000000000E+00 0. -1.
         11    1    3    3    0    0  0.73682928533E+01  0.45998317477E+00  0.46003680563E+01  0.86986614262E+01  0.51100000000E-03 0. -1.
        -11    1    3    3    0    0 -0.40470665062E+02 -0.15705625378E+02 -0.11961827355E+02  0.45029176241E+02  0.51100000000E-03 0.  1.
         12    1    3    3    0    0  0.31954013110E+02  0.15517551884E+02  0.73745147532E+01  0.36279978475E+02  0.00000000000E+00 0. -1.
</event>
<event>
 7    1  0.3795708E-015  0.9000777E+02  0.7816164E-02  0.1186339E+00
        -11   -1    0    0    0    0  0.00000000000E+00  0.00000000000E+00  0.45593999997E+02  0.45594000000E+02  0.51100000000E-03 0.  1.
         11   -1    0    0    0    0 -0.00000000000E+00 -0.00000000000E+00 -0.45593999997E+02  0.45594000000E+02  0.51100000000E-03 0. -1.
    9900012    2    1    2    0    0  0.10917992488E+01  0.24927267100E+00  0.37253887473E+00  0.90007767956E+02  0.90000029693E+02 0.  0.
         12    1    1    2    0    0 -0.10917992488E+01 -0.24927267100E+00 -0.37253887473E+00  0.11802320439E+01  0.00000000000E+00 0. -1.
         11    1    3    3    0    0  0.36113668400E+01 -0.30888464379E+01  0.91706456626E+01  0.10328779449E+02  0.51100000000E-03 0. -1.
        -11    1    3    3    0    0 -0.22859464943E+02 -0.21561446103E+02  0.19386760726E+02  0.36922859955E+02  0.51100000000E-03 0.  1.
         12    1    3    3    0    0  0.20339897352E+02  0.24899565212E+02 -0.28184867514E+02  0.42756128553E+02  0.00000000000E+00 0. -1.
</event>
<event>
 7    1  0.3795708E-015  0.9000775E+02  0.7816164E-02  0.1186339E+00
        -11   -1    0    0    0    0  0.00000000000E+00  0.00000000000E+00  0.45593999997E+02  0.45594000000E+02  0.51100000000E-03 0.  1.
         11   -1    0    0    0    0 -0.00000000000E+00 -0.00000000000E+00 -0.45593999997E+02  0.45594000000E+02  0.51100000000E-03 0. -1.
    9900012    2    1    2    0    0  0.10505290923E+01  0.36557113649E+00  0.39462988446E+00  0.90007751562E+02  0.90000013083E+02 0.  0.
         12    1    1    2    0    0 -0.10505290923E+01 -0.36557113649E+00 -0.39462988446E+00  0.11802484379E+01  0.00000000000E+00 0. -1.
         11    1    3    3    0    0 -0.80888854762E+01 -0.17401559426E+01 -0.63269094088E+01  0.10415757000E+02  0.51100000000E-03 0. -1.
        -11    1    3    3    0    0 -0.33959755815E+02 -0.15038169183E+00 -0.62418522681E+01  0.34528949444E+02  0.51100000000E-03 0.  1.
         12    1    3    3    0    0  0.43099170384E+02  0.22561087709E+01  0.12963391561E+02  0.45063045118E+02  0.00000000000E+00 0. -1.
</event>
<event>
 7    1  0.3795708E-015  0.9000769E+02  0.7816164E-02  0.1186339E+00
        -11   -1    0    0    0    0  0.00000000000E+00  0.00000000000E+00  0.45593999997E+02  0.45594000000E+02  0.51100000000E-03 0. -1.
         11   -1    0    0    0    0 -0.00000000000E+00 -0.00000000000E+00 -0.45593999997E+02  0.45594000000E+02  0.51100000000E-03 0.  1.
    9900012    2    1    2    0    0 -0.87319123161E+00 -0.38066497089E+00 -0.69697408916E+00  0.90007685793E+02  0.89999946445E+02 0.  0.
         12    1    1    2    0    0  0.87319123161E+00  0.38066497089E+00  0.69697408916E+00  0.11803142073E+01  0.00000000000E+00 0. -1.
         11    1    3    3    0    0  0.16405186993E+02  0.23758070453E+02  0.30054897892E+02  0.41675807844E+02  0.51100000000E-03 0. -1.
        -11    1    3    3    0    0 -0.46572470920E+01 -0.70498135930E+01  0.25544956930E+01  0.88269627097E+01  0.51100000000E-03 0.  1.
        -12    1    3    3    0    0 -0.12621131133E+02 -0.17088921831E+02 -0.33306367674E+02  0.39504915239E+02  0.00000000000E+00 0.  1.
</event>
<event>
 7    1  0.3795708E-015  0.9000787E+02  0.7816164E-02  0.1186339E+00
        -11   -1    0    0    0    0  0.00000000000E+00  0.00000000000E+00  0.45593999997E+02  0.45594000000E+02  0.51100000000E-03 0. -1.
         11   -1    0    0    0    0 -0.00000000000E+00 -0.00000000000E+00 -0.45593999997E+02  0.45594000000E+02  0.51100000000E-03 0.  1.
    9900012    2    1    2    0    0  0.81017290700E+00  0.36302256453E+00 -0.77752482823E+00  0.90007868490E+02  0.90000131554E+02 0.  0.
         12    1    1    2    0    0 -0.81017290700E+00 -0.36302256453E+00  0.77752482823E+00  0.11801315097E+01  0.00000000000E+00 0. -1.
         11    1    3    3    0    0  0.98727524174E+01  0.12663092262E+02  0.32342342067E+02  0.36108894147E+02  0.51100000000E-03 0. -1.
        -11    1    3    3    0    0  0.12036718836E+02  0.66120182734E+01 -0.14626579104E+02  0.20063354717E+02  0.51100000000E-03 0.  1.
        -12    1    3    3    0    0 -0.21099298346E+02 -0.18912087970E+02 -0.18493287791E+02  0.33835619626E+02  0.00000000000E+00 0.  1.
</event>
<event>
 7    1  0.3795708E-015  0.9000770E+02  0.7816164E-02  0.1186339E+00
        -11   -1    0    0    0    0  0.00000000000E+00  0.00000000000E+00  0.45593999997E+02  0.45594000000E+02  0.51100000000E-03 0. -1.
         11   -1    0    0    0    0 -0.00000000000E+00 -0.00000000000E+00 -0.45593999997E+02  0.45594000000E+02  0.51100000000E-03 0.  1.
    9900012    2    1    2    0    0 -0.10751732989E+01 -0.22755807555E+00 -0.43050606296E+00  0.90007696746E+02  0.89999957543E+02 0.  0.
         12    1    1    2    0    0  0.10751732989E+01  0.22755807555E+00  0.43050606296E+00  0.11803032536E+01  0.00000000000E+00 0. -1.
         11    1    3    3    0    0 -0.78042465969E+01 -0.36040552915E+02 -0.16756600402E+02  0.40504461195E+02  0.51100000000E-03 0. -1.
        -11    1    3    3    0    0 -0.23182433027E+00 -0.24407768784E+01  0.97693849986E+01  0.10072339242E+02  0.51100000000E-03 0.  1.
        -12    1    3    3    0    0  0.69608976283E+01  0.38253771718E+02  0.65567093408E+01  0.39430896310E+02  0.00000000000E+00 0.  1.
</event>
<event>
 7    1  0.3795708E-015  0.9000773E+02  0.7816164E-02  0.1186339E+00
        -11   -1    0    0    0    0  0.00000000000E+00  0.00000000000E+00  0.45593999997E+02  0.45594000000E+02  0.51100000000E-03 0.  1.
         11   -1    0    0    0    0 -0.00000000000E+00 -0.00000000000E+00 -0.45593999997E+02  0.45594000000E+02  0.51100000000E-03 0. -1.
    9900012    2    1    2    0    0 -0.10746612232E+01 -0.38920195860E+00  0.29437361432E+00  0.90007732770E+02  0.89999994043E+02 0.  0.
         12    1    1    2    0    0  0.10746612232E+01  0.38920195860E+00 -0.29437361432E+00  0.11802672299E+01  0.00000000000E+00 0. -1.
         11    1    3    3    0    0 -0.23457109691E+01  0.11998770957E+01 -0.94624992647E+01  0.98224720713E+01  0.51100000000E-03 0. -1.
        -11    1    3    3    0    0  0.36473050459E+02  0.16476513455E+02  0.47677308616E+01  0.40304964499E+02  0.51100000000E-03 0.  1.
         12    1    3    3    0    0 -0.35202000713E+02 -0.18065592509E+02  0.49891420174E+01  0.39880296200E+02  0.00000000000E+00 0. -1.
</event>
<event>
 7    1  0.3795708E-015  0.9000761E+02  0.7816164E-02  0.1186339E+00
        -11   -1    0    0    0    0  0.00000000000E+00  0.00000000000E+00  0.45593999997E+02  0.45594000000E+02  0.51100000000E-03 0.  1.
         11   -1    0    0    0    0 -0.00000000000E+00 -0.00000000000E+00 -0.45593999997E+02  0.45594000000E+02  0.51100000000E-03 0. -1.
    9900012    2    1    2    0    0  0.34759536330E+00  0.59500069997E+00  0.95836604329E+00  0.90007612842E+02  0.89999872532E+02 0.  0.
         12    1    1    2    0    0 -0.34759536330E+00 -0.59500069997E+00 -0.95836604329E+00  0.11803871579E+01  0.00000000000E+00 0. -1.
         11    1    3    3    0    0  0.64828388543E+01  0.43994140482E+00  0.16865843892E+01  0.67130704759E+01  0.51100000000E-03 0. -1.
        -11    1    3    3    0    0  0.14739965414E+02  0.28462391185E+02  0.24218561102E+02  0.40173535996E+02  0.51100000000E-03 0.  1.
         12    1    3    3    0    0 -0.20875208905E+02 -0.28307331890E+02 -0.24946779448E+02  0.43121006370E+02  0.00000000000E+00 0. -1.
</event>
<event>
 7    1  0.3795708E-015  0.9000771E+02  0.7816164E-02  0.1186339E+00
        -11   -1    0    0    0    0  0.00000000000E+00  0.00000000000E+00  0.45593999997E+02  0.45594000000E+02  0.51100000000E-03 0.  1.
         11   -1    0    0    0    0 -0.00000000000E+00 -0.00000000000E+00 -0.45593999997E+02  0.45594000000E+02  0.51100000000E-03 0. -1.
    9900012    2    1    2    0    0 -0.85099831461E+00 -0.66155568545E+00  0.48086741263E+00  0.90007708712E+02  0.89999969667E+02 0.  0.
         12    1    1    2    0    0  0.85099831461E+00  0.66155568545E+00 -0.48086741263E+00  0.11802912882E+01  0.00000000000E+00 0. -1.
         11    1    3    3    0    0  0.64827908664E+01  0.37714862220E+02  0.47803897421E+01  0.38565392984E+02  0.51100000000E-03 0. -1.
        -11    1    3    3    0    0  0.22024178364E+01 -0.30909549753E+00  0.95660950328E+01  0.98212198219E+01  0.51100000000E-03 0.  1.
        -12    1    3    3    0    0 -0.95362070174E+01 -0.38067322408E+02 -0.13865617362E+02  0.41621095906E+02  0.00000000000E+00 0.  1.
</event>
<event>
 7    1  0.3795708E-015  0.9000774E+02  0.7816164E-02  0.1186339E+00
        -11   -1    0    0    0    0  0.00000000000E+00  0.00000000000E+00  0.45593999997E+02  0.45594000000E+02  0.51100000000E-03 0.  1.
         11   -1    0    0    0    0 -0.00000000000E+00 -0.00000000000E+00 -0.45593999997E+02  0.45594000000E+02  0.51100000000E-03 0. -1.
    9900012    2    1    2    0    0  0.21423503125E-01 -0.10357209641E+01  0.56554285063E+00  0.90007739182E+02  0.90000000539E+02 0.  0.
         12    1    1    2    0    0 -0.21423503125E-01  0.10357209641E+01 -0.56554285063E+00  0.11802608178E+01  0.00000000000E+00 0. -1.
         11    1    3    3    0    0 -0.77743317199E+01  0.87748521776E+00  0.36453863323E+00  0.78321837743E+01  0.51100000000E-03 0. -1.
        -11    1    3    3    0    0 -0.29999281925E+02  0.17317870637E+02  0.14317367093E+02  0.37481362838E+02  0.51100000000E-03 0.  1.
         12    1    3    3    0    0  0.37795037148E+02 -0.19231076819E+02 -0.14116362876E+02  0.44694192570E+02  0.00000000000E+00 0. -1.
</event>
<event>
 7    1  0.3795708E-015  0.9000776E+02  0.7816164E-02  0.1186339E+00
        -11   -1    0    0    0    0  0.00000000000E+00  0.00000000000E+00  0.45593999997E+02  0.45594000000E+02  0.51100000000E-03 0.  1.
         11   -1    0    0    0    0 -0.00000000000E+00 -0.00000000000E+00 -0.45593999997E+02  0.45594000000E+02  0.51100000000E-03 0. -1.
    9900012    2    1    2    0    0  0.66996264004E+00  0.91719556852E+00  0.32072106326E+00  0.90007762884E+02  0.90000024554E+02 0.  0.
         12    1    1    2    0    0 -0.66996264004E+00 -0.91719556852E+00 -0.32072106326E+00  0.11802371162E+01  0.00000000000E+00 0. -1.
         11    1    3    3    0    0 -0.26288109590E+00  0.32381757053E+02 -0.15993013749E+02  0.36116807519E+02  0.51100000000E-03 0. -1.
        -11    1    3    3    0    0  0.85697731346E+01  0.74947112981E+01  0.13527522241E+01  0.11464800385E+02  0.51100000000E-03 0.  1.
        -12    1    3    3    0    0 -0.76369293986E+01 -0.38959272783E+02  0.14960982588E+02  0.42426154980E+02  0.00000000000E+00 0.  1.
</event>
<event>
 7    1  0.3795708E-015  0.9000727E+02  0.7816164E-02  0.1186340E+00
        -11   -1    0    0    0    0  0.00000000000E+00  0.00000000000E+00  0.45593999997E+02  0.45594000000E+02  0.51100000000E-03 0.  1.
         11   -1    0    0    0    0 -0.00000000000E+00 -0.00000000000E+00 -0.45593999997E+02  0.45594000000E+02  0.51100000000E-03 0. -1.
    9900012    2    1    2    0    0  0.64932113535E+00 -0.83164038680E+00  0.52997098209E+00  0.90007274413E+02  0.89999529634E+02 0.  0.
         12    1    1    2    0    0 -0.64932113535E+00  0.83164038680E+00 -0.52997098209E+00  0.11807255869E+01  0.00000000000E+00 0. -1.
         11    1    3    3    0    0  0.86177450601E+01  0.78729838610E+01  0.53495211106E+01  0.12840045996E+02  0.51100000000E-03 0. -1.
        -11    1    3    3    0    0  0.14109978992E+02 -0.22845735716E+01  0.31266300245E+02  0.34378660748E+02  0.51100000000E-03 0.  1.
         12    1    3    3    0    0 -0.22078402917E+02 -0.64200506761E+01 -0.36085850373E+02  0.42788567670E+02  0.00000000000E+00 0. -1.
</event>
<event>
 7    1  0.3795708E-015  0.9000779E+02  0.7816164E-02  0.1186339E+00
        -11   -1    0    0    0    0  0.00000000000E+00  0.00000000000E+00  0.45593999997E+02  0.45594000000E+02  0.51100000000E-03 0.  1.
         11   -1    0    0    0    0 -0.00000000000E+00 -0.00000000000E+00 -0.45593999997E+02  0.45594000000E+02  0.51100000000E-03 0. -1.
    9900012    2    1    2    0    0 -0.20265498638E+00  0.36307657602E+00  0.11045344563E+01  0.90007792387E+02  0.90000054447E+02 0.  0.
         12    1    1    2    0    0  0.20265498638E+00 -0.36307657602E+00 -0.11045344563E+01  0.11802076125E+01  0.00000000000E+00 0. -1.
         11    1    3    3    0    0 -0.16810770924E+02 -0.22845834288E+02 -0.30322468780E+02  0.41520913725E+02  0.51100000000E-03 0. -1.
        -11    1    3    3    0    0  0.29718892173E+01  0.80873028721E+01 -0.24533629510E+01  0.89585480573E+01  0.51100000000E-03 0.  1.
        -12    1    3    3    0    0  0.13636226720E+02  0.15121607992E+02  0.33880366188E+02  0.39528330605E+02  0.00000000000E+00 0.  1.
</event>
<event>
 7    1  0.3795708E-015  0.9000789E+02  0.7816164E-02  0.1186339E+00
        -11   -1    0    0    0    0  0.00000000000E+00  0.00000000000E+00  0.45593999997E+02  0.45594000000E+02  0.51100000000E-03 0. -1.
         11   -1    0    0    0    0 -0.00000000000E+00 -0.00000000000E+00 -0.45593999997E+02  0.45594000000E+02  0.51100000000E-03 0.  1.
    9900012    2    1    2    0    0  0.45863233178E+00  0.57099228570E+00  0.92535940520E+00  0.90007887363E+02  0.90000150677E+02 0.  0.
         12    1    1    2    0    0 -0.45863233178E+00 -0.57099228570E+00 -0.92535940520E+00  0.11801126365E+01  0.00000000000E+00 0. -1.
         11    1    3    3    0    0  0.10401712206E+02  0.88121406126E+01  0.31284155784E+02  0.34125472046E+02  0.51100000000E-03 0. -1.
        -11    1    3    3    0    0  0.73805029470E+01  0.73523695448E+00  0.91738605940E+01  0.11797123191E+02  0.51100000000E-03 0.  1.
        -12    1    3    3    0    0 -0.17323582821E+02 -0.89763852814E+01 -0.39532656973E+02  0.44085292126E+02  0.00000000000E+00 0.  1.
</event>
<event>
 7    1  0.3795708E-015  0.9000769E+02  0.7816164E-02  0.1186339E+00
        -11   -1    0    0    0    0  0.00000000000E+00  0.00000000000E+00  0.45593999997E+02  0.45594000000E+02  0.51100000000E-03 0.  1.
         11   -1    0    0    0    0 -0.00000000000E+00 -0.00000000000E+00 -0.45593999997E+02  0.45594000000E+02  0.51100000000E-03 0. -1.
    9900012    2    1    2    0    0 -0.11495341405E+01 -0.52842951667E-01  0.26249589080E+00  0.90007692747E+02  0.89999953492E+02 0.  0.
         12    1    1    2    0    0  0.11495341405E+01  0.52842951667E-01 -0.26249589080E+00  0.11803072525E+01  0.00000000000E+00 0. -1.
         11    1    3    3    0    0  0.37675563548E+02 -0.14888777790E+02 -0.93396505164E+01  0.41573463468E+02  0.51100000000E-03 0. -1.
        -11    1    3    3    0    0 -0.30508543014E+01 -0.16341512594E+01  0.83410131645E+01  0.90305405807E+01  0.51100000000E-03 0.  1.
        -12    1    3    3    0    0 -0.35774243387E+02  0.16470086098E+02  0.12611332426E+01  0.39403688698E+02  0.00000000000E+00 0.  1.
</event>
<event>
 7    1  0.3795708E-015  0.9000782E+02  0.7816164E-02  0.1186339E+00
        -11   -1    0    0    0    0  0.00000000000E+00  0.00000000000E+00  0.45593999997E+02  0.45594000000E+02  0.51100000000E-03 0. -1.
         11   -1    0    0    0    0 -0.00000000000E+00 -0.00000000000E+00 -0.45593999997E+02  0.45594000000E+02  0.51100000000E-03 0.  1.
    9900012    2    1    2    0    0  0.60135014313E+00  0.89126534568E+00 -0.48667607843E+00  0.90007818016E+02  0.90000080413E+02 0.  0.
         12    1    1    2    0    0 -0.60135014313E+00 -0.89126534568E+00  0.48667607843E+00  0.11801819844E+01  0.00000000000E+00 0. -1.
         11    1    3    3    0    0 -0.24393693526E+02 -0.23180271108E+02 -0.12910663810E+02  0.36042509524E+02  0.51100000000E-03 0. -1.
        -11    1    3    3    0    0 -0.10927546399E+01 -0.93301348306E+01  0.58761080285E+01  0.11080350829E+02  0.51100000000E-03 0.  1.
        -12    1    3    3    0    0  0.26087798309E+02  0.33401671284E+02  0.65478797031E+01  0.42884957663E+02  0.00000000000E+00 0.  1.
</event>
<event>
 7    1  0.3795708E-015  0.9000775E+02  0.7816164E-02  0.1186339E+00
        -11   -1    0    0    0    0  0.00000000000E+00  0.00000000000E+00  0.45593999997E+02  0.45594000000E+02  0.51100000000E-03 0. -1.
         11   -1    0    0    0    0 -0.00000000000E+00 -0.00000000000E+00 -0.45593999997E+02  0.45594000000E+02  0.51100000000E-03 0.  1.
    9900012    2    1    2    0    0 -0.72925304635E-01  0.71559834359E+00 -0.93573238410E+00  0.90007748254E+02  0.90000009731E+02 0.  0.
         12    1    1    2    0    0  0.72925304635E-01 -0.71559834359E+00  0.93573238410E+00  0.11802517461E+01  0.00000000000E+00 0. -1.
         11    1    3    3    0    0 -0.23690789170E+02 -0.20759971146E+02  0.24599426519E+02  0.39967007379E+02  0.51100000000E-03 0. -1.
        -11    1    3    3    0    0 -0.60066081706E+01 -0.67607895860E+00 -0.35505468759E+01  0.70101931395E+01  0.51100000000E-03 0.  1.
        -12    1    3    3    0    0  0.29624472036E+02  0.22151648448E+02 -0.21984612027E+02  0.43030547735E+02  0.00000000000E+00 0.  1.
</event>
<event>
 7    1  0.3795708E-015  0.9000773E+02  0.7816164E-02  0.1186339E+00
        -11   -1    0    0    0    0  0.00000000000E+00  0.00000000000E+00  0.45593999997E+02  0.45594000000E+02  0.51100000000E-03 0.  1.
         11   -1    0    0    0    0 -0.00000000000E+00 -0.00000000000E+00 -0.45593999997E+02  0.45594000000E+02  0.51100000000E-03 0. -1.
    9900012    2    1    2    0    0 -0.71676703934E+00  0.90736145469E+00  0.23661502573E+00  0.90007726104E+02  0.89999987289E+02 0.  0.
         12    1    1    2    0    0  0.71676703934E+00 -0.90736145469E+00 -0.23661502573E+00  0.11802738956E+01  0.00000000000E+00 0. -1.
         11    1    3    3    0    0 -0.55401854834E+01  0.20598663938E+02 -0.36005160121E+02  0.41849374748E+02  0.51100000000E-03 0. -1.
        -11    1    3    3    0    0 -0.53441820976E+01  0.33355660820E+01  0.98074434309E+01  0.11656424421E+02  0.51100000000E-03 0.  1.
        -12    1    3    3    0    0  0.10167600542E+02 -0.23026868565E+02  0.26434331716E+02  0.36501926935E+02  0.00000000000E+00 0.  1.
</event>
<event>
 7    1  0.3795708E-015  0.9000763E+02  0.7816164E-02  0.1186339E+00
        -11   -1    0    0    0    0  0.00000000000E+00  0.00000000000E+00  0.45593999997E+02  0.45594000000E+02  0.51100000000E-03 0.  1.
         11   -1    0    0    0    0 -0.00000000000E+00 -0.00000000000E+00 -0.45593999997E+02  0.45594000000E+02  0.51100000000E-03 0. -1.
    9900012    2    1    2    0    0 -0.88018911199E+00 -0.78621789068E+00 -0.20149498494E-01  0.90007628259E+02  0.89999888152E+02 0.  0.
         12    1    1    2    0    0  0.88018911199E+00  0.78621789068E+00  0.20149498494E-01  0.11803717409E+01  0.00000000000E+00 0. -1.
         11    1    3    3    0    0  0.22219221791E+01  0.10253009175E+02 -0.34177783763E+02  0.35751671829E+02  0.51100000000E-03 0. -1.
        -11    1    3    3    0    0 -0.23253522106E+01 -0.25533237071E+00 -0.92401380342E+01  0.95316634789E+01  0.51100000000E-03 0.  1.
        -12    1    3    3    0    0 -0.77675908044E+00 -0.10783894695E+02  0.43397772299E+02  0.44724292951E+02  0.00000000000E+00 0.  1.
</event>
<event>
 7    1  0.3795708E-015  0.9000771E+02  0.7816164E-02  0.1186339E+00
        -11   -1    0    0    0    0  0.00000000000E+00  0.00000000000E+00  0.45593999997E+02  0.45594000000E+02  0.51100000000E-03 0. -1.
         11   -1    0    0    0    0 -0.00000000000E+00 -0.00000000000E+00 -0.45593999997E+02  0.45594000000E+02  0.51100000000E-03 0.  1.
    9900012    2    1    2    0    0 -0.25843192789E+00 -0.84947806978E+00 -0.77761944854E+00  0.90007706791E+02  0.89999967721E+02 0.  0.
         12    1    1    2    0    0  0.25843192789E+00  0.84947806978E+00  0.77761944854E+00  0.11802932090E+01  0.00000000000E+00 0. -1.
         11    1    3    3    0    0 -0.31901009193E+02  0.10069646934E+02 -0.18321510821E+02  0.38141184249E+02  0.51100000000E-03 0. -1.
        -11    1    3    3    0    0 -0.44594732921E+01  0.68456016833E+01  0.55645234914E+01  0.98849929892E+01  0.51100000000E-03 0.  1.
        -12    1    3    3    0    0  0.36102050558E+02 -0.17764726687E+02  0.11979367881E+02  0.41981529552E+02  0.00000000000E+00 0.  1.
</event>
<event>
 7    1  0.3795708E-015  0.9000780E+02  0.7816164E-02  0.1186339E+00
        -11   -1    0    0    0    0  0.00000000000E+00  0.00000000000E+00  0.45593999997E+02  0.45594000000E+02  0.51100000000E-03 0.  1.
         11   -1    0    0    0    0 -0.00000000000E+00 -0.00000000000E+00 -0.45593999997E+02  0.45594000000E+02  0.51100000000E-03 0. -1.
    9900012    2    1    2    0    0 -0.26035437652E+00  0.10384636838E+01  0.49665798833E+00  0.90007804939E+02  0.90000067164E+02 0.  0.
         12    1    1    2    0    0  0.26035437652E+00 -0.10384636838E+01 -0.49665798833E+00  0.11801950607E+01  0.00000000000E+00 0. -1.
         11    1    3    3    0    0  0.40858072689E+01 -0.26168711017E+01  0.84268744148E+01  0.97238905828E+01  0.51100000000E-03 0. -1.
        -11    1    3    3    0    0  0.24002908356E+02 -0.12179095723E+02  0.23025752130E+02  0.35421112964E+02  0.51100000000E-03 0.  1.
         12    1    3    3    0    0 -0.28349070002E+02  0.15834430508E+02 -0.30955968557E+02  0.44862801392E+02  0.00000000000E+00 0. -1.
</event>
<event>
 7    1  0.3795708E-015  0.9000769E+02  0.7816164E-02  0.1186339E+00
        -11   -1    0    0    0    0  0.00000000000E+00  0.00000000000E+00  0.45593999997E+02  0.45594000000E+02  0.51100000000E-03 0. -1.
         11   -1    0    0    0    0 -0.00000000000E+00 -0.00000000000E+00 -0.45593999997E+02  0.45594000000E+02  0.51100000000E-03 0.  1.
    9900012    2    1    2    0    0 -0.11582293779E+01 -0.20627777142E+00 -0.95301877986E-01  0.90007691456E+02  0.89999952183E+02 0.  0.
         12    1    1    2    0    0  0.11582293779E+01  0.20627777142E+00  0.95301877986E-01  0.11803085439E+01  0.00000000000E+00 0. -1.
         11    1    3    3    0    0  0.25171780213E+02 -0.25807569011E+02 -0.17229758359E+02  0.39956397619E+02  0.51100000000E-03 0. -1.
        -11    1    3    3    0    0  0.17705303975E+01  0.70884575663E+01 -0.57999053340E+01  0.93284463177E+01  0.51100000000E-03 0.  1.
        -12    1    3    3    0    0 -0.28100539988E+02  0.18512833673E+02  0.22934361815E+02  0.40722847519E+02  0.00000000000E+00 0.  1.
</event>
<event>
 7    1  0.3795708E-015  0.9000773E+02  0.7816164E-02  0.1186339E+00
        -11   -1    0    0    0    0  0.00000000000E+00  0.00000000000E+00  0.45593999997E+02  0.45594000000E+02  0.51100000000E-03 0. -1.
         11   -1    0    0    0    0 -0.00000000000E+00 -0.00000000000E+00 -0.45593999997E+02  0.45594000000E+02  0.51100000000E-03 0.  1.
    9900012    2    1    2    0    0 -0.78335030143E+00  0.79572355618E-01 -0.87924051244E+00  0.90007731669E+02  0.89999992927E+02 0.  0.
         12    1    1    2    0    0  0.78335030143E+00 -0.79572355618E-01  0.87924051244E+00  0.11802683310E+01  0.00000000000E+00 0. -1.
         11    1    3    3    0    0  0.24502828520E+02 -0.23081370445E+02  0.21874437205E+02  0.40145102695E+02  0.51100000000E-03 0. -1.
        -11    1    3    3    0    0  0.59953565056E+01  0.56502876349E+01 -0.21490683976E+01  0.85140205088E+01  0.51100000000E-03 0.  1.
        -12    1    3    3    0    0 -0.31281535327E+02  0.17510655165E+02 -0.20604609320E+02  0.41348608465E+02  0.00000000000E+00 0.  1.
</event>
<event>
 7    1  0.3795708E-015  0.9000762E+02  0.7816164E-02  0.1186339E+00
        -11   -1    0    0    0    0  0.00000000000E+00  0.00000000000E+00  0.45593999997E+02  0.45594000000E+02  0.51100000000E-03 0.  1.
         11   -1    0    0    0    0 -0.00000000000E+00 -0.00000000000E+00 -0.45593999997E+02  0.45594000000E+02  0.51100000000E-03 0. -1.
    9900012    2    1    2    0    0  0.71619083374E+00  0.90005470091E+00 -0.26506690558E+00  0.90007623687E+02  0.89999883520E+02 0.  0.
         12    1    1    2    0    0 -0.71619083374E+00 -0.90005470091E+00  0.26506690558E+00  0.11803763126E+01  0.00000000000E+00 0. -1.
         11    1    3    3    0    0  0.33628786888E+02  0.94464269797E+01  0.12671550404E+02  0.37157751279E+02  0.51100000000E-03 0. -1.
        -11    1    3    3    0    0  0.70929378815E+01 -0.20021321592E+01  0.45936887629E+01  0.86844848831E+01  0.51100000000E-03 0.  1.
        -12    1    3    3    0    0 -0.40005533936E+02 -0.65442401197E+01 -0.17530306072E+02  0.44165387525E+02  0.00000000000E+00 0.  1.
</event>
<event>
 7    1  0.3795708E-015  0.9000779E+02  0.7816164E-02  0.1186339E+00
        -11   -1    0    0    0    0  0.00000000000E+00  0.00000000000E+00  0.45593999997E+02  0.45594000000E+02  0.51100000000E-03 0. -1.
         11   -1    0    0    0    0 -0.00000000000E+00 -0.00000000000E+00 -0.45593999997E+02  0.45594000000E+02  0.51100000000E-03 0.  1.
    9900012    2    1    2    0    0 -0.10406673593E+01  0.55659587045E+00 -0.10364363688E-01  0.90007790300E+02  0.90000052332E+02 0.  0.
         12    1    1    2    0    0  0.10406673593E+01 -0.55659587045E+00  0.10364363688E-01  0.11802096999E+01  0.00000000000E+00 0. -1.
         11    1    3    3    0    0 -0.39216937277E+02  0.83108544414E+01  0.61679486950E+01  0.40559611220E+02  0.51100000000E-03 0. -1.
        -11    1    3    3    0    0 -0.88587829282E+00  0.32291053938E+01 -0.81626869729E+01  0.88227751231E+01  0.51100000000E-03 0.  1.
        -12    1    3    3    0    0  0.39062148211E+02 -0.10983363965E+02  0.19843739142E+01  0.40625403957E+02  0.00000000000E+00 0.  1.
</event>
<event>
 7    1  0.3795708E-015  0.9000769E+02  0.7816164E-02  0.1186339E+00
        -11   -1    0    0    0    0  0.00000000000E+00  0.00000000000E+00  0.45593999997E+02  0.45594000000E+02  0.51100000000E-03 0.  1.
         11   -1    0    0    0    0 -0.00000000000E+00 -0.00000000000E+00 -0.45593999997E+02  0.45594000000E+02  0.51100000000E-03 0. -1.
    9900012    2    1    2    0    0  0.45222312482E+00  0.98799968112E+00  0.46095714370E+00  0.90007690459E+02  0.89999951173E+02 0.  0.
         12    1    1    2    0    0 -0.45222312482E+00 -0.98799968112E+00 -0.46095714370E+00  0.11803095411E+01  0.00000000000E+00 0. -1.
         11    1    3    3    0    0 -0.50543801992E+01 -0.45355825122E+01  0.55134385098E+01  0.87473580231E+01  0.51100000000E-03 0. -1.
        -11    1    3    3    0    0 -0.19488588391E+01  0.96287891876E+01  0.37037616907E+02  0.38318359808E+02  0.51100000000E-03 0.  1.
         12    1    3    3    0    0  0.74554621631E+01 -0.41052069944E+01 -0.42090098273E+02  0.42941972628E+02  0.00000000000E+00 0. -1.
</event>
<event>
 7    1  0.3795708E-015  0.9000764E+02  0.7816164E-02  0.1186339E+00
        -11   -1    0    0    0    0  0.00000000000E+00  0.00000000000E+00  0.45593999997E+02  0.45594000000E+02  0.51100000000E-03 0. -1.
         11   -1    0    0    0    0 -0.00000000000E+00 -0.00000000000E+00 -0.45593999997E+02  0.45594000000E+02  0.51100000000E-03 0.  1.
    9900012    2    1    2    0    0 -0.22406448370E+00 -0.34382854601E+00 -0.11067219834E+01  0.90007637128E+02  0.89999897138E+02 0.  0.
         12    1    1    2    0    0  0.22406448370E+00  0.34382854601E+00  0.11067219834E+01  0.11803628724E+01  0.00000000000E+00 0. -1.
         11    1    3    3    0    0 -0.99495857200E+01 -0.29897480773E+01  0.23035609147E+01  0.10641392894E+02  0.51100000000E-03 0. -1.
        -11    1    3    3    0    0 -0.23649441802E+02 -0.19468521847E+02 -0.19395763871E+02  0.36256242178E+02  0.51100000000E-03 0.  1.
         12    1    3    3    0    0  0.33374963039E+02  0.22114441378E+02  0.15985480973E+02  0.43110002056E+02  0.00000000000E+00 0. -1.
</event>
<event>
 7    1  0.3795708E-015  0.9000767E+02  0.7816164E-02  0.1186339E+00
        -11   -1    0    0    0    0  0.00000000000E+00  0.00000000000E+00  0.45593999997E+02  0.45594000000E+02  0.51100000000E-03 0.  1.
         11   -1    0    0    0    0 -0.00000000000E+00 -0.00000000000E+00 -0.45593999997E+02  0.45594000000E+02  0.51100000000E-03 0. -1.
    9900012    2    1    2    0    0  0.73704066769E+00  0.53693140841E+00  0.74943476074E+00  0.90007670917E+02  0.89999931373E+02 0.  0.
         12    1    1    2    0    0 -0.73704066769E+00 -0.53693140841E+00 -0.74943476074E+00  0.11803290828E+01  0.00000000000E+00 0. -1.
         11    1    3    3    0    0  0.17990277831E+01 -0.34128208966E+01 -0.73597568093E+01  0.83096250210E+01  0.51100000000E-03 0. -1.
        -11    1    3    3    0    0 -0.21251928345E+02 -0.32960616605E+02  0.43733140079E+01  0.39461026102E+02  0.51100000000E-03 0.  1.
         12    1    3    3    0    0  0.20189941229E+02  0.36910368910E+02  0.37358775622E+01  0.42237019794E+02  0.00000000000E+00 0. -1.
</event>
<event>
 7    1  0.3795708E-015  0.9000684E+02  0.7816164E-02  0.1186341E+00
        -11   -1    0    0    0    0  0.00000000000E+00  0.00000000000E+00  0.45593999997E+02  0.45594000000E+02  0.51100000000E-03 0.  1.
         11   -1    0    0    0    0 -0.00000000000E+00 -0.00000000000E+00 -0.45593999997E+02  0.45594000000E+02  0.51100000000E-03 0. -1.
    9900012    2    1    2    0    0  0.59018004567E+00 -0.59340798484E+00  0.83347814293E+00  0.90006843221E+02  0.89999092747E+02 0.  0.
         12    1    1    2    0    0 -0.59018004567E+00  0.59340798484E+00 -0.83347814293E+00  0.11811567794E+01  0.00000000000E+00 0. -1.
         11    1    3    3    0    0 -0.11628681897E+02 -0.90657376519E+00  0.28455540270E+02  0.30753306992E+02  0.51100000000E-03 0. -1.
        -11    1    3    3    0    0  0.86428258882E+01  0.18788392072E+02  0.52852030625E+01  0.21345619870E+02  0.51100000000E-03 0.  1.
         12    1    3    3    0    0  0.35760360542E+01 -0.18475226291E+02 -0.32907265189E+02  0.37907916358E+02  0.00000000000E+00 0. -1.
</event>
<event>
 7    1  0.3795708E-015  0.9000777E+02  0.7816164E-02  0.1186339E+00
        -11   -1    0    0    0    0  0.00000000000E+00  0.00000000000E+00  0.45593999997E+02  0.45594000000E+02  0.51100000000E-03 0.  1.
         11   -1    0    0    0    0 -0.00000000000E+00 -0.00000000000E+00 -0.45593999997E+02  0.45594000000E+02  0.51100000000E-03 0. -1.
    9900012    2    1    2    0    0 -0.59159466291E+00 -0.36773360464E+00  0.95275218861E+00  0.90007767403E+02  0.90000029133E+02 0.  0.
         12    1    1    2    0    0  0.59159466291E+00  0.36773360464E+00 -0.95275218861E+00  0.11802325966E+01  0.00000000000E+00 0. -1.
         11    1    3    3    0    0  0.26480106389E+01 -0.52466830881E+01 -0.69921966080E+01  0.91340274489E+01  0.51100000000E-03 0. -1.
        -11    1    3    3    0    0 -0.38745695433E+02 -0.12010524717E+02 -0.89266758188E+00  0.40574357349E+02  0.51100000000E-03 0.  1.
         12    1    3    3    0    0  0.35506090131E+02  0.16889474200E+02  0.88376163785E+01  0.40299382606E+02  0.00000000000E+00 0. -1.
</event>
<event>
 7    1  0.3795708E-015  0.9000777E+02  0.7816164E-02  0.1186339E+00
        -11   -1    0    0    0    0  0.00000000000E+00  0.00000000000E+00  0.45593999997E+02  0.45594000000E+02  0.51100000000E-03 0. -1.
         11   -1    0    0    0    0 -0.00000000000E+00 -0.00000000000E+00 -0.45593999997E+02  0.45594000000E+02  0.51100000000E-03 0.  1.
    9900012    2    1    2    0    0 -0.11676775201E+01 -0.13971549080E+00 -0.99713917019E-01  0.90007773719E+02  0.90000035532E+02 0.  0.
         12    1    1    2    0    0  0.11676775201E+01  0.13971549080E+00  0.99713917019E-01  0.11802262811E+01  0.00000000000E+00 0. -1.
         11    1    3    3    0    0  0.55727973261E+01  0.14537646755E+01 -0.66761053011E+01  0.88170224011E+01  0.51100000000E-03 0. -1.
        -11    1    3    3    0    0  0.33801316367E+02  0.39065482460E+01  0.18294403746E+02  0.38632568074E+02  0.51100000000E-03 0.  1.
         12    1    3    3    0    0 -0.40541791213E+02 -0.55000284122E+01 -0.11718012362E+02  0.42558183244E+02  0.00000000000E+00 0. -1.
</event>
<event>
 7    1  0.3795708E-015  0.9000775E+02  0.7816164E-02  0.1186339E+00
        -11   -1    0    0    0    0  0.00000000000E+00  0.00000000000E+00  0.45593999997E+02  0.45594000000E+02  0.51100000000E-03 0. -1.
         11   -1    0    0    0    0 -0.00000000000E+00 -0.00000000000E+00 -0.45593999997E+02  0.45594000000E+02  0.51100000000E-03 0.  1.
    9900012    2    1    2    0    0  0.10425906360E+00 -0.63481767814E+00 -0.98950379970E+00  0.90007753752E+02  0.90000015301E+02 0.  0.
         12    1    1    2    0    0 -0.10425906360E+00  0.63481767814E+00  0.98950379970E+00  0.11802462482E+01  0.00000000000E+00 0. -1.
         11    1    3    3    0    0 -0.70385855362E+01  0.21649164121E+02 -0.86159558235E+01  0.24340556454E+02  0.51100000000E-03 0. -1.
        -11    1    3    3    0    0 -0.16471615925E+02  0.11212290568E+02  0.13777162358E+02  0.24224776446E+02  0.51100000000E-03 0.  1.
        -12    1    3    3    0    0  0.23614460525E+02 -0.33496272368E+02 -0.61507103341E+01  0.41442420851E+02  0.00000000000E+00 0.  1.
</event>
<event>
 7    1  0.3795708E-015  0.9000776E+02  0.7816164E-02  0.1186339E+00
        -11   -1    0    0    0    0  0.00000000000E+00  0.00000000000E+00  0.45593999997E+02  0.45594000000E+02  0.51100000000E-03 0.  1.
         11   -1    0    0    0    0 -0.00000000000E+00 -0.00000000000E+00 -0.45593999997E+02  0.45594000000E+02  0.51100000000E-03 0. -1.
    9900012    2    1    2    0    0  0.97192422635E+00 -0.39065191369E+00  0.54380745195E+00  0.90007757582E+02  0.90000019183E+02 0.  0.
         12    1    1    2    0    0 -0.97192422635E+00  0.39065191369E+00 -0.54380745195E+00  0.11802424176E+01  0.00000000000E+00 0. -1.
         11    1    3    3    0    0  0.63631519359E+01  0.33914741293E+02 -0.21069893110E+02  0.40430678642E+02  0.51100000000E-03 0. -1.
        -11    1    3    3    0    0  0.43734636579E+01  0.19526450942E+01  0.85858025192E+01  0.98313789668E+01  0.51100000000E-03 0.  1.
        -12    1    3    3    0    0 -0.97646913675E+01 -0.36258038301E+02  0.13027898043E+02  0.39745699973E+02  0.00000000000E+00 0.  1.
</event>
<event>
 7    1  0.3795708E-015  0.9000771E+02  0.7816164E-02  0.1186339E+00
        -11   -1    0    0    0    0  0.00000000000E+00  0.00000000000E+00  0.45593999997E+02  0.45594000000E+02  0.51100000000E-03 0. -1.
         11   -1    0    0    0    0 -0.00000000000E+00 -0.00000000000E+00 -0.45593999997E+02  0.45594000000E+02  0.51100000000E-03 0.  1.
    9900012    2    1    2    0    0  0.80582042276E+00  0.54291944535E+00 -0.67005020275E+00  0.90007713869E+02  0.89999974892E+02 0.  0.
         12    1    1    2    0    0 -0.80582042276E+00 -0.54291944535E+00  0.67005020275E+00  0.11802861314E+01  0.00000000000E+00 0. -1.
         11    1    3    3    0    0 -0.13613409602E+02  0.16306930723E+02  0.29023980741E+02  0.35967101203E+02  0.51100000000E-03 0. -1.
        -11    1    3    3    0    0  0.96258219893E+01 -0.25490504958E+01  0.86568644450E+01  0.13194521957E+02  0.51100000000E-03 0.  1.
        -12    1    3    3    0    0  0.47934080358E+01 -0.13214960782E+02 -0.38350895389E+02  0.40846090709E+02  0.00000000000E+00 0.  1.
</event>
<event>
 7    1  0.4812246E-015  0.9000782E+02  0.7816164E-02  0.1186339E+00
        -11   -1    0    0    0    0  0.00000000000E+00  0.00000000000E+00  0.45593999997E+02  0.45594000000E+02  0.51100000000E-03 0. -1.
         11   -1    0    0    0    0 -0.00000000000E+00 -0.00000000000E+00 -0.45593999997E+02  0.45594000000E+02  0.51100000000E-03 0.  1.
    9900012    2    1    2    0    0  0.12225167320E+00 -0.67568815096E+00 -0.95985944583E+00  0.90007817766E+02  0.90000080161E+02 0.  0.
         12    1    1    2    0    0 -0.12225167320E+00  0.67568815096E+00  0.95985944583E+00  0.11801822337E+01  0.00000000000E+00 0. -1.
         11    1    3    3    0    0  0.26827288908E+02 -0.78864441489E+00  0.23099178306E+02  0.35410414129E+02  0.51100000000E-03 0. -1.
        -11    1    3    3    0    0  0.68151206989E+01 -0.28200757297E+01  0.59770911139E+01  0.94933827325E+01  0.51100000000E-03 0.  1.
        -12    1    3    3    0    0 -0.33520157933E+02  0.29330319936E+01 -0.30036128865E+02  0.45104020905E+02  0.00000000000E+00 0.  1.
</event>
<event>
 7    1  0.3795708E-015  0.9000781E+02  0.7816164E-02  0.1186339E+00
        -11   -1    0    0    0    0  0.00000000000E+00  0.00000000000E+00  0.45593999997E+02  0.45594000000E+02  0.51100000000E-03 0.  1.
         11   -1    0    0    0    0 -0.00000000000E+00 -0.00000000000E+00 -0.45593999997E+02  0.45594000000E+02  0.51100000000E-03 0. -1.
    9900012    2    1    2    0    0  0.59435297187E+00  0.87887204132E+00 -0.51690290292E+00  0.90007805045E+02  0.90000067272E+02 0.  0.
         12    1    1    2    0    0 -0.59435297187E+00 -0.87887204132E+00  0.51690290292E+00  0.11801949548E+01  0.00000000000E+00 0. -1.
         11    1    3    3    0    0  0.12387448351E+02  0.27464289326E+00 -0.36689860692E+02  0.38725575311E+02  0.51100000000E-03 0. -1.
        -11    1    3    3    0    0 -0.26973531342E+01  0.98736302173E+01 -0.24582984246E+01  0.10526515046E+02  0.51100000000E-03 0.  1.
        -12    1    3    3    0    0 -0.90957422444E+01 -0.92694010692E+01  0.38631256213E+02  0.40755714689E+02  0.00000000000E+00 0.  1.
</event>
<event>
 7    1  0.3795708E-015  0.9000771E+02  0.7816164E-02  0.1186339E+00
        -11   -1    0    0    0    0  0.00000000000E+00  0.00000000000E+00  0.45593999997E+02  0.45594000000E+02  0.51100000000E-03 0.  1.
         11   -1    0    0    0    0 -0.00000000000E+00 -0.00000000000E+00 -0.45593999997E+02  0.45594000000E+02  0.51100000000E-03 0. -1.
    9900012    2    1    2    0    0  0.38800004291E+00 -0.64608268504E-01  0.11128224302E+01  0.90007706806E+02  0.89999967736E+02 0.  0.
         12    1    1    2    0    0 -0.38800004291E+00  0.64608268504E-01 -0.11128224302E+01  0.11802931936E+01  0.00000000000E+00 0. -1.
         11    1    3    3    0    0  0.36688423464E+02 -0.34339846154E+01 -0.89388956229E+01  0.37917496249E+02  0.51100000000E-03 0. -1.
        -11    1    3    3    0    0 -0.75838146709E+01 -0.10875503965E+02  0.14590607610E+02  0.19714884279E+02  0.51100000000E-03 0.  1.
        -12    1    3    3    0    0 -0.28716608750E+02  0.14244880312E+02 -0.45388895571E+01  0.32375326278E+02  0.00000000000E+00 0.  1.
</event>
<event>
 7    1  0.3795708E-015  0.9000754E+02  0.7816164E-02  0.1186339E+00
        -11   -1    0    0    0    0  0.00000000000E+00  0.00000000000E+00  0.45593999997E+02  0.45594000000E+02  0.51100000000E-03 0.  1.
         11   -1    0    0    0    0 -0.00000000000E+00 -0.00000000000E+00 -0.45593999997E+02  0.45594000000E+02  0.51100000000E-03 0. -1.
    9900012    2    1    2    0    0 -0.70825152602E+00  0.94279498555E+00 -0.54755350486E-01  0.90007542141E+02  0.89999800897E+02 0.  0.
         12    1    1    2    0    0  0.70825152602E+00 -0.94279498555E+00  0.54755350486E-01  0.11804578592E+01  0.00000000000E+00 0. -1.
         11    1    3    3    0    0  0.79807901326E+01 -0.18906793751E+01  0.33215913334E+01  0.88487653878E+01  0.51100000000E-03 0. -1.
        -11    1    3    3    0    0  0.33744041910E+02  0.74705912529E+01  0.10753175402E+02  0.36195315714E+02  0.51100000000E-03 0.  1.
         12    1    3    3    0    0 -0.42433083569E+02 -0.46371168922E+01 -0.14129522086E+02  0.44963461039E+02  0.00000000000E+00 0. -1.
</event>
<event>
 7    1  0.3795708E-015  0.9000724E+02  0.7816164E-02  0.1186340E+00
        -11   -1    0    0    0    0  0.00000000000E+00  0.00000000000E+00  0.45593999997E+02  0.45594000000E+02  0.51100000000E-03 0.  1.
         11   -1    0    0    0    0 -0.00000000000E+00 -0.00000000000E+00 -0.45593999997E+02  0.45594000000E+02  0.51100000000E-03 0. -1.
    9900012    2    1    2    0    0  0.80142085581E+00 -0.80974582699E+00 -0.31019986409E+00  0.90007242765E+02  0.89999497568E+02 0.  0.
         12    1    1    2    0    0 -0.80142085581E+00  0.80974582699E+00  0.31019986409E+00  0.11807572351E+01  0.00000000000E+00 0. -1.
         11    1    3    3    0    0  0.29032849359E+02 -0.25418925782E+02  0.66222075028E+01  0.39152033949E+02  0.51100000000E-03 0. -1.
        -11    1    3    3    0    0  0.27914667376E+01 -0.34083960493E+01  0.56833990597E+01  0.71909996043E+01  0.51100000000E-03 0.  1.
        -12    1    3    3    0    0 -0.31022895241E+02  0.28017576005E+02 -0.12615806427E+02  0.43664209212E+02  0.00000000000E+00 0.  1.
</event>
<event>
 7    1  0.3795708E-015  0.9000769E+02  0.7816164E-02  0.1186339E+00
        -11   -1    0    0    0    0  0.00000000000E+00  0.00000000000E+00  0.45593999997E+02  0.45594000000E+02  0.51100000000E-03 0.  1.
         11   -1    0    0    0    0 -0.00000000000E+00 -0.00000000000E+00 -0.45593999997E+02  0.45594000000E+02  0.51100000000E-03 0. -1.
    9900012    2    1    2    0    0  0.24398939577E+00  0.90546102466E+00  0.71675229418E+00  0.90007693115E+02  0.89999953864E+02 0.  0.
         12    1    1    2    0    0 -0.24398939577E+00 -0.90546102466E+00 -0.71675229418E+00  0.11803068854E+01  0.00000000000E+00 0. -1.
         11    1    3    3    0    0  0.20062468614E+02  0.88176919505E+01  0.18917146655E+02  0.28950177479E+02  0.51100000000E-03 0. -1.
        -11    1    3    3    0    0  0.27339659383E+01 -0.83322398803E+01  0.17070237195E+02  0.19190981979E+02  0.51100000000E-03 0.  1.
        -12    1    3    3    0    0 -0.22552445156E+02  0.42000895441E+00 -0.35270631556E+02  0.41866533657E+02  0.00000000000E+00 0.  1.
</event>
<event>
 7    1  0.3795708E-015  0.9000776E+02  0.7816164E-02  0.1186339E+00
        -11   -1    0    0    0    0  0.00000000000E+00  0.00000000000E+00  0.45593999997E+02  0.45594000000E+02  0.51100000000E-03 0. -1.
         11   -1    0    0    0    0 -0.00000000000E+00 -0.00000000000E+00 -0.45593999997E+02  0.45594000000E+02  0.51100000000E-03 0.  1.
    9900012    2    1    2    0    0 -0.67706693080E+00  0.69931429279E+00 -0.66747092442E+00  0.90007755303E+02  0.90000016873E+02 0.  0.
         12    1    1    2    0    0  0.67706693080E+00 -0.69931429279E+00  0.66747092442E+00  0.11802446966E+01  0.00000000000E+00 0. -1.
         11    1    3    3    0    0  0.27601776710E+02 -0.36012895333E+01  0.28843766926E+02  0.40084788319E+02  0.51100000000E-03 0. -1.
        -11    1    3    3    0    0 -0.42528183756E+01 -0.90238576475E+00  0.55824974253E+01  0.70756654789E+01  0.51100000000E-03 0.  1.
        -12    1    3    3    0    0 -0.24026025265E+02  0.52029895908E+01 -0.35093735275E+02  0.42847301506E+02  0.00000000000E+00 0.  1.
</event>
<event>
 7    1  0.3795708E-015  0.9000796E+02  0.7816164E-02  0.1186339E+00
        -11   -1    0    0    0    0  0.00000000000E+00  0.00000000000E+00  0.45593999997E+02  0.45594000000E+02  0.51100000000E-03 0. -1.
         11   -1    0    0    0    0 -0.00000000000E+00 -0.00000000000E+00 -0.45593999997E+02  0.45594000000E+02  0.51100000000E-03 0.  1.
    9900012    2    1    2    0    0 -0.10594673309E+01  0.40030754346E+00 -0.33131520253E+00  0.90007963171E+02  0.90000227484E+02 0.  0.
         12    1    1    2    0    0  0.10594673309E+01 -0.40030754346E+00  0.33131520253E+00  0.11800368291E+01  0.00000000000E+00 0. -1.
         11    1    3    3    0    0 -0.14663037359E+02  0.10261670265E+02  0.32243677038E+02  0.36877652452E+02  0.51100000000E-03 0. -1.
        -11    1    3    3    0    0  0.14282839152E+01  0.10117664618E+02  0.29119012609E+01  0.10624796538E+02  0.51100000000E-03 0.  1.
        -12    1    3    3    0    0  0.12175286113E+02 -0.19979027340E+02 -0.35486893501E+02  0.42505514180E+02  0.00000000000E+00 0.  1.
</event>
<event>
 7    1  0.3795708E-015  0.9000782E+02  0.7816164E-02  0.1186339E+00
        -11   -1    0    0    0    0  0.00000000000E+00  0.00000000000E+00  0.45593999997E+02  0.45594000000E+02  0.51100000000E-03 0. -1.
         11   -1    0    0    0    0 -0.00000000000E+00 -0.00000000000E+00 -0.45593999997E+02  0.45594000000E+02  0.51100000000E-03 0.  1.
    9900012    2    1    2    0    0  0.11649363702E+01 -0.18476787327E+00  0.40137331372E-01  0.90007819116E+02  0.90000081528E+02 0.  0.
         12    1    1    2    0    0 -0.11649363702E+01  0.18476787327E+00 -0.40137331372E-01  0.11801808840E+01  0.00000000000E+00 0. -1.
         11    1    3    3    0    0  0.51194196905E+01  0.63335485353E+01  0.40849040313E+01  0.91109130290E+01  0.51100000000E-03 0. -1.
        -11    1    3    3    0    0  0.22131249813E+02 -0.67483189672E+01  0.30076267727E+02  0.37946197541E+02  0.51100000000E-03 0.  1.
         12    1    3    3    0    0 -0.26085733134E+02  0.23000255865E+00 -0.34121034426E+02  0.42950708546E+02  0.00000000000E+00 0. -1.
</event>
<event>
 7    1  0.3795708E-015  0.9000770E+02  0.7816164E-02  0.1186339E+00
        -11   -1    0    0    0    0  0.00000000000E+00  0.00000000000E+00  0.45593999997E+02  0.45594000000E+02  0.51100000000E-03 0.  1.
         11   -1    0    0    0    0 -0.00000000000E+00 -0.00000000000E+00 -0.45593999997E+02  0.45594000000E+02  0.51100000000E-03 0. -1.
    9900012    2    1    2    0    0  0.23514562665E+00  0.70744243814E+00  0.91506433707E+00  0.90007698763E+02  0.89999959587E+02 0.  0.
         12    1    1    2    0    0 -0.23514562665E+00 -0.70744243814E+00 -0.91506433707E+00  0.11803012370E+01  0.00000000000E+00 0. -1.
         11    1    3    3    0    0  0.38032042091E+02  0.24800381288E+01 -0.48631633764E+01  0.38421831984E+02  0.51100000000E-03 0. -1.
        -11    1    3    3    0    0  0.52154278517E+01  0.23176724950E+01  0.61334506464E+01  0.83780373933E+01  0.51100000000E-03 0.  1.
        -12    1    3    3    0    0 -0.43012324316E+02 -0.40902681856E+01 -0.35522293288E+00  0.43207829386E+02  0.00000000000E+00 0.  1.
</event>
<event>
 7    1  0.3795708E-015  0.9000767E+02  0.7816164E-02  0.1186339E+00
        -11   -1    0    0    0    0  0.00000000000E+00  0.00000000000E+00  0.45593999997E+02  0.45594000000E+02  0.51100000000E-03 0.  1.
         11   -1    0    0    0    0 -0.00000000000E+00 -0.00000000000E+00 -0.45593999997E+02  0.45594000000E+02  0.51100000000E-03 0. -1.
    9900012    2    1    2    0    0 -0.11115198696E+01  0.37619224102E+00  0.12716589231E+00  0.90007674542E+02  0.89999935046E+02 0.  0.
         12    1    1    2    0    0  0.11115198696E+01 -0.37619224102E+00 -0.12716589231E+00  0.11803254580E+01  0.00000000000E+00 0. -1.
         11    1    3    3    0    0  0.48738968970E+01  0.21024369680E+01 -0.71750786442E+01  0.89250695224E+01  0.51100000000E-03 0. -1.
        -11    1    3    3    0    0 -0.42848097583E+02 -0.46573881893E+01 -0.12849143676E+01  0.43119621246E+02  0.51100000000E-03 0.  1.
         12    1    3    3    0    0  0.36862680816E+02  0.29311434623E+01  0.85871589041E+01  0.37962983774E+02  0.00000000000E+00 0. -1.
</event>
<event>
 7    1  0.5830942E-015  0.9000794E+02  0.7816164E-02  0.1186339E+00
        -11   -1    0    0    0    0  0.00000000000E+00  0.00000000000E+00  0.45593999997E+02  0.45594000000E+02  0.51100000000E-03 0. -1.
         11   -1    0    0    0    0 -0.00000000000E+00 -0.00000000000E+00 -0.45593999997E+02  0.45594000000E+02  0.51100000000E-03 0.  1.
    9900012    2    1    2    0    0 -0.51042067860E+00  0.32166281279E+00 -0.10141700761E+01  0.90007941875E+02  0.90000205908E+02 0.  0.
         12    1    1    2    0    0  0.51042067860E+00 -0.32166281279E+00  0.10141700761E+01  0.11800581246E+01  0.00000000000E+00 0. -1.
         11    1    3    3    0    0  0.32837796672E+02  0.10951055723E+02  0.18150887187E+02  0.39085818626E+02  0.51100000000E-03 0. -1.
        -11    1    3    3    0    0 -0.48505079243E+00 -0.73057590503E+01  0.59442782523E+01  0.94310038582E+01  0.51100000000E-03 0.  1.
        -12    1    3    3    0    0 -0.32863166558E+02 -0.33236338596E+01 -0.25109335516E+02  0.41491119391E+02  0.00000000000E+00 0.  1.
</event>
<event>
 7    1  0.3795708E-015  0.9000779E+02  0.7816164E-02  0.1186339E+00
        -11   -1    0    0    0    0  0.00000000000E+00  0.00000000000E+00  0.45593999997E+02  0.45594000000E+02  0.51100000000E-03 0. -1.
         11   -1    0    0    0    0 -0.00000000000E+00 -0.00000000000E+00 -0.45593999997E+02  0.45594000000E+02  0.51100000000E-03 0.  1.
    9900012    2    1    2    0    0 -0.29923008090E+00 -0.31517476210E+00 -0.10972772001E+01  0.90007791957E+02  0.90000054010E+02 0.  0.
         12    1    1    2    0    0  0.29923008090E+00  0.31517476210E+00  0.10972772001E+01  0.11802080435E+01  0.00000000000E+00 0. -1.
         11    1    3    3    0    0 -0.23601243842E+02 -0.27642994325E+02  0.71363534164E+01  0.37041616953E+02  0.51100000000E-03 0. -1.
        -11    1    3    3    0    0  0.25355829028E+01 -0.70602768645E+01 -0.10298595887E+02  0.12741183915E+02  0.51100000000E-03 0.  1.
        -12    1    3    3    0    0  0.20766430859E+02  0.34388096427E+02  0.20649652700E+01  0.40224991088E+02  0.00000000000E+00 0.  1.
</event>
<event>
 7    1  0.3795708E-015  0.9000774E+02  0.7816164E-02  0.1186339E+00
        -11   -1    0    0    0    0  0.00000000000E+00  0.00000000000E+00  0.45593999997E+02  0.45594000000E+02  0.51100000000E-03 0.  1.
         11   -1    0    0    0    0 -0.00000000000E+00 -0.00000000000E+00 -0.45593999997E+02  0.45594000000E+02  0.51100000000E-03 0. -1.
    9900012    2    1    2    0    0 -0.39049721542E+00  0.11047660777E+01 -0.14144987863E+00  0.90007743998E+02  0.90000005419E+02 0.  0.
         12    1    1    2    0    0  0.39049721542E+00 -0.11047660777E+01  0.14144987863E+00  0.11802560018E+01  0.00000000000E+00 0. -1.
         11    1    3    3    0    0  0.81629132517E+01 -0.57339060457E+01 -0.45736742151E+01  0.10974029678E+02  0.51100000000E-03 0. -1.
        -11    1    3    3    0    0  0.16714816109E+02  0.30001436442E+01  0.35171849283E+02  0.39056944602E+02  0.51100000000E-03 0.  1.
         12    1    3    3    0    0 -0.25268226577E+02  0.38385284792E+01 -0.30739624946E+02  0.39976769717E+02  0.00000000000E+00 0. -1.
</event>
<event>
 7    1  0.3795708E-015  0.9000774E+02  0.7816164E-02  0.1186339E+00
        -11   -1    0    0    0    0  0.00000000000E+00  0.00000000000E+00  0.45593999997E+02  0.45594000000E+02  0.51100000000E-03 0. -1.
         11   -1    0    0    0    0 -0.00000000000E+00 -0.00000000000E+00 -0.45593999997E+02  0.45594000000E+02  0.51100000000E-03 0.  1.
    9900012    2    1    2    0    0 -0.49525999718E+00  0.96463676864E+00 -0.46605620359E+00  0.90007739459E+02  0.90000000820E+02 0.  0.
         12    1    1    2    0    0  0.49525999718E+00 -0.96463676864E+00  0.46605620359E+00  0.11802605412E+01  0.00000000000E+00 0. -1.
         11    1    3    3    0    0  0.59679858472E+01 -0.28884984444E+01  0.67950656670E+01  0.94938504315E+01  0.51100000000E-03 0. -1.
        -11    1    3    3    0    0  0.22327238584E+02  0.32313299729E+02 -0.77206653285E+01  0.40028284943E+02  0.51100000000E-03 0.  1.
         12    1    3    3    0    0 -0.28790484428E+02 -0.28460164516E+02  0.45954345785E+00  0.40485604084E+02  0.00000000000E+00 0. -1.
</event>
<event>
 7    1  0.3795708E-015  0.9000773E+02  0.7816164E-02  0.1186339E+00
        -11   -1    0    0    0    0  0.00000000000E+00  0.00000000000E+00  0.45593999997E+02  0.45594000000E+02  0.51100000000E-03 0. -1.
         11   -1    0    0    0    0 -0.00000000000E+00 -0.00000000000E+00 -0.45593999997E+02  0.45594000000E+02  0.51100000000E-03 0.  1.
    9900012    2    1    2    0    0 -0.72005922661E+00  0.32117926013E+00 -0.87828860214E+00  0.90007732117E+02  0.89999993381E+02 0.  0.
         12    1    1    2    0    0  0.72005922661E+00 -0.32117926013E+00  0.87828860214E+00  0.11802678830E+01  0.00000000000E+00 0. -1.
         11    1    3    3    0    0 -0.32397987584E+02 -0.92686029252E+01  0.67081252332E+01  0.34358922335E+02  0.51100000000E-03 0. -1.
        -11    1    3    3    0    0 -0.11205796835E+02  0.27579407550E+00 -0.73060535666E+00  0.11232975097E+02  0.51100000000E-03 0.  1.
        -12    1    3    3    0    0  0.42883725192E+02  0.93139881098E+01 -0.68558084787E+01  0.44415834685E+02  0.00000000000E+00 0.  1.
</event>
<event>
 7    1  0.3795708E-015  0.9000744E+02  0.7816164E-02  0.1186340E+00
        -11   -1    0    0    0    0  0.00000000000E+00  0.00000000000E+00  0.45593999997E+02  0.45594000000E+02  0.51100000000E-03 0. -1.
         11   -1    0    0    0    0 -0.00000000000E+00 -0.00000000000E+00 -0.45593999997E+02  0.45594000000E+02  0.51100000000E-03 0.  1.
    9900012    2    1    2    0    0  0.24476652798E+00 -0.84121391486E+00 -0.79130916328E+00  0.90007440092E+02  0.89999697501E+02 0.  0.
         12    1    1    2    0    0 -0.24476652798E+00  0.84121391486E+00  0.79130916328E+00  0.11805599077E+01  0.00000000000E+00 0. -1.
         11    1    3    3    0    0 -0.10289359935E+02 -0.37795265153E+02  0.65572073666E+01  0.39715865401E+02  0.51100000000E-03 0. -1.
        -11    1    3    3    0    0  0.15313654418E+02  0.44348104863E+01  0.21276428978E+01  0.16084228929E+02  0.51100000000E-03 0.  1.
        -12    1    3    3    0    0 -0.47795279552E+01  0.32519240752E+02 -0.94761594277E+01  0.34207345762E+02  0.00000000000E+00 0.  1.
</event>
<event>
 7    1  0.3795708E-015  0.9000772E+02  0.7816164E-02  0.1186339E+00
        -11   -1    0    0    0    0  0.00000000000E+00  0.00000000000E+00  0.45593999997E+02  0.45594000000E+02  0.51100000000E-03 0.  1.
         11   -1    0    0    0    0 -0.00000000000E+00 -0.00000000000E+00 -0.45593999997E+02  0.45594000000E+02  0.51100000000E-03 0. -1.
    9900012    2    1    2    0    0  0.88242723321E+00  0.68734170203E+00 -0.37675417195E+00  0.90007720311E+02  0.89999981419E+02 0.  0.
         12    1    1    2    0    0 -0.88242723321E+00 -0.68734170203E+00  0.37675417195E+00  0.11802796886E+01  0.00000000000E+00 0. -1.
         11    1    3    3    0    0  0.34813424579E+01  0.83585716302E+01 -0.21432239791E+00  0.90571187117E+01  0.51100000000E-03 0. -1.
        -11    1    3    3    0    0 -0.29854813782E+02  0.77538745744E+01 -0.26006781994E+02  0.40345819943E+02  0.51100000000E-03 0.  1.
         12    1    3    3    0    0  0.27255898558E+02 -0.15425104503E+02  0.25844350220E+02  0.40604781657E+02  0.00000000000E+00 0. -1.
</event>
<event>
 7    1  0.3795708E-015  0.9000767E+02  0.7816164E-02  0.1186339E+00
        -11   -1    0    0    0    0  0.00000000000E+00  0.00000000000E+00  0.45593999997E+02  0.45594000000E+02  0.51100000000E-03 0. -1.
         11   -1    0    0    0    0 -0.00000000000E+00 -0.00000000000E+00 -0.45593999997E+02  0.45594000000E+02  0.51100000000E-03 0.  1.
    9900012    2    1    2    0    0 -0.10998550897E+01 -0.23728002752E+00  0.35664290877E+00  0.90007670726E+02  0.89999931180E+02 0.  0.
         12    1    1    2    0    0  0.10998550897E+01  0.23728002752E+00 -0.35664290877E+00  0.11803292736E+01  0.00000000000E+00 0. -1.
         11    1    3    3    0    0  0.10974727205E+02  0.30847678331E+02  0.16195343037E+02  0.36528249780E+02  0.51100000000E-03 0. -1.
        -11    1    3    3    0    0  0.89456758670E+01  0.27139969291E+01  0.24685375031E+01  0.96687420957E+01  0.51100000000E-03 0.  1.
        -12    1    3    3    0    0 -0.21020258162E+02 -0.33798955287E+02 -0.18307237632E+02  0.43810678851E+02  0.00000000000E+00 0.  1.
</event>
<event>
 7    1  0.3795708E-015  0.9000768E+02  0.7816164E-02  0.1186339E+00
        -11   -1    0    0    0    0  0.00000000000E+00  0.00000000000E+00  0.45593999997E+02  0.45594000000E+02  0.51100000000E-03 0.  1.
         11   -1    0    0    0    0 -0.00000000000E+00 -0.00000000000E+00 -0.45593999997E+02  0.45594000000E+02  0.51100000000E-03 0. -1.
    9900012    2    1    2    0    0  0.34839921082E+00 -0.98422353336E+00 -0.55051994309E+00  0.90007682169E+02  0.89999942774E+02 0.  0.
         12    1    1    2    0    0 -0.34839921082E+00  0.98422353336E+00  0.55051994309E+00  0.11803178307E+01  0.00000000000E+00 0. -1.
         11    1    3    3    0    0 -0.33398321770E+02 -0.18420616440E+02 -0.16763737158E+02  0.41662811846E+02  0.51100000000E-03 0. -1.
        -11    1    3    3    0    0  0.46396190762E+01  0.50203288157E+01 -0.64683582868E+01  0.94111330762E+01  0.51100000000E-03 0.  1.
        -12    1    3    3    0    0  0.29107101905E+02  0.12416064091E+02  0.22681575502E+02  0.38933737248E+02  0.00000000000E+00 0.  1.
</event>
<event>
 7    1  0.3795708E-015  0.9000776E+02  0.7816164E-02  0.1186339E+00
        -11   -1    0    0    0    0  0.00000000000E+00  0.00000000000E+00  0.45593999997E+02  0.45594000000E+02  0.51100000000E-03 0. -1.
         11   -1    0    0    0    0 -0.00000000000E+00 -0.00000000000E+00 -0.45593999997E+02  0.45594000000E+02  0.51100000000E-03 0.  1.
    9900012    2    1    2    0    0 -0.66345806330E+00 -0.92876768192E+00 -0.30030884848E+00  0.90007757901E+02  0.90000019505E+02 0.  0.
         12    1    1    2    0    0  0.66345806330E+00  0.92876768192E+00  0.30030884848E+00  0.11802420994E+01  0.00000000000E+00 0. -1.
         11    1    3    3    0    0  0.41314878428E+01  0.88489101214E+01  0.57658949430E+00  0.97828859667E+01  0.51100000000E-03 0. -1.
        -11    1    3    3    0    0  0.25720973865E+02 -0.26153017135E+02 -0.18812087558E+02  0.41224306427E+02  0.51100000000E-03 0.  1.
         12    1    3    3    0    0 -0.30515919771E+02  0.16375339331E+02  0.17935189215E+02  0.39000565507E+02  0.00000000000E+00 0. -1.
</event>
<event>
 7    1  0.3795708E-015  0.9000779E+02  0.7816164E-02  0.1186339E+00
        -11   -1    0    0    0    0  0.00000000000E+00  0.00000000000E+00  0.45593999997E+02  0.45594000000E+02  0.51100000000E-03 0. -1.
         11   -1    0    0    0    0 -0.00000000000E+00 -0.00000000000E+00 -0.45593999997E+02  0.45594000000E+02  0.51100000000E-03 0.  1.
    9900012    2    1    2    0    0  0.50127154638E-01 -0.11751598493E+01  0.96917721501E-01  0.90007785423E+02  0.90000047391E+02 0.  0.
         12    1    1    2    0    0 -0.50127154638E-01  0.11751598493E+01 -0.96917721501E-01  0.11802145770E+01  0.00000000000E+00 0. -1.
         11    1    3    3    0    0  0.30653962557E+02  0.96777160571E+01  0.24083217800E+02  0.40166217004E+02  0.51100000000E-03 0. -1.
        -11    1    3    3    0    0 -0.20621953205E+01  0.81940219677E+01 -0.92794106713E+00  0.85003364894E+01  0.51100000000E-03 0.  1.
        -12    1    3    3    0    0 -0.28541640082E+02 -0.19046897874E+02 -0.23058359011E+02  0.41341231930E+02  0.00000000000E+00 0.  1.
</event>
<event>
 7    1  0.3795708E-015  0.9000779E+02  0.7816164E-02  0.1186339E+00
        -11   -1    0    0    0    0  0.00000000000E+00  0.00000000000E+00  0.45593999997E+02  0.45594000000E+02  0.51100000000E-03 0.  1.
         11   -1    0    0    0    0 -0.00000000000E+00 -0.00000000000E+00 -0.45593999997E+02  0.45594000000E+02  0.51100000000E-03 0. -1.
    9900012    2    1    2    0    0  0.49397181306E+00  0.94354041748E+00  0.50854770284E+00  0.90007789240E+02  0.90000051258E+02 0.  0.
         12    1    1    2    0    0 -0.49397181306E+00 -0.94354041748E+00 -0.50854770284E+00  0.11802107598E+01  0.00000000000E+00 0. -1.
         11    1    3    3    0    0 -0.33545627331E+02 -0.14868690169E+02 -0.17983591547E+02  0.40863145076E+02  0.51100000000E-03 0. -1.
        -11    1    3    3    0    0  0.15152397036E+01 -0.40644846990E+01  0.88054543674E+01  0.98159061785E+01  0.51100000000E-03 0.  1.
        -12    1    3    3    0    0  0.32524359440E+02  0.19876715285E+02  0.96866848823E+01  0.39328737985E+02  0.00000000000E+00 0.  1.
</event>
<event>
 7    1  0.3795708E-015  0.9000772E+02  0.7816164E-02  0.1186339E+00
        -11   -1    0    0    0    0  0.00000000000E+00  0.00000000000E+00  0.45593999997E+02  0.45594000000E+02  0.51100000000E-03 0. -1.
         11   -1    0    0    0    0 -0.00000000000E+00 -0.00000000000E+00 -0.45593999997E+02  0.45594000000E+02  0.51100000000E-03 0.  1.
    9900012    2    1    2    0    0 -0.58065568638E-01  0.10742952806E+01 -0.48536884644E+00  0.90007718306E+02  0.89999979388E+02 0.  0.
         12    1    1    2    0    0  0.58065568638E-01 -0.10742952806E+01  0.48536884644E+00  0.11802816940E+01  0.00000000000E+00 0. -1.
         11    1    3    3    0    0  0.12933035864E+02  0.23039381137E+02  0.23151234064E+02  0.35129135184E+02  0.51100000000E-03 0. -1.
        -11    1    3    3    0    0  0.33059171073E+01  0.30163487488E+01  0.93746509560E+01  0.10388047386E+02  0.51100000000E-03 0.  1.
        -12    1    3    3    0    0 -0.16297018540E+02 -0.24981434605E+02 -0.33011253866E+02  0.44490535736E+02  0.00000000000E+00 0.  1.
</event>
<event>
 7    1  0.3795708E-015  0.9000775E+02  0.7816164E-02  0.1186339E+00
        -11   -1    0    0    0    0  0.00000000000E+00  0.00000000000E+00  0.45593999997E+02  0.45594000000E+02  0.51100000000E-03 0.  1.
         11   -1    0    0    0    0 -0.00000000000E+00 -0.00000000000E+00 -0.45593999997E+02  0.45594000000E+02  0.51100000000E-03 0. -1.
    9900012    2    1    2    0    0 -0.95279620405E+00  0.26957506794E+00  0.64226292453E+00  0.90007748761E+02  0.90000010244E+02 0.  0.
         12    1    1    2    0    0  0.95279620405E+00 -0.26957506794E+00 -0.64226292453E+00  0.11802512393E+01  0.00000000000E+00 0. -1.
         11    1    3    3    0    0  0.65640974548E+01 -0.16679023618E+02 -0.39246612597E+02  0.43145959311E+02  0.51100000000E-03 0. -1.
        -11    1    3    3    0    0  0.26622486077E+01 -0.15681536469E+01  0.83079204038E+01  0.88638713442E+01  0.51100000000E-03 0.  1.
        -12    1    3    3    0    0 -0.10179142267E+02  0.18516752333E+02  0.31580955118E+02  0.37997918106E+02  0.00000000000E+00 0.  1.
</event>
<event>
 7    1  0.3795708E-015  0.9000781E+02  0.7816164E-02  0.1186339E+00
        -11   -1    0    0    0    0  0.00000000000E+00  0.00000000000E+00  0.45593999997E+02  0.45594000000E+02  0.51100000000E-03 0. -1.
         11   -1    0    0    0    0 -0.00000000000E+00 -0.00000000000E+00 -0.45593999997E+02  0.45594000000E+02  0.51100000000E-03 0.  1.
    9900012    2    1    2    0    0  0.52852951493E+00  0.53423846467E+00 -0.91000142526E+00  0.90007806465E+02  0.90000068711E+02 0.  0.
         12    1    1    2    0    0 -0.52852951493E+00 -0.53423846467E+00  0.91000142526E+00  0.11801935347E+01  0.00000000000E+00 0. -1.
         11    1    3    3    0    0  0.57283013587E+01  0.17414495662E+01  0.11134185547E+02  0.12641842077E+02  0.51100000000E-03 0. -1.
        -11    1    3    3    0    0  0.16401118763E+02  0.16473348889E+02  0.22906978686E+02  0.32635832962E+02  0.51100000000E-03 0.  1.
         12    1    3    3    0    0 -0.21600890606E+02 -0.17680559991E+02 -0.34951165658E+02  0.44730131427E+02  0.00000000000E+00 0. -1.
</event>
<event>
 7    1  0.3795708E-015  0.9000783E+02  0.7816164E-02  0.1186339E+00
        -11   -1    0    0    0    0  0.00000000000E+00  0.00000000000E+00  0.45593999997E+02  0.45594000000E+02  0.51100000000E-03 0. -1.
         11   -1    0    0    0    0 -0.00000000000E+00 -0.00000000000E+00 -0.45593999997E+02  0.45594000000E+02  0.51100000000E-03 0.  1.
    9900012    2    1    2    0    0 -0.40691565228E+00 -0.89182377085E+00 -0.65716380718E+00  0.90007832954E+02  0.90000095549E+02 0.  0.
         12    1    1    2    0    0  0.40691565228E+00  0.89182377085E+00  0.65716380718E+00  0.11801670457E+01  0.00000000000E+00 0. -1.
         11    1    3    3    0    0  0.41658367774E+01 -0.60072020468E+01 -0.69128431234E+01  0.10061216268E+02  0.51100000000E-03 0. -1.
        -11    1    3    3    0    0  0.33556782551E+02 -0.13335065777E+02  0.98695126131E+01  0.37433793742E+02  0.51100000000E-03 0.  1.
         12    1    3    3    0    0 -0.38129534981E+02  0.18450444053E+02 -0.36138332968E+01  0.42512822944E+02  0.00000000000E+00 0. -1.
</event>
<event>
 7    1  0.3795708E-015  0.9000763E+02  0.7816164E-02  0.1186339E+00
        -11   -1    0    0    0    0  0.00000000000E+00  0.00000000000E+00  0.45593999997E+02  0.45594000000E+02  0.51100000000E-03 0.  1.
         11   -1    0    0    0    0 -0.00000000000E+00 -0.00000000000E+00 -0.45593999997E+02  0.45594000000E+02  0.51100000000E-03 0. -1.
    9900012    2    1    2    0    0 -0.32847274315E+00  0.61317372006E+00  0.95362602366E+00  0.90007627624E+02  0.89999887508E+02 0.  0.
         12    1    1    2    0    0  0.32847274315E+00 -0.61317372006E+00 -0.95362602366E+00  0.11803723764E+01  0.00000000000E+00 0. -1.
         11    1    3    3    0    0 -0.41395966426E+01  0.14286168054E+02  0.77223529412E-01  0.14874031793E+02  0.51100000000E-03 0. -1.
        -11    1    3    3    0    0 -0.26749835429E+02 -0.18128942435E+02  0.20754582460E+02  0.38405272328E+02  0.51100000000E-03 0.  1.
         12    1    3    3    0    0  0.30560959328E+02  0.44559481002E+01 -0.19878179966E+02  0.36728323502E+02  0.00000000000E+00 0. -1.
</event>
<event>
 7    1  0.3795708E-015  0.9000774E+02  0.7816164E-02  0.1186339E+00
        -11   -1    0    0    0    0  0.00000000000E+00  0.00000000000E+00  0.45593999997E+02  0.45594000000E+02  0.51100000000E-03 0. -1.
         11   -1    0    0    0    0 -0.00000000000E+00 -0.00000000000E+00 -0.45593999997E+02  0.45594000000E+02  0.51100000000E-03 0.  1.
    9900012    2    1    2    0    0 -0.18967024179E+00 -0.43917823633E+00 -0.10789683871E+01  0.90007735155E+02  0.89999996459E+02 0.  0.
         12    1    1    2    0    0  0.18967024179E+00  0.43917823633E+00  0.10789683871E+01  0.11802648450E+01  0.00000000000E+00 0. -1.
         11    1    3    3    0    0 -0.24741179317E+01  0.11628843788E+01 -0.95790473991E+01  0.99615113790E+01  0.51100000000E-03 0. -1.
        -11    1    3    3    0    0  0.17754967703E+02 -0.21342357707E+02 -0.25567984307E+02  0.37741978385E+02  0.51100000000E-03 0.  1.
         12    1    3    3    0    0 -0.15470520013E+02  0.19740295092E+02  0.34068063319E+02  0.42304245391E+02  0.00000000000E+00 0. -1.
</event>
<event>
 7    1  0.3795708E-015  0.9000769E+02  0.7816164E-02  0.1186339E+00
        -11   -1    0    0    0    0  0.00000000000E+00  0.00000000000E+00  0.45593999997E+02  0.45594000000E+02  0.51100000000E-03 0.  1.
         11   -1    0    0    0    0 -0.00000000000E+00 -0.00000000000E+00 -0.45593999997E+02  0.45594000000E+02  0.51100000000E-03 0. -1.
    9900012    2    1    2    0    0  0.96874679864E+00 -0.65293416348E+00  0.16832310908E+00  0.90007692391E+02  0.89999953131E+02 0.  0.
         12    1    1    2    0    0 -0.96874679864E+00  0.65293416348E+00 -0.16832310908E+00  0.11803076085E+01  0.00000000000E+00 0. -1.
         11    1    3    3    0    0  0.11225044821E+02 -0.15082896781E+02 -0.34594281431E+02  0.39373337610E+02  0.51100000000E-03 0. -1.
        -11    1    3    3    0    0 -0.61583049920E+01 -0.41523539644E+01 -0.32635333271E+01  0.81127932217E+01  0.51100000000E-03 0.  1.
        -12    1    3    3    0    0 -0.40979930306E+01  0.18582316582E+02  0.38026137867E+02  0.42521561560E+02  0.00000000000E+00 0.  1.
</event>
<event>
 7    1  0.3795708E-015  0.9000780E+02  0.7816164E-02  0.1186339E+00
        -11   -1    0    0    0    0  0.00000000000E+00  0.00000000000E+00  0.45593999997E+02  0.45594000000E+02  0.51100000000E-03 0. -1.
         11   -1    0    0    0    0 -0.00000000000E+00 -0.00000000000E+00 -0.45593999997E+02  0.45594000000E+02  0.51100000000E-03 0.  1.
    9900012    2    1    2    0    0  0.20912968059E+00  0.11322132762E+01  0.25928742387E+00  0.90007799977E+02  0.90000062137E+02 0.  0.
         12    1    1    2    0    0 -0.20912968059E+00 -0.11322132762E+01 -0.25928742387E+00  0.11802000230E+01  0.00000000000E+00 0. -1.
         11    1    3    3    0    0 -0.23967066295E+02  0.78736235857E+01  0.22919628686E+01  0.25331152939E+02  0.51100000000E-03 0. -1.
        -11    1    3    3    0    0 -0.55506649984E+01  0.20877032647E+02  0.77271568477E+01  0.22942740186E+02  0.51100000000E-03 0.  1.
         12    1    3    3    0    0  0.29726860974E+02 -0.27618442956E+02 -0.97598322924E+01  0.41733906851E+02  0.00000000000E+00 0. -1.
</event>
<event>
 7    1  0.3795708E-015  0.9000773E+02  0.7816164E-02  0.1186339E+00
        -11   -1    0    0    0    0  0.00000000000E+00  0.00000000000E+00  0.45593999997E+02  0.45594000000E+02  0.51100000000E-03 0.  1.
         11   -1    0    0    0    0 -0.00000000000E+00 -0.00000000000E+00 -0.45593999997E+02  0.45594000000E+02  0.51100000000E-03 0. -1.
    9900012    2    1    2    0    0 -0.11355285437E+01  0.30708360466E+00  0.96494981241E-01  0.90007730245E+02  0.89999991484E+02 0.  0.
         12    1    1    2    0    0  0.11355285437E+01 -0.30708360466E+00 -0.96494981241E-01  0.11802697553E+01  0.00000000000E+00 0. -1.
         11    1    3    3    0    0  0.89859422271E+01 -0.69438063088E+01  0.58115245637E+01  0.12756857833E+02  0.51100000000E-03 0. -1.
        -11    1    3    3    0    0  0.18264662668E+01 -0.28392680638E+02  0.17178991937E+02  0.33235493935E+02  0.51100000000E-03 0.  1.
         12    1    3    3    0    0 -0.11947937038E+02  0.35643570552E+02 -0.22894021519E+02  0.44015378477E+02  0.00000000000E+00 0. -1.
</event>
<event>
 7    1  0.3795708E-015  0.9000790E+02  0.7816164E-02  0.1186339E+00
        -11   -1    0    0    0    0  0.00000000000E+00  0.00000000000E+00  0.45593999997E+02  0.45594000000E+02  0.51100000000E-03 0.  1.
         11   -1    0    0    0    0 -0.00000000000E+00 -0.00000000000E+00 -0.45593999997E+02  0.45594000000E+02  0.51100000000E-03 0. -1.
    9900012    2    1    2    0    0 -0.11069073640E+01 -0.36729178266E+00 -0.18025502974E+00  0.90007898715E+02  0.90000162178E+02 0.  0.
         12    1    1    2    0    0  0.11069073640E+01  0.36729178266E+00  0.18025502974E+00  0.11801012846E+01  0.00000000000E+00 0. -1.
         11    1    3    3    0    0 -0.31018738045E+01 -0.35799029148E+02 -0.18115486087E+02  0.40241308943E+02  0.51100000000E-03 0. -1.
        -11    1    3    3    0    0 -0.10052091133E+02  0.14510144485E+01  0.20114435493E+01  0.10353544537E+02  0.51100000000E-03 0.  1.
        -12    1    3    3    0    0  0.12047057573E+02  0.33980722917E+02  0.15923787508E+02  0.39413045235E+02  0.00000000000E+00 0.  1.
</event>
<event>
 7    1  0.3795708E-015  0.9000859E+02  0.7816164E-02  0.1186337E+00
        -11   -1    0    0    0    0  0.00000000000E+00  0.00000000000E+00  0.45593999997E+02  0.45594000000E+02  0.51100000000E-03 0. -1.
         11   -1    0    0    0    0 -0.00000000000E+00 -0.00000000000E+00 -0.45593999997E+02  0.45594000000E+02  0.51100000000E-03 0.  1.
    9900012    2    1    2    0    0  0.17145663534E+00  0.71366256181E+00 -0.92320046572E+00  0.90008588821E+02  0.90000861389E+02 0.  0.
         12    1    1    2    0    0 -0.17145663534E+00 -0.71366256181E+00  0.92320046572E+00  0.11794111793E+01  0.00000000000E+00 0. -1.
         11    1    3    3    0    0  0.19251223525E+02 -0.24507856319E+02 -0.22785353970E+02  0.38605919033E+02  0.51100000000E-03 0. -1.
        -11    1    3    3    0    0  0.58470690707E+01 -0.34823070496E+01  0.89703247292E+01  0.11259724913E+02  0.51100000000E-03 0.  1.
        -12    1    3    3    0    0 -0.24926835961E+02  0.28703825931E+02  0.12891828775E+02  0.40142944875E+02  0.00000000000E+00 0.  1.
</event>
<event>
 7    1  0.3795708E-015  0.9000784E+02  0.7816164E-02  0.1186339E+00
        -11   -1    0    0    0    0  0.00000000000E+00  0.00000000000E+00  0.45593999997E+02  0.45594000000E+02  0.51100000000E-03 0.  1.
         11   -1    0    0    0    0 -0.00000000000E+00 -0.00000000000E+00 -0.45593999997E+02  0.45594000000E+02  0.51100000000E-03 0. -1.
    9900012    2    1    2    0    0 -0.10087182549E+01  0.24519600537E+00  0.56137957964E+00  0.90007838727E+02  0.90000101398E+02 0.  0.
         12    1    1    2    0    0  0.10087182549E+01 -0.24519600537E+00 -0.56137957964E+00  0.11801612734E+01  0.00000000000E+00 0. -1.
         11    1    3    3    0    0 -0.22746120085E+02 -0.12920879161E+02 -0.26112194805E+02  0.36961896800E+02  0.51100000000E-03 0. -1.
        -11    1    3    3    0    0 -0.48892363932E+01 -0.89441691030E+01  0.16232411559E+01  0.10321710399E+02  0.51100000000E-03 0.  1.
        -12    1    3    3    0    0  0.26626638224E+02  0.22110244269E+02  0.25050333229E+02  0.42724231528E+02  0.00000000000E+00 0.  1.
</event>
<event>
 7    1  0.3795708E-015  0.9000772E+02  0.7816164E-02  0.1186339E+00
        -11   -1    0    0    0    0  0.00000000000E+00  0.00000000000E+00  0.45593999997E+02  0.45594000000E+02  0.51100000000E-03 0. -1.
         11   -1    0    0    0    0 -0.00000000000E+00 -0.00000000000E+00 -0.45593999997E+02  0.45594000000E+02  0.51100000000E-03 0.  1.
    9900012    2    1    2    0    0 -0.10800604438E+01  0.10836115132E+00 -0.46345476611E+00  0.90007719092E+02  0.89999980184E+02 0.  0.
         12    1    1    2    0    0  0.10800604438E+01 -0.10836115132E+00  0.46345476611E+00  0.11802809079E+01  0.00000000000E+00 0. -1.
         11    1    3    3    0    0  0.38709839478E+01  0.31034787432E+01  0.74096639510E+01  0.89173548299E+01  0.51100000000E-03 0. -1.
        -11    1    3    3    0    0  0.79644468692E+01  0.14004420009E+02 -0.39655441637E+02  0.42803156956E+02  0.51100000000E-03 0.  1.
         12    1    3    3    0    0 -0.12915491261E+02 -0.16999537601E+02  0.31782322919E+02  0.38287207306E+02  0.00000000000E+00 0. -1.
</event>
<event>
 7    1  0.3795708E-015  0.9000745E+02  0.7816164E-02  0.1186340E+00
        -11   -1    0    0    0    0  0.00000000000E+00  0.00000000000E+00  0.45593999997E+02  0.45594000000E+02  0.51100000000E-03 0.  1.
         11   -1    0    0    0    0 -0.00000000000E+00 -0.00000000000E+00 -0.45593999997E+02  0.45594000000E+02  0.51100000000E-03 0. -1.
    9900012    2    1    2    0    0 -0.10482018071E+01 -0.51930729688E+00 -0.15904924743E+00  0.90007447689E+02  0.89999705198E+02 0.  0.
         12    1    1    2    0    0  0.10482018071E+01  0.51930729688E+00  0.15904924743E+00  0.11805523114E+01  0.00000000000E+00 0. -1.
         11    1    3    3    0    0  0.96978969475E+00 -0.65422580334E+01 -0.70954479607E+01  0.96998460942E+01  0.51100000000E-03 0. -1.
        -11    1    3    3    0    0 -0.19339466424E+02 -0.31281124897E+02 -0.58444054716E+01  0.37238163381E+02  0.51100000000E-03 0.  1.
         12    1    3    3    0    0  0.17321474923E+02  0.37304075634E+02  0.12780804185E+02  0.43069438213E+02  0.00000000000E+00 0. -1.
</event>
<event>
 7    1  0.3795708E-015  0.9000763E+02  0.7816164E-02  0.1186339E+00
        -11   -1    0    0    0    0  0.00000000000E+00  0.00000000000E+00  0.45593999997E+02  0.45594000000E+02  0.51100000000E-03 0.  1.
         11   -1    0    0    0    0 -0.00000000000E+00 -0.00000000000E+00 -0.45593999997E+02  0.45594000000E+02  0.51100000000E-03 0. -1.
    9900012    2    1    2    0    0 -0.27830248525E+00 -0.93292552923E+00  0.66742751493E+00  0.90007634885E+02  0.89999894866E+02 0.  0.
         12    1    1    2    0    0  0.27830248525E+00  0.93292552923E+00 -0.66742751493E+00  0.11803651147E+01  0.00000000000E+00 0. -1.
         11    1    3    3    0    0  0.32401305370E+01  0.65559901742E+01  0.32826573180E+01  0.80159398943E+01  0.51100000000E-03 0. -1.
        -11    1    3    3    0    0  0.38667054571E+02 -0.89518486653E+01 -0.26896120381E+01  0.39780783261E+02  0.51100000000E-03 0.  1.
         12    1    3    3    0    0 -0.42185487593E+02  0.14629329619E+01  0.74382235006E-01  0.42210911730E+02  0.00000000000E+00 0. -1.
</event>
<event>
 7    1  0.3795708E-015  0.9000756E+02  0.7816164E-02  0.1186339E+00
        -11   -1    0    0    0    0  0.00000000000E+00  0.00000000000E+00  0.45593999997E+02  0.45594000000E+02  0.51100000000E-03 0.  1.
         11   -1    0    0    0    0 -0.00000000000E+00 -0.00000000000E+00 -0.45593999997E+02  0.45594000000E+02  0.51100000000E-03 0. -1.
    9900012    2    1    2    0    0  0.22702743323E+00 -0.10990957544E+01  0.36591989096E+00  0.90007555042E+02  0.89999813968E+02 0.  0.
         12    1    1    2    0    0 -0.22702743323E+00  0.10990957544E+01 -0.36591989096E+00  0.11804449582E+01  0.00000000000E+00 0. -1.
         11    1    3    3    0    0  0.12280963318E+02 -0.18361244812E+01 -0.11969481606E+02  0.17247083907E+02  0.51100000000E-03 0. -1.
        -11    1    3    3    0    0  0.21466552723E+02 -0.17439652216E+02 -0.89756883061E+01  0.29077780796E+02  0.51100000000E-03 0.  1.
         12    1    3    3    0    0 -0.33520488608E+02  0.18176680942E+02  0.21311089803E+02  0.43682690338E+02  0.00000000000E+00 0. -1.
</event>
<event>
 7    1  0.3795708E-015  0.9000773E+02  0.7816164E-02  0.1186339E+00
        -11   -1    0    0    0    0  0.00000000000E+00  0.00000000000E+00  0.45593999997E+02  0.45594000000E+02  0.51100000000E-03 0. -1.
         11   -1    0    0    0    0 -0.00000000000E+00 -0.00000000000E+00 -0.45593999997E+02  0.45594000000E+02  0.51100000000E-03 0.  1.
    9900012    2    1    2    0    0 -0.26867378990E+00  0.36955612329E-01 -0.11486920013E+01  0.90007726881E+02  0.89999988075E+02 0.  0.
         12    1    1    2    0    0  0.26867378990E+00 -0.36955612329E-01  0.11486920013E+01  0.11802731194E+01  0.00000000000E+00 0. -1.
         11    1    3    3    0    0  0.81736403316E+01  0.16719850223E+01 -0.34257336114E+01  0.90188458919E+01  0.51100000000E-03 0. -1.
        -11    1    3    3    0    0  0.30721592009E+02 -0.10292197596E+02 -0.16886936936E+02  0.36536477475E+02  0.51100000000E-03 0.  1.
         12    1    3    3    0    0 -0.39163906131E+02  0.86571681856E+01  0.19163978546E+02  0.44452403514E+02  0.00000000000E+00 0. -1.
</event>
<event>
 7    1  0.3795708E-015  0.9000775E+02  0.7816164E-02  0.1186339E+00
        -11   -1    0    0    0    0  0.00000000000E+00  0.00000000000E+00  0.45593999997E+02  0.45594000000E+02  0.51100000000E-03 0.  1.
         11   -1    0    0    0    0 -0.00000000000E+00 -0.00000000000E+00 -0.45593999997E+02  0.45594000000E+02  0.51100000000E-03 0. -1.
    9900012    2    1    2    0    0  0.48251198651E+00  0.10771077709E+01  0.33583166318E-02  0.90007749922E+02  0.90000011421E+02 0.  0.
         12    1    1    2    0    0 -0.48251198651E+00 -0.10771077709E+01 -0.33583166318E-02  0.11802500775E+01  0.00000000000E+00 0. -1.
         11    1    3    3    0    0  0.32109136869E+01  0.11159020725E+01  0.85127320685E+01  0.91663412369E+01  0.51100000000E-03 0. -1.
        -11    1    3    3    0    0  0.58251415801E+01  0.18041537127E+02  0.31125957389E+02  0.36445226847E+02  0.51100000000E-03 0.  1.
         12    1    3    3    0    0 -0.85535432805E+01 -0.18080331428E+02 -0.39635331141E+02  0.44396181838E+02  0.00000000000E+00 0. -1.
</event>
<event>
 7    1  0.3795708E-015  0.9000778E+02  0.7816164E-02  0.1186339E+00
        -11   -1    0    0    0    0  0.00000000000E+00  0.00000000000E+00  0.45593999997E+02  0.45594000000E+02  0.51100000000E-03 0.  1.
         11   -1    0    0    0    0 -0.00000000000E+00 -0.00000000000E+00 -0.45593999997E+02  0.45594000000E+02  0.51100000000E-03 0. -1.
    9900012    2    1    2    0    0 -0.69696582092E+00  0.64515957812E+00  0.70066482508E+00  0.90007778227E+02  0.90000040099E+02 0.  0.
         12    1    1    2    0    0  0.69696582092E+00 -0.64515957812E+00 -0.70066482508E+00  0.11802217732E+01  0.00000000000E+00 0. -1.
         11    1    3    3    0    0 -0.71198659393E+01  0.19968702181E+02 -0.16043618479E+02  0.26586448653E+02  0.51100000000E-03 0. -1.
        -11    1    3    3    0    0  0.21938203079E+02  0.12756501473E+02  0.47221770964E+01  0.25813020764E+02  0.51100000000E-03 0.  1.
         12    1    3    3    0    0 -0.15515302961E+02 -0.32080044076E+02  0.12022106208E+02  0.37608308810E+02  0.00000000000E+00 0. -1.
</event>
<event>
 7    1  0.3795708E-015  0.9000789E+02  0.7816164E-02  0.1186339E+00
        -11   -1    0    0    0    0  0.00000000000E+00  0.00000000000E+00  0.45593999997E+02  0.45594000000E+02  0.51100000000E-03 0.  1.
         11   -1    0    0    0    0 -0.00000000000E+00 -0.00000000000E+00 -0.45593999997E+02  0.45594000000E+02  0.51100000000E-03 0. -1.
    9900012    2    1    2    0    0 -0.69989162954E+00  0.20819464939E+00  0.92707014802E+00  0.90007893071E+02  0.90000156459E+02 0.  0.
         12    1    1    2    0    0  0.69989162954E+00 -0.20819464939E+00 -0.92707014802E+00  0.11801069293E+01  0.00000000000E+00 0. -1.
         11    1    3    3    0    0  0.83214989806E+01 -0.35640193375E+01  0.49100861526E+00  0.90659069510E+01  0.51100000000E-03 0. -1.
        -11    1    3    3    0    0 -0.22512271893E+02 -0.32053705516E+02 -0.11534113415E+02  0.40832318029E+02  0.51100000000E-03 0.  1.
         12    1    3    3    0    0  0.13490881283E+02  0.35825919503E+02  0.11970174948E+02  0.40109668090E+02  0.00000000000E+00 0. -1.
</event>
<event>
 7    1  0.3795708E-015  0.9000776E+02  0.7816164E-02  0.1186339E+00
        -11   -1    0    0    0    0  0.00000000000E+00  0.00000000000E+00  0.45593999997E+02  0.45594000000E+02  0.51100000000E-03 0.  1.
         11   -1    0    0    0    0 -0.00000000000E+00 -0.00000000000E+00 -0.45593999997E+02  0.45594000000E+02  0.51100000000E-03 0. -1.
    9900012    2    1    2    0    0 -0.82433172420E+00 -0.84439554478E+00  0.20768783569E-01  0.90007763596E+02  0.90000025275E+02 0.  0.
         12    1    1    2    0    0  0.82433172420E+00  0.84439554478E+00 -0.20768783569E-01  0.11802364043E+01  0.00000000000E+00 0. -1.
         11    1    3    3    0    0  0.59002419830E+01  0.16652168806E+01  0.62542973441E+01  0.87579699843E+01  0.51100000000E-03 0. -1.
        -11    1    3    3    0    0  0.16349481516E+02  0.29725297081E+02  0.14050653470E+02  0.36719472975E+02  0.51100000000E-03 0.  1.
         12    1    3    3    0    0 -0.23074055223E+02 -0.32234909506E+02 -0.20284182031E+02  0.44530320636E+02  0.00000000000E+00 0. -1.
</event>
<event>
 7    1  0.3795708E-015  0.9000773E+02  0.7816164E-02  0.1186339E+00
        -11   -1    0    0    0    0  0.00000000000E+00  0.00000000000E+00  0.45593999997E+02  0.45594000000E+02  0.51100000000E-03 0. -1.
         11   -1    0    0    0    0 -0.00000000000E+00 -0.00000000000E+00 -0.45593999997E+02  0.45594000000E+02  0.51100000000E-03 0.  1.
    9900012    2    1    2    0    0 -0.55869835590E+00  0.68601388485E+00  0.78119692777E+00  0.90007734122E+02  0.89999995412E+02 0.  0.
         12    1    1    2    0    0  0.55869835590E+00 -0.68601388485E+00 -0.78119692777E+00  0.11802658781E+01  0.00000000000E+00 0. -1.
         11    1    3    3    0    0 -0.33762829195E+01 -0.39961449779E+01 -0.10126005958E+02  0.11397563686E+02  0.51100000000E-03 0. -1.
        -11    1    3    3    0    0  0.52438424857E+01  0.18981203793E+02 -0.29618490741E+02  0.35567386402E+02  0.51100000000E-03 0.  1.
         12    1    3    3    0    0 -0.24262579221E+01 -0.14299044930E+02  0.40525693627E+02  0.43042784034E+02  0.00000000000E+00 0. -1.
</event>
<event>
 7    1  0.3795708E-015  0.9000819E+02  0.7816164E-02  0.1186338E+00
        -11   -1    0    0    0    0  0.00000000000E+00  0.00000000000E+00  0.45593999997E+02  0.45594000000E+02  0.51100000000E-03 0. -1.
         11   -1    0    0    0    0 -0.00000000000E+00 -0.00000000000E+00 -0.45593999997E+02  0.45594000000E+02  0.51100000000E-03 0.  1.
    9900012    2    1    2    0    0 -0.59232441287E+00  0.10192608412E+01 -0.46900349042E-01  0.90008194713E+02  0.90000462082E+02 0.  0.
         12    1    1    2    0    0  0.59232441287E+00 -0.10192608412E+01  0.46900349042E-01  0.11798052870E+01  0.00000000000E+00 0. -1.
         11    1    3    3    0    0  0.77940900137E+01  0.51694676154E+01  0.25249887961E+00  0.93560136016E+01  0.51100000000E-03 0. -1.
        -11    1    3    3    0    0  0.49425452469E+01  0.48266914915E+01 -0.38549399298E+02  0.39163527557E+02  0.51100000000E-03 0.  1.
         12    1    3    3    0    0 -0.13328959673E+02 -0.89768982657E+01  0.38250000069E+02  0.41488653554E+02  0.00000000000E+00 0. -1.
</event>
<event>
 7    1  0.3795708E-015  0.9000776E+02  0.7816164E-02  0.1186339E+00
        -11   -1    0    0    0    0  0.00000000000E+00  0.00000000000E+00  0.45593999997E+02  0.45594000000E+02  0.51100000000E-03 0.  1.
         11   -1    0    0    0    0 -0.00000000000E+00 -0.00000000000E+00 -0.45593999997E+02  0.45594000000E+02  0.51100000000E-03 0. -1.
    9900012    2    1    2    0    0 -0.20029546553E+00  0.87148973384E+00  0.77029078476E+00  0.90007762514E+02  0.90000024179E+02 0.  0.
         12    1    1    2    0    0  0.20029546553E+00 -0.87148973384E+00 -0.77029078476E+00  0.11802374858E+01  0.00000000000E+00 0. -1.
         11    1    3    3    0    0  0.49977618573E+01  0.64977562456E+01 -0.33718731336E+01  0.88638585559E+01  0.51100000000E-03 0. -1.
        -11    1    3    3    0    0 -0.10268686534E+01  0.17180277478E+02  0.37071180177E+02  0.40871613541E+02  0.51100000000E-03 0.  1.
         12    1    3    3    0    0 -0.41711886694E+01 -0.22806543990E+02 -0.32929016259E+02  0.40272290417E+02  0.00000000000E+00 0. -1.
</event>
<event>
 7    1  0.3795708E-015  0.9000752E+02  0.7816164E-02  0.1186339E+00
        -11   -1    0    0    0    0  0.00000000000E+00  0.00000000000E+00  0.45593999997E+02  0.45594000000E+02  0.51100000000E-03 0.  1.
         11   -1    0    0    0    0 -0.00000000000E+00 -0.00000000000E+00 -0.45593999997E+02  0.45594000000E+02  0.51100000000E-03 0. -1.
    9900012    2    1    2    0    0 -0.17693404678E+00 -0.10862243105E+01  0.42701033981E+00  0.90007522664E+02  0.89999781163E+02 0.  0.
         12    1    1    2    0    0  0.17693404678E+00  0.10862243105E+01 -0.42701033981E+00  0.11804773356E+01  0.00000000000E+00 0. -1.
         11    1    3    3    0    0  0.78872072103E+01 -0.16883274946E+01 -0.25306490071E+01  0.84535597216E+01  0.51100000000E-03 0. -1.
        -11    1    3    3    0    0 -0.38591958625E+02 -0.10478870871E+02 -0.16980697587E+02  0.43445254011E+02  0.51100000000E-03 0.  1.
         12    1    3    3    0    0  0.30527817368E+02  0.11080974055E+02  0.19938356934E+02  0.38108708932E+02  0.00000000000E+00 0. -1.
</event>
<event>
 7    1  0.3795708E-015  0.9000794E+02  0.7816164E-02  0.1186339E+00
        -11   -1    0    0    0    0  0.00000000000E+00  0.00000000000E+00  0.45593999997E+02  0.45594000000E+02  0.51100000000E-03 0.  1.
         11   -1    0    0    0    0 -0.00000000000E+00 -0.00000000000E+00 -0.45593999997E+02  0.45594000000E+02  0.51100000000E-03 0. -1.
    9900012    2    1    2    0    0 -0.97255083353E+00 -0.62998805784E+00  0.22316422875E+00  0.90007939684E+02  0.90000203687E+02 0.  0.
         12    1    1    2    0    0  0.97255083353E+00  0.62998805784E+00 -0.22316422875E+00  0.11800603162E+01  0.00000000000E+00 0. -1.
         11    1    3    3    0    0  0.77488851942E+00 -0.68398070084E+00  0.14863247739E+02  0.14899141432E+02  0.51100000000E-03 0. -1.
        -11    1    3    3    0    0  0.27415223341E+02  0.22111500589E+02 -0.15623606187E+02  0.38530637157E+02  0.51100000000E-03 0.  1.
         12    1    3    3    0    0 -0.29162662694E+02 -0.22057507946E+02  0.98352267701E+00  0.36578161095E+02  0.00000000000E+00 0. -1.
</event>
<event>
 7    1  0.3795708E-015  0.9000782E+02  0.7816164E-02  0.1186339E+00
        -11   -1    0    0    0    0  0.00000000000E+00  0.00000000000E+00  0.45593999997E+02  0.45594000000E+02  0.51100000000E-03 0.  1.
         11   -1    0    0    0    0 -0.00000000000E+00 -0.00000000000E+00 -0.45593999997E+02  0.45594000000E+02  0.51100000000E-03 0. -1.
    9900012    2    1    2    0    0  0.11570792695E+01  0.12283818727E+00 -0.19725061778E+00  0.90007818038E+02  0.90000080437E+02 0.  0.
         12    1    1    2    0    0 -0.11570792695E+01 -0.12283818727E+00  0.19725061778E+00  0.11801819615E+01  0.00000000000E+00 0. -1.
         11    1    3    3    0    0  0.16974489941E+02  0.28906037300E+02 -0.15437091993E+02  0.36905231480E+02  0.51100000000E-03 0. -1.
        -11    1    3    3    0    0 -0.30687745697E+00  0.17759747332E+01 -0.10240526875E+02  0.10397915703E+02  0.51100000000E-03 0.  1.
        -12    1    3    3    0    0 -0.15510533214E+02 -0.30559173846E+02  0.25480368250E+02  0.42704670856E+02  0.00000000000E+00 0.  1.
</event>
<event>
 7    1  0.3795708E-015  0.9000732E+02  0.7816164E-02  0.1186340E+00
        -11   -1    0    0    0    0  0.00000000000E+00  0.00000000000E+00  0.45593999997E+02  0.45594000000E+02  0.51100000000E-03 0.  1.
         11   -1    0    0    0    0 -0.00000000000E+00 -0.00000000000E+00 -0.45593999997E+02  0.45594000000E+02  0.51100000000E-03 0. -1.
    9900012    2    1    2    0    0  0.80267103820E+00  0.55415707123E+00 -0.66531617808E+00  0.90007315253E+02  0.89999571013E+02 0.  0.
         12    1    1    2    0    0 -0.80267103820E+00 -0.55415707123E+00  0.66531617808E+00  0.11806847471E+01  0.00000000000E+00 0. -1.
         11    1    3    3    0    0 -0.20074978017E+02  0.83820777184E+01  0.21192650289E+02  0.30370913647E+02  0.51100000000E-03 0. -1.
        -11    1    3    3    0    0  0.10324950477E+01 -0.20159508280E+02  0.80086399375E+01  0.21716586611E+02  0.51100000000E-03 0.  1.
         12    1    3    3    0    0  0.19845154007E+02  0.12331587633E+02 -0.29866606404E+02  0.37919814995E+02  0.00000000000E+00 0. -1.
</event>
<event>
 7    1  0.3795708E-015  0.9000738E+02  0.7816164E-02  0.1186340E+00
        -11   -1    0    0    0    0  0.00000000000E+00  0.00000000000E+00  0.45593999997E+02  0.45594000000E+02  0.51100000000E-03 0.  1.
         11   -1    0    0    0    0 -0.00000000000E+00 -0.00000000000E+00 -0.45593999997E+02  0.45594000000E+02  0.51100000000E-03 0. -1.
    9900012    2    1    2    0    0  0.54385977527E-01  0.50945592209E+00  0.10636493024E+01  0.90007384479E+02  0.89999641153E+02 0.  0.
         12    1    1    2    0    0 -0.54385977527E-01 -0.50945592209E+00 -0.10636493024E+01  0.11806155215E+01  0.00000000000E+00 0. -1.
         11    1    3    3    0    0  0.29941840633E+02 -0.10614752602E+02 -0.67361384521E+01  0.32474025848E+02  0.51100000000E-03 0. -1.
        -11    1    3    3    0    0  0.18068315492E+01 -0.12880349288E+02  0.11816150427E+02  0.17572405903E+02  0.51100000000E-03 0.  1.
        -12    1    3    3    0    0 -0.31694286205E+02  0.24004557812E+02 -0.40163626729E+01  0.39960952727E+02  0.00000000000E+00 0.  1.
</event>
<event>
 7    1  0.3795708E-015  0.9000647E+02  0.7816164E-02  0.1186342E+00
        -11   -1    0    0    0    0  0.00000000000E+00  0.00000000000E+00  0.45593999997E+02  0.45594000000E+02  0.51100000000E-03 0.  1.
         11   -1    0    0    0    0 -0.00000000000E+00 -0.00000000000E+00 -0.45593999997E+02  0.45594000000E+02  0.51100000000E-03 0. -1.
    9900012    2    1    2    0    0 -0.11256053550E+00  0.18459615781E+00  0.11615767003E+01  0.90006473002E+02  0.89998717637E+02 0.  0.
         12    1    1    2    0    0  0.11256053550E+00 -0.18459615781E+00 -0.11615767003E+01  0.11815269977E+01  0.00000000000E+00 0. -1.
         11    1    3    3    0    0 -0.34667340497E+01  0.77312598308E+01 -0.83958822339E+00  0.85144308200E+01  0.51100000000E-03 0. -1.
        -11    1    3    3    0    0  0.20351095326E+02 -0.16102109220E+02  0.34897360987E+02  0.43488743444E+02  0.51100000000E-03 0.  1.
         12    1    3    3    0    0 -0.16996921811E+02  0.85554455467E+01 -0.32896196063E+02  0.38003298738E+02  0.00000000000E+00 0. -1.
</event>
<event>
 7    1  0.3795708E-015  0.9000775E+02  0.7816164E-02  0.1186339E+00
        -11   -1    0    0    0    0  0.00000000000E+00  0.00000000000E+00  0.45593999997E+02  0.45594000000E+02  0.51100000000E-03 0.  1.
         11   -1    0    0    0    0 -0.00000000000E+00 -0.00000000000E+00 -0.45593999997E+02  0.45594000000E+02  0.51100000000E-03 0. -1.
    9900012    2    1    2    0    0  0.39721180211E+00 -0.28339386553E+00  0.10746621257E+01  0.90007750881E+02  0.90000012392E+02 0.  0.
         12    1    1    2    0    0 -0.39721180211E+00  0.28339386553E+00 -0.10746621257E+01  0.11802491191E+01  0.00000000000E+00 0. -1.
         11    1    3    3    0    0  0.74810108969E+01  0.27027546577E+02 -0.83139426339E+01  0.29250221203E+02  0.51100000000E-03 0. -1.
        -11    1    3    3    0    0  0.48886185892E+00  0.15851274873E+02  0.54083528781E+01  0.16755661196E+02  0.51100000000E-03 0.  1.
        -12    1    3    3    0    0 -0.75726609538E+01 -0.43162215316E+02  0.39802518815E+01  0.44001868482E+02  0.00000000000E+00 0.  1.
</event>
<event>
 7    1  0.3795708E-015  0.9000772E+02  0.7816164E-02  0.1186339E+00
        -11   -1    0    0    0    0  0.00000000000E+00  0.00000000000E+00  0.45593999997E+02  0.45594000000E+02  0.51100000000E-03 0.  1.
         11   -1    0    0    0    0 -0.00000000000E+00 -0.00000000000E+00 -0.45593999997E+02  0.45594000000E+02  0.51100000000E-03 0. -1.
    9900012    2    1    2    0    0 -0.92688955268E+00  0.43536101241E+00 -0.58685685759E+00  0.90007718497E+02  0.89999979582E+02 0.  0.
         12    1    1    2    0    0  0.92688955268E+00 -0.43536101241E+00  0.58685685759E+00  0.11802815026E+01  0.00000000000E+00 0. -1.
         11    1    3    3    0    0 -0.24923376259E+02 -0.12872484009E+02 -0.15907548552E+02  0.32247877914E+02  0.51100000000E-03 0. -1.
        -11    1    3    3    0    0 -0.57991977516E+01 -0.12591563508E+02  0.11655267066E+02  0.18111416753E+02  0.51100000000E-03 0.  1.
         12    1    3    3    0    0  0.29795684458E+02  0.25899408530E+02  0.36654246281E+01  0.39648423831E+02  0.00000000000E+00 0. -1.
</event>
<event>
 7    1  0.3795708E-015  0.9000797E+02  0.7816164E-02  0.1186339E+00
        -11   -1    0    0    0    0  0.00000000000E+00  0.00000000000E+00  0.45593999997E+02  0.45594000000E+02  0.51100000000E-03 0. -1.
         11   -1    0    0    0    0 -0.00000000000E+00 -0.00000000000E+00 -0.45593999997E+02  0.45594000000E+02  0.51100000000E-03 0.  1.
    9900012    2    1    2    0    0  0.95019964302E+00  0.26013628660E-01 -0.69921718373E+00  0.90007974263E+02  0.90000238723E+02 0.  0.
         12    1    1    2    0    0 -0.95019964302E+00 -0.26013628660E-01  0.69921718373E+00  0.11800257372E+01  0.00000000000E+00 0. -1.
         11    1    3    3    0    0  0.30358037714E+00 -0.13775563660E+02  0.25089713008E+02  0.28624325569E+02  0.51100000000E-03 0. -1.
        -11    1    3    3    0    0 -0.54706319613E+00 -0.88059348302E+01  0.13448027755E+02  0.16083942835E+02  0.51100000000E-03 0.  1.
        -12    1    3    3    0    0  0.11936824620E+01  0.22607512118E+02 -0.39236957946E+02  0.45299705859E+02  0.00000000000E+00 0.  1.
</event>
<event>
 7    1  0.3795708E-015  0.9000774E+02  0.7816164E-02  0.1186339E+00
        -11   -1    0    0    0    0  0.00000000000E+00  0.00000000000E+00  0.45593999997E+02  0.45594000000E+02  0.51100000000E-03 0.  1.
         11   -1    0    0    0    0 -0.00000000000E+00 -0.00000000000E+00 -0.45593999997E+02  0.45594000000E+02  0.51100000000E-03 0. -1.
    9900012    2    1    2    0    0  0.10694120349E+00  0.11748621519E+01 -0.35618308216E-01  0.90007743180E+02  0.90000004590E+02 0.  0.
         12    1    1    2    0    0 -0.10694120349E+00 -0.11748621519E+01  0.35618308216E-01  0.11802568199E+01  0.00000000000E+00 0. -1.
         11    1    3    3    0    0  0.29176403621E+00 -0.19442105942E+01  0.87876878118E+01  0.90049174581E+01  0.51100000000E-03 0. -1.
        -11    1    3    3    0    0  0.36292694461E+02 -0.15616253581E+02 -0.39556994996E+01  0.39707362113E+02  0.51100000000E-03 0.  1.
         12    1    3    3    0    0 -0.36477517294E+02  0.18735326327E+02 -0.48676066204E+01  0.41295463609E+02  0.00000000000E+00 0. -1.
</event>
<event>
 7    1  0.3795708E-015  0.9000758E+02  0.7816164E-02  0.1186339E+00
        -11   -1    0    0    0    0  0.00000000000E+00  0.00000000000E+00  0.45593999997E+02  0.45594000000E+02  0.51100000000E-03 0.  1.
         11   -1    0    0    0    0 -0.00000000000E+00 -0.00000000000E+00 -0.45593999997E+02  0.45594000000E+02  0.51100000000E-03 0. -1.
    9900012    2    1    2    0    0  0.20179382686E-01 -0.57754986105E+00  0.10292812725E+01  0.90007580165E+02  0.89999839423E+02 0.  0.
         12    1    1    2    0    0 -0.20179382686E-01  0.57754986105E+00 -0.10292812725E+01  0.11804198352E+01  0.00000000000E+00 0. -1.
         11    1    3    3    0    0 -0.44035700839E+01 -0.85280191351E+00  0.85037188616E+01  0.96141528657E+01  0.51100000000E-03 0. -1.
        -11    1    3    3    0    0  0.11707449667E+02 -0.12679828478E+02  0.33019836615E+02  0.37257912425E+02  0.51100000000E-03 0.  1.
         12    1    3    3    0    0 -0.72837001999E+01  0.12955080531E+02 -0.40494274204E+02  0.43135514874E+02  0.00000000000E+00 0. -1.
</event>
<event>
 7    1  0.3795708E-015  0.9000760E+02  0.7816164E-02  0.1186339E+00
        -11   -1    0    0    0    0  0.00000000000E+00  0.00000000000E+00  0.45593999997E+02  0.45594000000E+02  0.51100000000E-03 0.  1.
         11   -1    0    0    0    0 -0.00000000000E+00 -0.00000000000E+00 -0.45593999997E+02  0.45594000000E+02  0.51100000000E-03 0. -1.
    9900012    2    1    2    0    0 -0.94906990083E+00 -0.67283667235E+00  0.19975955501E+00  0.90007598905E+02  0.89999858411E+02 0.  0.
         12    1    1    2    0    0  0.94906990083E+00  0.67283667235E+00 -0.19975955501E+00  0.11804010946E+01  0.00000000000E+00 0. -1.
         11    1    3    3    0    0 -0.15847481114E+02  0.12488438102E+02 -0.31664505564E+02  0.37546566511E+02  0.51100000000E-03 0. -1.
        -11    1    3    3    0    0 -0.11169314599E+02  0.12608400536E+01  0.48374444197E+01  0.12237000246E+02  0.51100000000E-03 0.  1.
        -12    1    3    3    0    0  0.26067725812E+02 -0.14422114828E+02  0.27026820699E+02  0.40224032148E+02  0.00000000000E+00 0.  1.
</event>
<event>
 7    1  0.3795708E-015  0.9000807E+02  0.7816164E-02  0.1186338E+00
        -11   -1    0    0    0    0  0.00000000000E+00  0.00000000000E+00  0.45593999997E+02  0.45594000000E+02  0.51100000000E-03 0.  1.
         11   -1    0    0    0    0 -0.00000000000E+00 -0.00000000000E+00 -0.45593999997E+02  0.45594000000E+02  0.51100000000E-03 0. -1.
    9900012    2    1    2    0    0  0.10347142862E+01 -0.18751660870E+00  0.53519921548E+00  0.90008070200E+02  0.90000335926E+02 0.  0.
         12    1    1    2    0    0 -0.10347142862E+01  0.18751660870E+00 -0.53519921548E+00  0.11799298000E+01  0.00000000000E+00 0. -1.
         11    1    3    3    0    0 -0.16178842214E+02 -0.26634854818E+02 -0.22580175482E+02  0.38484214317E+02  0.51100000000E-03 0. -1.
        -11    1    3    3    0    0 -0.71466726426E+01  0.53081515015E+01 -0.36398374640E+01  0.96176826340E+01  0.51100000000E-03 0.  1.
        -12    1    3    3    0    0  0.24360229143E+02  0.21139186708E+02  0.26755212161E+02  0.41906173249E+02  0.00000000000E+00 0.  1.
</event>
<event>
 7    1  0.3795708E-015  0.9000792E+02  0.7816164E-02  0.1186339E+00
        -11   -1    0    0    0    0  0.00000000000E+00  0.00000000000E+00  0.45593999997E+02  0.45594000000E+02  0.51100000000E-03 0.  1.
         11   -1    0    0    0    0 -0.00000000000E+00 -0.00000000000E+00 -0.45593999997E+02  0.45594000000E+02  0.51100000000E-03 0. -1.
    9900012    2    1    2    0    0 -0.10640365627E+01  0.22409797272E+00  0.45847364133E+00  0.90007918737E+02  0.90000182464E+02 0.  0.
         12    1    1    2    0    0  0.10640365627E+01 -0.22409797272E+00 -0.45847364133E+00  0.11800812633E+01  0.00000000000E+00 0. -1.
         11    1    3    3    0    0  0.30833018779E+02  0.91099104502E+01  0.23817021304E+01  0.32238765806E+02  0.51100000000E-03 0. -1.
        -11    1    3    3    0    0  0.43502250726E+01 -0.14557360339E+02 -0.12403335814E+02  0.19613361206E+02  0.51100000000E-03 0.  1.
        -12    1    3    3    0    0 -0.36247280414E+02  0.56715478614E+01  0.10480107325E+02  0.38155791724E+02  0.00000000000E+00 0.  1.
</event>
<event>
 7    1  0.3795708E-015  0.9000769E+02  0.7816164E-02  0.1186339E+00
        -11   -1    0    0    0    0  0.00000000000E+00  0.00000000000E+00  0.45593999997E+02  0.45594000000E+02  0.51100000000E-03 0.  1.
         11   -1    0    0    0    0 -0.00000000000E+00 -0.00000000000E+00 -0.45593999997E+02  0.45594000000E+02  0.51100000000E-03 0. -1.
    9900012    2    1    2    0    0  0.10227294590E+01 -0.42845398682E+00  0.40445416747E+00  0.90007690067E+02  0.89999950776E+02 0.  0.
         12    1    1    2    0    0 -0.10227294590E+01  0.42845398682E+00 -0.40445416747E+00  0.11803099333E+01  0.00000000000E+00 0. -1.
         11    1    3    3    0    0  0.42262334154E+01 -0.68717658521E+00  0.10084611640E+02  0.10955941436E+02  0.51100000000E-03 0. -1.
        -11    1    3    3    0    0 -0.88091598846E+00  0.20832668545E+02  0.28681165882E+02  0.35459630121E+02  0.51100000000E-03 0.  1.
         12    1    3    3    0    0 -0.23225879679E+01 -0.20573945947E+02 -0.38361323355E+02  0.43592118510E+02  0.00000000000E+00 0. -1.
</event>
<event>
 7    1  0.3795708E-015  0.9000775E+02  0.7816164E-02  0.1186339E+00
        -11   -1    0    0    0    0  0.00000000000E+00  0.00000000000E+00  0.45593999997E+02  0.45594000000E+02  0.51100000000E-03 0.  1.
         11   -1    0    0    0    0 -0.00000000000E+00 -0.00000000000E+00 -0.45593999997E+02  0.45594000000E+02  0.51100000000E-03 0. -1.
    9900012    2    1    2    0    0 -0.22145078386E+00 -0.45588277483E+00  0.10658842747E+01  0.90007754754E+02  0.90000016317E+02 0.  0.
         12    1    1    2    0    0  0.22145078386E+00  0.45588277483E+00 -0.10658842747E+01  0.11802452461E+01  0.00000000000E+00 0. -1.
         11    1    3    3    0    0  0.18639456039E+01 -0.88193713976E+01 -0.24853118029E+01  0.93505283317E+01  0.51100000000E-03 0. -1.
        -11    1    3    3    0    0 -0.26823834855E+02  0.29303710207E+02 -0.15975173801E+02  0.42818590897E+02  0.51100000000E-03 0.  1.
         12    1    3    3    0    0  0.24738438467E+02 -0.20940221584E+02  0.19526369879E+02  0.37838635525E+02  0.00000000000E+00 0. -1.
</event>
<event>
 7    1  0.3795708E-015  0.9000771E+02  0.7816164E-02  0.1186339E+00
        -11   -1    0    0    0    0  0.00000000000E+00  0.00000000000E+00  0.45593999997E+02  0.45594000000E+02  0.51100000000E-03 0. -1.
         11   -1    0    0    0    0 -0.00000000000E+00 -0.00000000000E+00 -0.45593999997E+02  0.45594000000E+02  0.51100000000E-03 0.  1.
    9900012    2    1    2    0    0 -0.53804302011E+00 -0.74247303057E+00 -0.74318929851E+00  0.90007709008E+02  0.89999969967E+02 0.  0.
         12    1    1    2    0    0  0.53804302011E+00  0.74247303057E+00  0.74318929851E+00  0.11802909921E+01  0.00000000000E+00 0. -1.
         11    1    3    3    0    0 -0.10073448752E+02  0.32083443040E+01 -0.12909387720E+01  0.10650557079E+02  0.51100000000E-03 0. -1.
        -11    1    3    3    0    0 -0.22452976330E+02 -0.21547078590E+02 -0.20453318277E+02  0.37239105396E+02  0.51100000000E-03 0.  1.
         12    1    3    3    0    0  0.31988382061E+02  0.17596261256E+02  0.21001067751E+02  0.42118046533E+02  0.00000000000E+00 0. -1.
</event>
<event>
 7    1  0.3795708E-015  0.9000795E+02  0.7816164E-02  0.1186339E+00
        -11   -1    0    0    0    0  0.00000000000E+00  0.00000000000E+00  0.45593999997E+02  0.45594000000E+02  0.51100000000E-03 0.  1.
         11   -1    0    0    0    0 -0.00000000000E+00 -0.00000000000E+00 -0.45593999997E+02  0.45594000000E+02  0.51100000000E-03 0. -1.
    9900012    2    1    2    0    0 -0.10127702628E+01  0.42524248198E+00  0.43125428001E+00  0.90007951260E+02  0.90000215417E+02 0.  0.
         12    1    1    2    0    0  0.10127702628E+01 -0.42524248198E+00 -0.43125428001E+00  0.11800487395E+01  0.00000000000E+00 0. -1.
         11    1    3    3    0    0  0.51319701422E+01 -0.68489979586E+01 -0.45044831216E+01  0.96714145310E+01  0.51100000000E-03 0. -1.
        -11    1    3    3    0    0 -0.38392515093E+02 -0.35090841053E+01 -0.14478436825E+02  0.41181598070E+02  0.51100000000E-03 0.  1.
         12    1    3    3    0    0  0.32247774688E+02  0.10783324546E+02  0.19414174226E+02  0.39154938660E+02  0.00000000000E+00 0. -1.
</event>
<event>
 7    1  0.3795708E-015  0.9000786E+02  0.7816164E-02  0.1186339E+00
        -11   -1    0    0    0    0  0.00000000000E+00  0.00000000000E+00  0.45593999997E+02  0.45594000000E+02  0.51100000000E-03 0. -1.
         11   -1    0    0    0    0 -0.00000000000E+00 -0.00000000000E+00 -0.45593999997E+02  0.45594000000E+02  0.51100000000E-03 0.  1.
    9900012    2    1    2    0    0 -0.71578538969E+00 -0.75964969872E+00 -0.55075009504E+00  0.90007855070E+02  0.90000117957E+02 0.  0.
         12    1    1    2    0    0  0.71578538969E+00  0.75964969872E+00  0.55075009504E+00  0.11801449301E+01  0.00000000000E+00 0. -1.
         11    1    3    3    0    0  0.89516840260E+01 -0.18864492343E+01  0.32075485323E+01  0.96943130475E+01  0.51100000000E-03 0. -1.
        -11    1    3    3    0    0 -0.44799963236E+00  0.29921691698E+02 -0.28439996018E+02  0.41283673668E+02  0.51100000000E-03 0.  1.
         12    1    3    3    0    0 -0.92194697833E+01 -0.28794892163E+02  0.24681697390E+02  0.39029868355E+02  0.00000000000E+00 0. -1.
</event>
<event>
 7    1  0.3795708E-015  0.9000774E+02  0.7816164E-02  0.1186339E+00
        -11   -1    0    0    0    0  0.00000000000E+00  0.00000000000E+00  0.45593999997E+02  0.45594000000E+02  0.51100000000E-03 0.  1.
         11   -1    0    0    0    0 -0.00000000000E+00 -0.00000000000E+00 -0.45593999997E+02  0.45594000000E+02  0.51100000000E-03 0. -1.
    9900012    2    1    2    0    0  0.22786554700E+00  0.33828370419E+00  0.11075397499E+01  0.90007744574E+02  0.90000006003E+02 0.  0.
         12    1    1    2    0    0 -0.22786554700E+00 -0.33828370419E+00 -0.11075397499E+01  0.11802554256E+01  0.00000000000E+00 0. -1.
         11    1    3    3    0    0 -0.81658428654E+01  0.60433459114E+01 -0.35365219160E+02  0.36795403871E+02  0.51100000000E-03 0. -1.
        -11    1    3    3    0    0 -0.82373044772E+01  0.18425962359E+00 -0.39276016283E+01  0.91276060098E+01  0.51100000000E-03 0.  1.
        -12    1    3    3    0    0  0.16631012890E+02 -0.58893218308E+01  0.40400360539E+02  0.44084734694E+02  0.00000000000E+00 0.  1.
</event>
<event>
 7    1  0.3795708E-015  0.9000771E+02  0.7816164E-02  0.1186339E+00
        -11   -1    0    0    0    0  0.00000000000E+00  0.00000000000E+00  0.45593999997E+02  0.45594000000E+02  0.51100000000E-03 0.  1.
         11   -1    0    0    0    0 -0.00000000000E+00 -0.00000000000E+00 -0.45593999997E+02  0.45594000000E+02  0.51100000000E-03 0. -1.
    9900012    2    1    2    0    0  0.64656339882E+00 -0.42407842481E+00  0.89173894961E+00  0.90007709742E+02  0.89999970711E+02 0.  0.
         12    1    1    2    0    0 -0.64656339882E+00  0.42407842481E+00 -0.89173894961E+00  0.11802902581E+01  0.00000000000E+00 0. -1.
         11    1    3    3    0    0  0.24492955927E+01  0.37626415645E+01  0.56474218216E+01  0.72145612434E+01  0.51100000000E-03 0. -1.
        -11    1    3    3    0    0 -0.23047879324E+02 -0.22431764395E+02  0.25883821021E+02  0.41283907108E+02  0.51100000000E-03 0.  1.
         12    1    3    3    0    0  0.21245147130E+02  0.18245044406E+02 -0.30639503893E+02  0.41509241390E+02  0.00000000000E+00 0. -1.
</event>
<event>
 7    1  0.3795708E-015  0.9000775E+02  0.7816164E-02  0.1186339E+00
        -11   -1    0    0    0    0  0.00000000000E+00  0.00000000000E+00  0.45593999997E+02  0.45594000000E+02  0.51100000000E-03 0.  1.
         11   -1    0    0    0    0 -0.00000000000E+00 -0.00000000000E+00 -0.45593999997E+02  0.45594000000E+02  0.51100000000E-03 0. -1.
    9900012    2    1    2    0    0 -0.96339117743E+00  0.36302746916E+00 -0.57712656526E+00  0.90007751477E+02  0.90000012996E+02 0.  0.
         12    1    1    2    0    0  0.96339117743E+00 -0.36302746916E+00  0.57712656526E+00  0.11802485232E+01  0.00000000000E+00 0. -1.
         11    1    3    3    0    0  0.36461002253E+02  0.10059027186E+02 -0.26411792908E+01  0.37915228359E+02  0.51100000000E-03 0. -1.
        -11    1    3    3    0    0  0.33689029490E+01  0.54966345250E+01  0.54342507416E+01  0.84317008702E+01  0.51100000000E-03 0.  1.
        -12    1    3    3    0    0 -0.40793296379E+02 -0.15192634241E+02 -0.33701980161E+01  0.43660822248E+02  0.00000000000E+00 0.  1.
</event>
<event>
 7    1  0.3795708E-015  0.9000701E+02  0.7816164E-02  0.1186341E+00
        -11   -1    0    0    0    0  0.00000000000E+00  0.00000000000E+00  0.45593999997E+02  0.45594000000E+02  0.51100000000E-03 0. -1.
         11   -1    0    0    0    0 -0.00000000000E+00 -0.00000000000E+00 -0.45593999997E+02  0.45594000000E+02  0.51100000000E-03 0.  1.
    9900012    2    1    2    0    0  0.54559127641E+00  0.10473744907E+01 -0.89683142225E-02  0.90007007369E+02  0.89999259063E+02 0.  0.
         12    1    1    2    0    0 -0.54559127641E+00 -0.10473744907E+01  0.89683142225E-02  0.11809926314E+01  0.00000000000E+00 0. -1.
         11    1    3    3    0    0  0.18564429168E+02 -0.20656210467E+02  0.45047196780E+01  0.28135556878E+02  0.51100000000E-03 0. -1.
        -11    1    3    3    0    0  0.73960003515E+01 -0.38485242551E+01  0.17679629759E+02  0.19546899212E+02  0.51100000000E-03 0.  1.
        -12    1    3    3    0    0 -0.25414838243E+02  0.25552109213E+02 -0.22193317751E+02  0.42324551279E+02  0.00000000000E+00 0.  1.
</event>
<event>
 7    1  0.3795708E-015  0.9000746E+02  0.7816164E-02  0.1186340E+00
        -11   -1    0    0    0    0  0.00000000000E+00  0.00000000000E+00  0.45593999997E+02  0.45594000000E+02  0.51100000000E-03 0. -1.
         11   -1    0    0    0    0 -0.00000000000E+00 -0.00000000000E+00 -0.45593999997E+02  0.45594000000E+02  0.51100000000E-03 0.  1.
    9900012    2    1    2    0    0 -0.85506164685E-02 -0.10588033819E+01 -0.52206133849E+00  0.90007455314E+02  0.89999712924E+02 0.  0.
         12    1    1    2    0    0  0.85506164685E-02  0.10588033819E+01  0.52206133849E+00  0.11805446861E+01  0.00000000000E+00 0. -1.
         11    1    3    3    0    0  0.69966024313E+01  0.99575461637E+01  0.11808024220E+01  0.12226997416E+02  0.51100000000E-03 0. -1.
        -11    1    3    3    0    0  0.62150958375E+01  0.43062302250E+01 -0.36636303012E+02  0.37408417952E+02  0.51100000000E-03 0.  1.
         12    1    3    3    0    0 -0.13220248885E+02 -0.15322579771E+02  0.34933439252E+02  0.40372039946E+02  0.00000000000E+00 0. -1.
</event>
<event>
 7    1  0.3795708E-015  0.9000776E+02  0.7816164E-02  0.1186339E+00
        -11   -1    0    0    0    0  0.00000000000E+00  0.00000000000E+00  0.45593999997E+02  0.45594000000E+02  0.51100000000E-03 0. -1.
         11   -1    0    0    0    0 -0.00000000000E+00 -0.00000000000E+00 -0.45593999997E+02  0.45594000000E+02  0.51100000000E-03 0.  1.
    9900012    2    1    2    0    0 -0.11694848041E+01  0.74023138582E-02  0.15881655378E+00  0.90007757568E+02  0.90000019168E+02 0.  0.
         12    1    1    2    0    0  0.11694848041E+01 -0.74023138582E-02 -0.15881655378E+00  0.11802424323E+01  0.00000000000E+00 0. -1.
         11    1    3    3    0    0 -0.64137984836E+01  0.16498794642E+02  0.45122161009E+01  0.18267652559E+02  0.51100000000E-03 0. -1.
        -11    1    3    3    0    0  0.16729864006E+02  0.23028621993E+02 -0.10063408492E+02  0.30190693455E+02  0.51100000000E-03 0.  1.
         12    1    3    3    0    0 -0.11485550327E+02 -0.39520014321E+02  0.57100089452E+01  0.41549411553E+02  0.00000000000E+00 0. -1.
</event>
<event>
 7    1  0.3795708E-015  0.9000778E+02  0.7816164E-02  0.1186339E+00
        -11   -1    0    0    0    0  0.00000000000E+00  0.00000000000E+00  0.45593999997E+02  0.45594000000E+02  0.51100000000E-03 0. -1.
         11   -1    0    0    0    0 -0.00000000000E+00 -0.00000000000E+00 -0.45593999997E+02  0.45594000000E+02  0.51100000000E-03 0.  1.
    9900012    2    1    2    0    0 -0.12437652038E+00  0.47559218416E+00 -0.10729650127E+01  0.90007783341E+02  0.90000045281E+02 0.  0.
         12    1    1    2    0    0  0.12437652038E+00 -0.47559218416E+00  0.10729650127E+01  0.11802166593E+01  0.00000000000E+00 0. -1.
         11    1    3    3    0    0  0.31159447617E+02  0.16085162708E+02  0.24061829837E+02  0.42527817844E+02  0.51100000000E-03 0. -1.
        -11    1    3    3    0    0 -0.91282877439E+01  0.39572423367E+01 -0.25229117344E+01  0.10264038578E+02  0.51100000000E-03 0.  1.
        -12    1    3    3    0    0 -0.22155536394E+02 -0.19566812861E+02 -0.22611883116E+02  0.37215926919E+02  0.00000000000E+00 0.  1.
</event>
<event>
 7    1  0.3795708E-015  0.9000764E+02  0.7816164E-02  0.1186339E+00
        -11   -1    0    0    0    0  0.00000000000E+00  0.00000000000E+00  0.45593999997E+02  0.45594000000E+02  0.51100000000E-03 0.  1.
         11   -1    0    0    0    0 -0.00000000000E+00 -0.00000000000E+00 -0.45593999997E+02  0.45594000000E+02  0.51100000000E-03 0. -1.
    9900012    2    1    2    0    0 -0.65117842660E+00 -0.29276211914E+00  0.93995316620E+00  0.90007637786E+02  0.89999897805E+02 0.  0.
         12    1    1    2    0    0  0.65117842660E+00  0.29276211914E+00 -0.93995316620E+00  0.11803622140E+01  0.00000000000E+00 0. -1.
         11    1    3    3    0    0 -0.55138604131E+01  0.74432042245E+01  0.23475362526E+00  0.92660161508E+01  0.51100000000E-03 0. -1.
        -11    1    3    3    0    0 -0.36910231939E+02  0.38837817457E+01  0.35877148741E+01  0.37287004180E+02  0.51100000000E-03 0.  1.
         12    1    3    3    0    0  0.41772913926E+02 -0.11619748089E+02 -0.28825153332E+01  0.43454617455E+02  0.00000000000E+00 0. -1.
</event>
<event>
 7    1  0.3795708E-015  0.9000780E+02  0.7816164E-02  0.1186339E+00
        -11   -1    0    0    0    0  0.00000000000E+00  0.00000000000E+00  0.45593999997E+02  0.45594000000E+02  0.51100000000E-03 0.  1.
         11   -1    0    0    0    0 -0.00000000000E+00 -0.00000000000E+00 -0.45593999997E+02  0.45594000000E+02  0.51100000000E-03 0. -1.
    9900012    2    1    2    0    0 -0.42406558446E+00  0.37953365382E-01  0.11007238210E+01  0.90007802979E+02  0.90000065178E+02 0.  0.
         12    1    1    2    0    0  0.42406558446E+00 -0.37953365382E-01 -0.11007238210E+01  0.11801970208E+01  0.00000000000E+00 0. -1.
         11    1    3    3    0    0  0.22664190709E+01  0.31801193412E+01  0.96843872220E+01  0.10442086504E+02  0.51100000000E-03 0. -1.
        -11    1    3    3    0    0  0.32823844995E+02  0.85799064187E+01 -0.21306145379E+02  0.40062094623E+02  0.51100000000E-03 0.  1.
         12    1    3    3    0    0 -0.35514329651E+02 -0.11722072395E+02  0.12722481978E+02  0.39503621852E+02  0.00000000000E+00 0. -1.
</event>
<event>
 7    1  0.6573274E-015  0.9000787E+02  0.7816164E-02  0.1186339E+00
        -11   -1    0    0    0    0  0.00000000000E+00  0.00000000000E+00  0.45593999997E+02  0.45594000000E+02  0.51100000000E-03 0.  1.
         11   -1    0    0    0    0 -0.00000000000E+00 -0.00000000000E+00 -0.45593999997E+02  0.45594000000E+02  0.51100000000E-03 0. -1.
    9900012    2    1    2    0    0  0.38901569766E+00 -0.83856748688E+00  0.73361047712E+00  0.90007867391E+02  0.90000130440E+02 0.  0.
         12    1    1    2    0    0 -0.38901569766E+00  0.83856748688E+00 -0.73361047712E+00  0.11801326092E+01  0.00000000000E+00 0. -1.
         11    1    3    3    0    0 -0.21980365410E+02 -0.16621840465E+02 -0.28443651403E+02  0.39603829984E+02  0.51100000000E-03 0. -1.
        -11    1    3    3    0    0  0.78430614618E+01 -0.15042342990E+01 -0.50139450739E+01  0.94295269969E+01  0.51100000000E-03 0.  1.
        -12    1    3    3    0    0  0.14526319646E+02  0.17287507277E+02  0.34191206954E+02  0.40974510410E+02  0.00000000000E+00 0.  1.
</event>
<event>
 7    1  0.3795708E-015  0.9000780E+02  0.7816164E-02  0.1186339E+00
        -11   -1    0    0    0    0  0.00000000000E+00  0.00000000000E+00  0.45593999997E+02  0.45594000000E+02  0.51100000000E-03 0.  1.
         11   -1    0    0    0    0 -0.00000000000E+00 -0.00000000000E+00 -0.45593999997E+02  0.45594000000E+02  0.51100000000E-03 0. -1.
    9900012    2    1    2    0    0 -0.39860475558E+00  0.10840447347E+01  0.24253827607E+00  0.90007803595E+02  0.90000065803E+02 0.  0.
         12    1    1    2    0    0  0.39860475558E+00 -0.10840447347E+01 -0.24253827607E+00  0.11801964046E+01  0.00000000000E+00 0. -1.
         11    1    3    3    0    0 -0.10605344643E+02  0.82465777563E+01 -0.37586946680E+02  0.39915635291E+02  0.51100000000E-03 0. -1.
        -11    1    3    3    0    0  0.10153172599E+02  0.20460154590E+00 -0.13333440490E+01  0.10242391431E+02  0.51100000000E-03 0.  1.
        -12    1    3    3    0    0  0.53567288742E-01 -0.73671345676E+01  0.39162829005E+02  0.39849776873E+02  0.00000000000E+00 0.  1.
</event>
<event>
 7    1  0.3795708E-015  0.9000772E+02  0.7816164E-02  0.1186339E+00
        -11   -1    0    0    0    0  0.00000000000E+00  0.00000000000E+00  0.45593999997E+02  0.45594000000E+02  0.51100000000E-03 0. -1.
         11   -1    0    0    0    0 -0.00000000000E+00 -0.00000000000E+00 -0.45593999997E+02  0.45594000000E+02  0.51100000000E-03 0.  1.
    9900012    2    1    2    0    0 -0.10270188954E+00  0.62170888705E+00 -0.99799423227E+00  0.90007719480E+02  0.89999980577E+02 0.  0.
         12    1    1    2    0    0  0.10270188954E+00 -0.62170888705E+00  0.99799423227E+00  0.11802805200E+01  0.00000000000E+00 0. -1.
         11    1    3    3    0    0  0.53135431658E+01  0.16737709048E+01 -0.85493712414E+01  0.10204263761E+02  0.51100000000E-03 0. -1.
        -11    1    3    3    0    0 -0.26185007820E+02  0.20362545087E+02 -0.20384651432E+02  0.38933557392E+02  0.51100000000E-03 0.  1.
         12    1    3    3    0    0  0.20768762764E+02 -0.21414607105E+02  0.27936028441E+02  0.40869898327E+02  0.00000000000E+00 0. -1.
</event>
<event>
 7    1  0.3795708E-015  0.9000774E+02  0.7816164E-02  0.1186339E+00
        -11   -1    0    0    0    0  0.00000000000E+00  0.00000000000E+00  0.45593999997E+02  0.45594000000E+02  0.51100000000E-03 0.  1.
         11   -1    0    0    0    0 -0.00000000000E+00 -0.00000000000E+00 -0.45593999997E+02  0.45594000000E+02  0.51100000000E-03 0. -1.
    9900012    2    1    2    0    0 -0.10140880987E+01  0.60187757845E+00 -0.48805562174E-01  0.90007740167E+02  0.90000001537E+02 0.  0.
         12    1    1    2    0    0  0.10140880987E+01 -0.60187757845E+00  0.48805562174E-01  0.11802598334E+01  0.00000000000E+00 0. -1.
         11    1    3    3    0    0 -0.83027883141E+01 -0.32799654465E+02 -0.34039290463E+01  0.34005004926E+02  0.51100000000E-03 0. -1.
        -11    1    3    3    0    0 -0.33648863627E+01 -0.10340663347E+02  0.10015864645E+01  0.10920391678E+02  0.51100000000E-03 0.  1.
        -12    1    3    3    0    0  0.10653586578E+02  0.43742195391E+02  0.23535370196E+01  0.45082343562E+02  0.00000000000E+00 0.  1.
</event>
<event>
 7    1  0.3795708E-015  0.9000778E+02  0.7816164E-02  0.1186339E+00
        -11   -1    0    0    0    0  0.00000000000E+00  0.00000000000E+00  0.45593999997E+02  0.45594000000E+02  0.51100000000E-03 0. -1.
         11   -1    0    0    0    0 -0.00000000000E+00 -0.00000000000E+00 -0.45593999997E+02  0.45594000000E+02  0.51100000000E-03 0.  1.
    9900012    2    1    2    0    0  0.93726484235E-01  0.70771714872E+00 -0.93982536748E+00  0.90007779708E+02  0.90000041600E+02 0.  0.
         12    1    1    2    0    0 -0.93726484235E-01 -0.70771714872E+00  0.93982536748E+00  0.11802202921E+01  0.00000000000E+00 0. -1.
         11    1    3    3    0    0  0.69578279978E+01 -0.49223925724E+01 -0.42550455074E+01  0.95261078944E+01  0.51100000000E-03 0. -1.
        -11    1    3    3    0    0  0.21338691120E+02 -0.22227015005E+02 -0.17783160157E+02  0.35575563526E+02  0.51100000000E-03 0.  1.
         12    1    3    3    0    0 -0.28202792634E+02  0.27857124726E+02  0.21098380297E+02  0.44906108287E+02  0.00000000000E+00 0. -1.
</event>
<event>
 7    1  0.3795708E-015  0.9000772E+02  0.7816164E-02  0.1186339E+00
        -11   -1    0    0    0    0  0.00000000000E+00  0.00000000000E+00  0.45593999997E+02  0.45594000000E+02  0.51100000000E-03 0.  1.
         11   -1    0    0    0    0 -0.00000000000E+00 -0.00000000000E+00 -0.45593999997E+02  0.45594000000E+02  0.51100000000E-03 0. -1.
    9900012    2    1    2    0    0 -0.40366386848E+00 -0.90724733335E+00  0.63797088803E+00  0.90007724991E+02  0.89999986161E+02 0.  0.
         12    1    1    2    0    0  0.40366386848E+00  0.90724733335E+00 -0.63797088803E+00  0.11802750089E+01  0.00000000000E+00 0. -1.
         11    1    3    3    0    0 -0.14788255445E+02 -0.26350097469E+02 -0.21456881574E+02  0.37059653302E+02  0.51100000000E-03 0. -1.
        -11    1    3    3    0    0  0.40451898647E+01 -0.27049100196E+01 -0.86979859502E+01  0.99666975025E+01  0.51100000000E-03 0.  1.
        -12    1    3    3    0    0  0.10339401712E+02  0.28147760155E+02  0.30792838412E+02  0.42981374187E+02  0.00000000000E+00 0.  1.
</event>
<event>
 7    1  0.3795708E-015  0.9000761E+02  0.7816164E-02  0.1186339E+00
        -11   -1    0    0    0    0  0.00000000000E+00  0.00000000000E+00  0.45593999997E+02  0.45594000000E+02  0.51100000000E-03 0.  1.
         11   -1    0    0    0    0 -0.00000000000E+00 -0.00000000000E+00 -0.45593999997E+02  0.45594000000E+02  0.51100000000E-03 0. -1.
    9900012    2    1    2    0    0 -0.62918481286E+00 -0.98168225709E-01  0.99388067423E+00  0.90007614756E+02  0.89999874471E+02 0.  0.
         12    1    1    2    0    0  0.62918481286E+00  0.98168225709E-01 -0.99388067423E+00  0.11803852438E+01  0.00000000000E+00 0. -1.
         11    1    3    3    0    0  0.35256004147E+01  0.73945116134E+01 -0.30154701950E+01  0.87293597155E+01  0.51100000000E-03 0. -1.
        -11    1    3    3    0    0  0.18036331064E+02 -0.18779728786E+02 -0.29618893524E+02  0.39436864801E+02  0.51100000000E-03 0.  1.
         12    1    3    3    0    0 -0.22191116291E+02  0.11287048946E+02  0.33628244393E+02  0.41841390239E+02  0.00000000000E+00 0. -1.
</event>
<event>
 7    1  0.3795708E-015  0.9000769E+02  0.7816164E-02  0.1186339E+00
        -11   -1    0    0    0    0  0.00000000000E+00  0.00000000000E+00  0.45593999997E+02  0.45594000000E+02  0.51100000000E-03 0.  1.
         11   -1    0    0    0    0 -0.00000000000E+00 -0.00000000000E+00 -0.45593999997E+02  0.45594000000E+02  0.51100000000E-03 0. -1.
    9900012    2    1    2    0    0  0.82705803002E+00  0.38004118330E+00  0.75145420911E+00  0.90007686603E+02  0.89999947266E+02 0.  0.
         12    1    1    2    0    0 -0.82705803002E+00 -0.38004118330E+00 -0.75145420911E+00  0.11803133967E+01  0.00000000000E+00 0. -1.
         11    1    3    3    0    0 -0.14756129635E+02 -0.36186864653E+02 -0.19234572918E+01  0.39127128996E+02  0.51100000000E-03 0. -1.
        -11    1    3    3    0    0  0.96879583466E+01 -0.33286360601E+01  0.25295819192E+01  0.10551546801E+02  0.51100000000E-03 0.  1.
        -12    1    3    3    0    0  0.58952293184E+01  0.39895541897E+02  0.14532958169E+00  0.40329010807E+02  0.00000000000E+00 0.  1.
</event>
<event>
 7    1  0.3795708E-015  0.9000748E+02  0.7816164E-02  0.1186340E+00
        -11   -1    0    0    0    0  0.00000000000E+00  0.00000000000E+00  0.45593999997E+02  0.45594000000E+02  0.51100000000E-03 0.  1.
         11   -1    0    0    0    0 -0.00000000000E+00 -0.00000000000E+00 -0.45593999997E+02  0.45594000000E+02  0.51100000000E-03 0. -1.
    9900012    2    1    2    0    0  0.10224071748E+01  0.18501702888E+00  0.56043534794E+00  0.90007476594E+02  0.89999734485E+02 0.  0.
         12    1    1    2    0    0 -0.10224071748E+01 -0.18501702888E+00 -0.56043534794E+00  0.11805234057E+01  0.00000000000E+00 0. -1.
         11    1    3    3    0    0 -0.27292340014E+02 -0.35840496227E+01 -0.15636656079E+02  0.31657893941E+02  0.51100000000E-03 0. -1.
        -11    1    3    3    0    0 -0.23758966135E+01 -0.62539587371E+01 -0.13127635466E+02  0.14734031960E+02  0.51100000000E-03 0.  1.
        -12    1    3    3    0    0  0.30690643803E+02  0.10023025389E+02  0.29324726893E+02  0.43615550694E+02  0.00000000000E+00 0.  1.
</event>
<event>
 7    1  0.3795708E-015  0.9000788E+02  0.7816164E-02  0.1186339E+00
        -11   -1    0    0    0    0  0.00000000000E+00  0.00000000000E+00  0.45593999997E+02  0.45594000000E+02  0.51100000000E-03 0. -1.
         11   -1    0    0    0    0 -0.00000000000E+00 -0.00000000000E+00 -0.45593999997E+02  0.45594000000E+02  0.51100000000E-03 0.  1.
    9900012    2    1    2    0    0  0.67162902409E+00  0.97002934251E+00  0.25355117703E-01  0.90007879094E+02  0.90000142298E+02 0.  0.
         12    1    1    2    0    0 -0.67162902409E+00 -0.97002934251E+00 -0.25355117703E-01  0.11801209062E+01  0.00000000000E+00 0. -1.
         11    1    3    3    0    0  0.12744241353E+02  0.26437838875E+02  0.26490137016E+02  0.39536089481E+02  0.51100000000E-03 0. -1.
        -11    1    3    3    0    0  0.54759611205E+01 -0.67898137106E+01  0.48706702293E+01  0.99905529958E+01  0.51100000000E-03 0.  1.
        -12    1    3    3    0    0 -0.17548573449E+02 -0.18677995822E+02 -0.31335452127E+02  0.40481236617E+02  0.00000000000E+00 0.  1.
</event>
<event>
 7    1  0.3795708E-015  0.9000774E+02  0.7816164E-02  0.1186339E+00
        -11   -1    0    0    0    0  0.00000000000E+00  0.00000000000E+00  0.45593999997E+02  0.45594000000E+02  0.51100000000E-03 0. -1.
         11   -1    0    0    0    0 -0.00000000000E+00 -0.00000000000E+00 -0.45593999997E+02  0.45594000000E+02  0.51100000000E-03 0.  1.
    9900012    2    1    2    0    0 -0.22075465125E+00 -0.10316906730E+01  0.52904426700E+00  0.90007743207E+02  0.90000004617E+02 0.  0.
         12    1    1    2    0    0  0.22075465125E+00  0.10316906730E+01 -0.52904426700E+00  0.11802567929E+01  0.00000000000E+00 0. -1.
         11    1    3    3    0    0 -0.66570338869E+01 -0.40908616268E+01  0.14006887466E+01  0.79380840413E+01  0.51100000000E-03 0. -1.
        -11    1    3    3    0    0  0.15615799203E+02 -0.30864939698E+02 -0.22065987501E+02  0.41029324781E+02  0.51100000000E-03 0.  1.
         12    1    3    3    0    0 -0.91795199672E+01  0.33924110652E+02  0.21194343021E+02  0.41040334385E+02  0.00000000000E+00 0. -1.
</event>
<event>
 7    1  0.3795708E-015  0.9000763E+02  0.7816164E-02  0.1186339E+00
        -11   -1    0    0    0    0  0.00000000000E+00  0.00000000000E+00  0.45593999997E+02  0.45594000000E+02  0.51100000000E-03 0.  1.
         11   -1    0    0    0    0 -0.00000000000E+00 -0.00000000000E+00 -0.45593999997E+02  0.45594000000E+02  0.51100000000E-03 0. -1.
    9900012    2    1    2    0    0  0.85279132456E-01 -0.83571455085E+00 -0.82920512624E+00  0.90007630362E+02  0.89999890283E+02 0.  0.
         12    1    1    2    0    0 -0.85279132456E-01  0.83571455085E+00  0.82920512624E+00  0.11803696380E+01  0.00000000000E+00 0. -1.
         11    1    3    3    0    0  0.15475261514E+01 -0.88896507868E+01 -0.28265219353E+00  0.90277694268E+01  0.51100000000E-03 0. -1.
        -11    1    3    3    0    0  0.16557824449E+02 -0.20874620847E+02  0.26418043365E+02  0.37520985615E+02  0.51100000000E-03 0.  1.
         12    1    3    3    0    0 -0.18020071468E+02  0.28928557082E+02 -0.26964596298E+02  0.43458875320E+02  0.00000000000E+00 0. -1.
</event>
<event>
 7    1  0.3795708E-015  0.9000768E+02  0.7816164E-02  0.1186339E+00
        -11   -1    0    0    0    0  0.00000000000E+00  0.00000000000E+00  0.45593999997E+02  0.45594000000E+02  0.51100000000E-03 0. -1.
         11   -1    0    0    0    0 -0.00000000000E+00 -0.00000000000E+00 -0.45593999997E+02  0.45594000000E+02  0.51100000000E-03 0.  1.
    9900012    2    1    2    0    0 -0.83267680730E+00  0.83651267966E+00  0.70578290728E-02  0.90007680576E+02  0.89999941160E+02 0.  0.
         12    1    1    2    0    0  0.83267680730E+00 -0.83651267966E+00 -0.70578290727E-02  0.11803194236E+01  0.00000000000E+00 0. -1.
         11    1    3    3    0    0 -0.75601937870E+01  0.36511930470E+01 -0.53272314632E+01  0.99431954666E+01  0.51100000000E-03 0. -1.
        -11    1    3    3    0    0 -0.24944348054E+02  0.18120387376E+02 -0.17804957858E+02  0.35603166475E+02  0.51100000000E-03 0.  1.
         12    1    3    3    0    0  0.31671865034E+02 -0.20935067743E+02  0.23139247150E+02  0.44461318635E+02  0.00000000000E+00 0. -1.
</event>
<event>
 7    1  0.3795708E-015  0.9000769E+02  0.7816164E-02  0.1186339E+00
        -11   -1    0    0    0    0  0.00000000000E+00  0.00000000000E+00  0.45593999997E+02  0.45594000000E+02  0.51100000000E-03 0. -1.
         11   -1    0    0    0    0 -0.00000000000E+00 -0.00000000000E+00 -0.45593999997E+02  0.45594000000E+02  0.51100000000E-03 0.  1.
    9900012    2    1    2    0    0 -0.10565408353E+01 -0.40473811699E+00 -0.33622647343E+00  0.90007686600E+02  0.89999947263E+02 0.  0.
         12    1    1    2    0    0  0.10565408353E+01  0.40473811699E+00  0.33622647343E+00  0.11803133997E+01  0.00000000000E+00 0. -1.
         11    1    3    3    0    0  0.28516279522E+02 -0.91164741983E+01 -0.11755134391E+02  0.32163200780E+02  0.51100000000E-03 0. -1.
        -11    1    3    3    0    0  0.78198351460E+01 -0.47849113777E+01  0.15368250055E+02  0.17894924102E+02  0.51100000000E-03 0.  1.
        -12    1    3    3    0    0 -0.37392655503E+02  0.13496647459E+02 -0.39493421371E+01  0.39949561719E+02  0.00000000000E+00 0.  1.
</event>
<event>
 7    1  0.3795708E-015  0.9000769E+02  0.7816164E-02  0.1186339E+00
        -11   -1    0    0    0    0  0.00000000000E+00  0.00000000000E+00  0.45593999997E+02  0.45594000000E+02  0.51100000000E-03 0.  1.
         11   -1    0    0    0    0 -0.00000000000E+00 -0.00000000000E+00 -0.45593999997E+02  0.45594000000E+02  0.51100000000E-03 0. -1.
    9900012    2    1    2    0    0  0.11345256275E+01 -0.31366811229E-01  0.32403691752E+00  0.90007689786E+02  0.89999950492E+02 0.  0.
         12    1    1    2    0    0 -0.11345256275E+01  0.31366811229E-01 -0.32403691752E+00  0.11803102135E+01  0.00000000000E+00 0. -1.
         11    1    3    3    0    0 -0.74615564012E+01  0.54560539405E+01 -0.30503869726E-01  0.92436074818E+01  0.51100000000E-03 0. -1.
        -11    1    3    3    0    0  0.30542540528E+02  0.21410585872E+02 -0.18088055404E+02  0.41454043444E+02  0.51100000000E-03 0.  1.
         12    1    3    3    0    0 -0.21946458499E+02 -0.26898006623E+02  0.18442596191E+02  0.39310038861E+02  0.00000000000E+00 0. -1.
</event>
<event>
 7    1  0.3795708E-015  0.9000808E+02  0.7816164E-02  0.1186338E+00
        -11   -1    0    0    0    0  0.00000000000E+00  0.00000000000E+00  0.45593999997E+02  0.45594000000E+02  0.51100000000E-03 0.  1.
         11   -1    0    0    0    0 -0.00000000000E+00 -0.00000000000E+00 -0.45593999997E+02  0.45594000000E+02  0.51100000000E-03 0. -1.
    9900012    2    1    2    0    0  0.82626880306E+00  0.10131630680E+00  0.83620286650E+00  0.90008076120E+02  0.90000341924E+02 0.  0.
         12    1    1    2    0    0 -0.82626880306E+00 -0.10131630680E+00 -0.83620286650E+00  0.11799238801E+01  0.00000000000E+00 0. -1.
         11    1    3    3    0    0 -0.72499514144E+01  0.14704049724E+01  0.62839580147E+01  0.97062873894E+01  0.51100000000E-03 0. -1.
        -11    1    3    3    0    0  0.98892033068E+01  0.32530261999E+02  0.18547232406E+02  0.38730015724E+02  0.51100000000E-03 0.  1.
         12    1    3    3    0    0 -0.18129830894E+01 -0.33899350665E+02 -0.23994987554E+02  0.41571773007E+02  0.00000000000E+00 0. -1.
</event>
<event>
 7    1  0.3795708E-015  0.9000774E+02  0.7816164E-02  0.1186339E+00
        -11   -1    0    0    0    0  0.00000000000E+00  0.00000000000E+00  0.45593999997E+02  0.45594000000E+02  0.51100000000E-03 0.  1.
         11   -1    0    0    0    0 -0.00000000000E+00 -0.00000000000E+00 -0.45593999997E+02  0.45594000000E+02  0.51100000000E-03 0. -1.
    9900012    2    1    2    0    0  0.86101155146E+00 -0.70450385970E+00  0.39414789031E+00  0.90007737682E+02  0.89999999019E+02 0.  0.
         12    1    1    2    0    0 -0.86101155146E+00  0.70450385970E+00 -0.39414789031E+00  0.11802623181E+01  0.00000000000E+00 0. -1.
         11    1    3    3    0    0  0.48379997938E+01 -0.49600590265E+01 -0.35530713515E+01  0.77867030149E+01  0.51100000000E-03 0. -1.
        -11    1    3    3    0    0  0.18851332759E+02 -0.32981029255E+02 -0.24999069374E+01  0.38070599844E+02  0.51100000000E-03 0.  1.
         12    1    3    3    0    0 -0.22828321002E+02  0.37236584421E+02  0.64471261791E+01  0.44150434823E+02  0.00000000000E+00 0. -1.
</event>
<event>
 7    1  0.3795708E-015  0.9000775E+02  0.7816164E-02  0.1186339E+00
        -11   -1    0    0    0    0  0.00000000000E+00  0.00000000000E+00  0.45593999997E+02  0.45594000000E+02  0.51100000000E-03 0. -1.
         11   -1    0    0    0    0 -0.00000000000E+00 -0.00000000000E+00 -0.45593999997E+02  0.45594000000E+02  0.51100000000E-03 0.  1.
    9900012    2    1    2    0    0  0.11686880793E+01  0.10839635299E+00  0.12411492030E+00  0.90007751675E+02  0.90000013197E+02 0.  0.
         12    1    1    2    0    0 -0.11686880793E+01 -0.10839635299E+00 -0.12411492030E+00  0.11802483253E+01  0.00000000000E+00 0. -1.
         11    1    3    3    0    0 -0.44188350726E+01  0.33568698688E+01 -0.49439835144E+01  0.74322037086E+01  0.51100000000E-03 0. -1.
        -11    1    3    3    0    0  0.43777276422E+01 -0.26949507181E+02 -0.29787960374E+02  0.40407462431E+02  0.51100000000E-03 0.  1.
         12    1    3    3    0    0  0.12097955096E+01  0.23701033665E+02  0.34856058809E+02  0.42168085535E+02  0.00000000000E+00 0. -1.
</event>
<event>
 7    1  0.3795708E-015  0.9000767E+02  0.7816164E-02  0.1186339E+00
        -11   -1    0    0    0    0  0.00000000000E+00  0.00000000000E+00  0.45593999997E+02  0.45594000000E+02  0.51100000000E-03 0.  1.
         11   -1    0    0    0    0 -0.00000000000E+00 -0.00000000000E+00 -0.45593999997E+02  0.45594000000E+02  0.51100000000E-03 0. -1.
    9900012    2    1    2    0    0 -0.53282651151E+00  0.10529365643E+01  0.24383909933E-01  0.90007672048E+02  0.89999932519E+02 0.  0.
         12    1    1    2    0    0  0.53282651151E+00 -0.10529365643E+01 -0.24383909933E-01  0.11803279522E+01  0.00000000000E+00 0. -1.
         11    1    3    3    0    0 -0.93208617082E+01 -0.98483167231E+00  0.25143882394E+01  0.97041488491E+01  0.51100000000E-03 0. -1.
        -11    1    3    3    0    0 -0.13397689105E+02  0.20748779558E+02  0.28589183354E+02  0.37780303488E+02  0.51100000000E-03 0.  1.
         12    1    3    3    0    0  0.22185724301E+02 -0.18711011322E+02 -0.31079187684E+02  0.42523219711E+02  0.00000000000E+00 0. -1.
</event>
<event>
 7    1  0.3795708E-015  0.9000769E+02  0.7816164E-02  0.1186339E+00
        -11   -1    0    0    0    0  0.00000000000E+00  0.00000000000E+00  0.45593999997E+02  0.45594000000E+02  0.51100000000E-03 0.  1.
         11   -1    0    0    0    0 -0.00000000000E+00 -0.00000000000E+00 -0.45593999997E+02  0.45594000000E+02  0.51100000000E-03 0. -1.
    9900012    2    1    2    0    0 -0.64431498084E+00 -0.80791958577E+00  0.57031556178E+00  0.90007688307E+02  0.89999948993E+02 0.  0.
         12    1    1    2    0    0  0.64431498084E+00  0.80791958577E+00 -0.57031556178E+00  0.11803116926E+01  0.00000000000E+00 0. -1.
         11    1    3    3    0    0  0.39668838258E+02  0.10107289587E+02 -0.11917462186E+02  0.42635665079E+02  0.51100000000E-03 0. -1.
        -11    1    3    3    0    0 -0.88093373352E+01  0.41388296209E+01 -0.13257163414E+01  0.98230269772E+01  0.51100000000E-03 0.  1.
        -12    1    3    3    0    0 -0.31503815904E+02 -0.15054038793E+02  0.13813494089E+02  0.37548996251E+02  0.00000000000E+00 0.  1.
</event>
<event>
 7    1  0.3795708E-015  0.9000771E+02  0.7816164E-02  0.1186339E+00
        -11   -1    0    0    0    0  0.00000000000E+00  0.00000000000E+00  0.45593999997E+02  0.45594000000E+02  0.51100000000E-03 0.  1.
         11   -1    0    0    0    0 -0.00000000000E+00 -0.00000000000E+00 -0.45593999997E+02  0.45594000000E+02  0.51100000000E-03 0. -1.
    9900012    2    1    2    0    0 -0.51518526672E+00 -0.95086394238E+00  0.47277985008E+00  0.90007712373E+02  0.89999973376E+02 0.  0.
         12    1    1    2    0    0  0.51518526672E+00  0.95086394238E+00 -0.47277985008E+00  0.11802876271E+01  0.00000000000E+00 0. -1.
         11    1    3    3    0    0  0.27771785445E+02 -0.29978378986E+02  0.18390112891E+01  0.40906689383E+02  0.51100000000E-03 0. -1.
        -11    1    3    3    0    0  0.32384347086E+01  0.95017450978E+01  0.54116757709E+01  0.11404247199E+02  0.51100000000E-03 0.  1.
        -12    1    3    3    0    0 -0.31525405421E+02  0.19525769946E+02 -0.67779072099E+01  0.37696775791E+02  0.00000000000E+00 0.  1.
</event>
<event>
 7    1  0.3795708E-015  0.9000771E+02  0.7816164E-02  0.1186339E+00
        -11   -1    0    0    0    0  0.00000000000E+00  0.00000000000E+00  0.45593999997E+02  0.45594000000E+02  0.51100000000E-03 0.  1.
         11   -1    0    0    0    0 -0.00000000000E+00 -0.00000000000E+00 -0.45593999997E+02  0.45594000000E+02  0.51100000000E-03 0. -1.
    9900012    2    1    2    0    0  0.42859401828E+00 -0.57130494600E+00  0.93968742651E+00  0.90007705701E+02  0.89999966616E+02 0.  0.
         12    1    1    2    0    0 -0.42859401828E+00  0.57130494600E+00 -0.93968742651E+00  0.11802942995E+01  0.00000000000E+00 0. -1.
         11    1    3    3    0    0 -0.91071348228E+01 -0.72875430009E+01 -0.40126721091E+02  0.41787581091E+02  0.51100000000E-03 0. -1.
        -11    1    3    3    0    0  0.64422078843E+01  0.74715585114E+01  0.34231600383E+01  0.10442425672E+02  0.51100000000E-03 0.  1.
        -12    1    3    3    0    0  0.30935209568E+01 -0.75532045648E+00  0.37643248479E+02  0.37777698937E+02  0.00000000000E+00 0.  1.
</event>
<event>
 7    1  0.3795708E-015  0.9000766E+02  0.7816164E-02  0.1186339E+00
        -11   -1    0    0    0    0  0.00000000000E+00  0.00000000000E+00  0.45593999997E+02  0.45594000000E+02  0.51100000000E-03 0. -1.
         11   -1    0    0    0    0 -0.00000000000E+00 -0.00000000000E+00 -0.45593999997E+02  0.45594000000E+02  0.51100000000E-03 0.  1.
    9900012    2    1    2    0    0 -0.51508252589E+00 -0.89432303505E+00 -0.57279039213E+00  0.90007655757E+02  0.89999916013E+02 0.  0.
         12    1    1    2    0    0  0.51508252589E+00  0.89432303505E+00  0.57279039213E+00  0.11803442434E+01  0.00000000000E+00 0. -1.
         11    1    3    3    0    0 -0.37480421815E+01 -0.11857209892E+02  0.89489639978E+01  0.15320744222E+02  0.51100000000E-03 0. -1.
        -11    1    3    3    0    0 -0.38230677214E+01  0.41019704315E+02  0.31411025749E+01  0.41317048716E+02  0.51100000000E-03 0.  1.
         12    1    3    3    0    0  0.70560273770E+01 -0.30056817458E+02 -0.12662856965E+02  0.33369862819E+02  0.00000000000E+00 0. -1.
</event>
<event>
 7    1  0.3795708E-015  0.9000774E+02  0.7816164E-02  0.1186339E+00
        -11   -1    0    0    0    0  0.00000000000E+00  0.00000000000E+00  0.45593999997E+02  0.45594000000E+02  0.51100000000E-03 0.  1.
         11   -1    0    0    0    0 -0.00000000000E+00 -0.00000000000E+00 -0.45593999997E+02  0.45594000000E+02  0.51100000000E-03 0. -1.
    9900012    2    1    2    0    0  0.10228209390E+01 -0.16283557785E+00  0.56597345851E+00  0.90007744072E+02  0.90000005494E+02 0.  0.
         12    1    1    2    0    0 -0.10228209390E+01  0.16283557785E+00 -0.56597345851E+00  0.11802559275E+01  0.00000000000E+00 0. -1.
         11    1    3    3    0    0  0.37450482592E+01 -0.36173159109E+02  0.49803476394E+01  0.36705948962E+02  0.51100000000E-03 0. -1.
        -11    1    3    3    0    0 -0.61671557280E+01 -0.73478561010E+01 -0.14991496173E+01  0.97093897281E+01  0.51100000000E-03 0.  1.
        -12    1    3    3    0    0  0.34449284079E+01  0.43358179632E+02 -0.29152245636E+01  0.43592405382E+02  0.00000000000E+00 0.  1.
</event>
<event>
 7    1  0.3795708E-015  0.9000779E+02  0.7816164E-02  0.1186339E+00
        -11   -1    0    0    0    0  0.00000000000E+00  0.00000000000E+00  0.45593999997E+02  0.45594000000E+02  0.51100000000E-03 0.  1.
         11   -1    0    0    0    0 -0.00000000000E+00 -0.00000000000E+00 -0.45593999997E+02  0.45594000000E+02  0.51100000000E-03 0. -1.
    9900012    2    1    2    0    0 -0.73407438980E+00  0.90178145184E+00 -0.20206184766E+00  0.90007786466E+02  0.90000048447E+02 0.  0.
         12    1    1    2    0    0  0.73407438980E+00 -0.90178145184E+00  0.20206184766E+00  0.11802135345E+01  0.00000000000E+00 0. -1.
         11    1    3    3    0    0  0.12338498552E+02 -0.77276459900E+01 -0.49250714073E-01  0.14558759733E+02  0.51100000000E-03 0. -1.
        -11    1    3    3    0    0  0.24316733274E+02 -0.14939437269E+02  0.97436421441E+01  0.30156738311E+02  0.51100000000E-03 0.  1.
         12    1    3    3    0    0 -0.37389306216E+02  0.23568864711E+02 -0.98964532777E+01  0.45292288422E+02  0.00000000000E+00 0. -1.
</event>
<event>
 7    1  0.3795708E-015  0.9000776E+02  0.7816164E-02  0.1186339E+00
        -11   -1    0    0    0    0  0.00000000000E+00  0.00000000000E+00  0.45593999997E+02  0.45594000000E+02  0.51100000000E-03 0. -1.
         11   -1    0    0    0    0 -0.00000000000E+00 -0.00000000000E+00 -0.45593999997E+02  0.45594000000E+02  0.51100000000E-03 0.  1.
    9900012    2    1    2    0    0 -0.10992074290E+01 -0.32472811310E+00  0.28152203027E+00  0.90007762747E+02  0.90000024415E+02 0.  0.
         12    1    1    2    0    0  0.10992074290E+01  0.32472811310E+00 -0.28152203027E+00  0.11802372528E+01  0.00000000000E+00 0. -1.
         11    1    3    3    0    0 -0.18101113604E+02 -0.23826433502E+02 -0.21563201656E+02  0.36882528561E+02  0.51100000000E-03 0. -1.
        -11    1    3    3    0    0 -0.58283943938E+01  0.21557056023E+01 -0.78508009656E+01  0.10012608247E+02  0.51100000000E-03 0.  1.
        -12    1    3    3    0    0  0.22830300569E+02  0.21345999787E+02  0.29695524652E+02  0.43112625939E+02  0.00000000000E+00 0.  1.
</event>
<event>
 7    1  0.3795708E-015  0.9000775E+02  0.7816164E-02  0.1186339E+00
        -11   -1    0    0    0    0  0.00000000000E+00  0.00000000000E+00  0.45593999997E+02  0.45594000000E+02  0.51100000000E-03 0.  1.
         11   -1    0    0    0    0 -0.00000000000E+00 -0.00000000000E+00 -0.45593999997E+02  0.45594000000E+02  0.51100000000E-03 0. -1.
    9900012    2    1    2    0    0  0.94969279151E+00 -0.62031879622E+00  0.32599585640E+00  0.90007752100E+02  0.90000013628E+02 0.  0.
         12    1    1    2    0    0 -0.94969279151E+00  0.62031879622E+00 -0.32599585640E+00  0.11802479000E+01  0.00000000000E+00 0. -1.
         11    1    3    3    0    0 -0.64734349448E+01 -0.25127042839E+02 -0.76888459671E+01  0.27062741812E+02  0.51100000000E-03 0. -1.
        -11    1    3    3    0    0 -0.79115374550E+01 -0.13779177969E+02 -0.90793060388E+01  0.18300053793E+02  0.51100000000E-03 0.  1.
        -12    1    3    3    0    0  0.15334665191E+02  0.38285902011E+02  0.17094147862E+02  0.44644956496E+02  0.00000000000E+00 0.  1.
</event>
<event>
 7    1  0.3795708E-015  0.9000781E+02  0.7816164E-02  0.1186339E+00
        -11   -1    0    0    0    0  0.00000000000E+00  0.00000000000E+00  0.45593999997E+02  0.45594000000E+02  0.51100000000E-03 0.  1.
         11   -1    0    0    0    0 -0.00000000000E+00 -0.00000000000E+00 -0.45593999997E+02  0.45594000000E+02  0.51100000000E-03 0. -1.
    9900012    2    1    2    0    0  0.29517806078E+00 -0.73944752993E+00  0.87116488780E+00  0.90007813151E+02  0.90000075484E+02 0.  0.
         12    1    1    2    0    0 -0.29517806078E+00  0.73944752993E+00 -0.87116488780E+00  0.11801868491E+01  0.00000000000E+00 0. -1.
         11    1    3    3    0    0 -0.44943394533E+01  0.36380066936E+01  0.45600663667E+01  0.73639924873E+01  0.51100000000E-03 0. -1.
        -11    1    3    3    0    0 -0.20234343209E+02  0.28767842549E+02  0.13531457001E+02  0.37684449563E+02  0.51100000000E-03 0.  1.
         12    1    3    3    0    0  0.25023860723E+02 -0.33145296772E+02 -0.17220358480E+02  0.44959371101E+02  0.00000000000E+00 0. -1.
</event>
<event>
 7    1  0.3795708E-015  0.9000795E+02  0.7816164E-02  0.1186339E+00
        -11   -1    0    0    0    0  0.00000000000E+00  0.00000000000E+00  0.45593999997E+02  0.45594000000E+02  0.51100000000E-03 0.  1.
         11   -1    0    0    0    0 -0.00000000000E+00 -0.00000000000E+00 -0.45593999997E+02  0.45594000000E+02  0.51100000000E-03 0. -1.
    9900012    2    1    2    0    0 -0.12266177526E+00  0.63428938907E+00  0.98749546045E+00  0.90007950753E+02  0.90000214903E+02 0.  0.
         12    1    1    2    0    0  0.12266177526E+00 -0.63428938907E+00 -0.98749546045E+00  0.11800492467E+01  0.00000000000E+00 0. -1.
         11    1    3    3    0    0  0.97793210271E+00 -0.82381261933E+01 -0.35243039592E+02  0.36206282802E+02  0.51100000000E-03 0. -1.
        -11    1    3    3    0    0  0.31476243662E+01 -0.42812032846E+01 -0.67859493582E+01  0.86188949215E+01  0.51100000000E-03 0.  1.
        -12    1    3    3    0    0 -0.42482182442E+01  0.13153618867E+02  0.43016484411E+02  0.45182773030E+02  0.00000000000E+00 0.  1.
</event>
<event>
 7    1  0.3795708E-015  0.9000773E+02  0.7816164E-02  0.1186339E+00
        -11   -1    0    0    0    0  0.00000000000E+00  0.00000000000E+00  0.45593999997E+02  0.45594000000E+02  0.51100000000E-03 0. -1.
         11   -1    0    0    0    0 -0.00000000000E+00 -0.00000000000E+00 -0.45593999997E+02  0.45594000000E+02  0.51100000000E-03 0.  1.
    9900012    2    1    2    0    0 -0.19114137074E+00 -0.96467206618E+00 -0.65262039803E+00  0.90007728589E+02  0.89999989807E+02 0.  0.
         12    1    1    2    0    0  0.19114137074E+00  0.96467206618E+00  0.65262039803E+00  0.11802714107E+01  0.00000000000E+00 0. -1.
         11    1    3    3    0    0  0.32981816164E+02  0.14332117692E+02 -0.11023878192E+02  0.37612972306E+02  0.51100000000E-03 0. -1.
        -11    1    3    3    0    0  0.72165156194E+01 -0.25251439430E+01  0.61731197188E+01  0.98265892832E+01  0.51100000000E-03 0.  1.
        -12    1    3    3    0    0 -0.40389473154E+02 -0.12771645815E+02  0.41981380752E+01  0.42568167001E+02  0.00000000000E+00 0.  1.
</event>
<event>
 7    1  0.3795708E-015  0.9000777E+02  0.7816164E-02  0.1186339E+00
        -11   -1    0    0    0    0  0.00000000000E+00  0.00000000000E+00  0.45593999997E+02  0.45594000000E+02  0.51100000000E-03 0. -1.
         11   -1    0    0    0    0 -0.00000000000E+00 -0.00000000000E+00 -0.45593999997E+02  0.45594000000E+02  0.51100000000E-03 0.  1.
    9900012    2    1    2    0    0 -0.70479171138E+00  0.85716391107E+00 -0.40185843162E+00  0.90007766326E+02  0.90000028041E+02 0.  0.
         12    1    1    2    0    0  0.70479171138E+00 -0.85716391107E+00  0.40185843162E+00  0.11802336743E+01  0.00000000000E+00 0. -1.
         11    1    3    3    0    0 -0.98624543319E+01  0.65275170727E-01  0.34072996207E+01  0.10434651756E+02  0.51100000000E-03 0. -1.
        -11    1    3    3    0    0  0.41206164931E+01 -0.55732911699E+01 -0.40961811700E+02  0.41544085894E+02  0.51100000000E-03 0.  1.
         12    1    3    3    0    0  0.50370461274E+01  0.63651799102E+01  0.37152653648E+02  0.38029028676E+02  0.00000000000E+00 0. -1.
</event>
<event>
 7    1  0.3795708E-015  0.9000783E+02  0.7816164E-02  0.1186339E+00
        -11   -1    0    0    0    0  0.00000000000E+00  0.00000000000E+00  0.45593999997E+02  0.45594000000E+02  0.51100000000E-03 0. -1.
         11   -1    0    0    0    0 -0.00000000000E+00 -0.00000000000E+00 -0.45593999997E+02  0.45594000000E+02  0.51100000000E-03 0.  1.
    9900012    2    1    2    0    0  0.43979914550E+00  0.88520255908E+00  0.64483033449E+00  0.90007825005E+02  0.90000087495E+02 0.  0.
         12    1    1    2    0    0 -0.43979914550E+00 -0.88520255908E+00 -0.64483033449E+00  0.11801749952E+01  0.00000000000E+00 0. -1.
         11    1    3    3    0    0  0.37329465508E+01 -0.27769322515E+02  0.27054925405E+02  0.38949186792E+02  0.51100000000E-03 0. -1.
        -11    1    3    3    0    0 -0.85030221753E+01  0.40192737119E+01  0.51195521201E+01  0.10708210002E+02  0.51100000000E-03 0.  1.
        -12    1    3    3    0    0  0.52098747700E+01  0.24635251362E+02 -0.31529647190E+02  0.40350428210E+02  0.00000000000E+00 0.  1.
</event>
<event>
 7    1  0.3795708E-015  0.9000807E+02  0.7816164E-02  0.1186338E+00
        -11   -1    0    0    0    0  0.00000000000E+00  0.00000000000E+00  0.45593999997E+02  0.45594000000E+02  0.51100000000E-03 0.  1.
         11   -1    0    0    0    0 -0.00000000000E+00 -0.00000000000E+00 -0.45593999997E+02  0.45594000000E+02  0.51100000000E-03 0. -1.
    9900012    2    1    2    0    0  0.61750769018E+00 -0.29297383681E+00  0.96181929983E+00  0.90008065348E+02  0.90000331010E+02 0.  0.
         12    1    1    2    0    0 -0.61750769018E+00  0.29297383681E+00 -0.96181929983E+00  0.11799346516E+01  0.00000000000E+00 0. -1.
         11    1    3    3    0    0  0.55224872392E+01 -0.80658829275E+01 -0.14719047329E+01  0.98854861545E+01  0.51100000000E-03 0. -1.
        -11    1    3    3    0    0 -0.33430899989E+02 -0.97873548828E+01  0.22124371547E+02  0.41266272018E+02  0.51100000000E-03 0.  1.
         12    1    3    3    0    0  0.28525920440E+02  0.17560263974E+02 -0.19690647514E+02  0.38856307175E+02  0.00000000000E+00 0. -1.
</event>
<event>
 7    1  0.3795708E-015  0.9000776E+02  0.7816164E-02  0.1186339E+00
        -11   -1    0    0    0    0  0.00000000000E+00  0.00000000000E+00  0.45593999997E+02  0.45594000000E+02  0.51100000000E-03 0.  1.
         11   -1    0    0    0    0 -0.00000000000E+00 -0.00000000000E+00 -0.45593999997E+02  0.45594000000E+02  0.51100000000E-03 0. -1.
    9900012    2    1    2    0    0 -0.40146753912E+00  0.10856655693E+01 -0.23049864812E+00  0.90007756152E+02  0.90000017733E+02 0.  0.
         12    1    1    2    0    0  0.40146753912E+00 -0.10856655693E+01  0.23049864812E+00  0.11802438478E+01  0.00000000000E+00 0. -1.
         11    1    3    3    0    0  0.51951831665E+01 -0.17808697790E+02 -0.32632609239E+02  0.37537006156E+02  0.51100000000E-03 0. -1.
        -11    1    3    3    0    0 -0.41020373912E+01 -0.67149069470E+01 -0.32795256507E+01  0.85247859105E+01  0.51100000000E-03 0.  1.
        -12    1    3    3    0    0 -0.14946133144E+01  0.25609270306E+02  0.35681636242E+02  0.43945964086E+02  0.00000000000E+00 0.  1.
</event>
<event>
 7    1  0.3795708E-015  0.9000764E+02  0.7816164E-02  0.1186339E+00
        -11   -1    0    0    0    0  0.00000000000E+00  0.00000000000E+00  0.45593999997E+02  0.45594000000E+02  0.51100000000E-03 0.  1.
         11   -1    0    0    0    0 -0.00000000000E+00 -0.00000000000E+00 -0.45593999997E+02  0.45594000000E+02  0.51100000000E-03 0. -1.
    9900012    2    1    2    0    0  0.73750741941E+00  0.88556647362E+00  0.25515928821E+00  0.90007639277E+02  0.89999899316E+02 0.  0.
         12    1    1    2    0    0 -0.73750741941E+00 -0.88556647362E+00 -0.25515928821E+00  0.11803607225E+01  0.00000000000E+00 0. -1.
         11    1    3    3    0    0 -0.78834770395E+01  0.97533864794E+00  0.24664250427E+01  0.83176768670E+01  0.51100000000E-03 0. -1.
        -11    1    3    3    0    0 -0.15353043149E+02 -0.29335992152E+02  0.19157631882E+02  0.38253512637E+02  0.51100000000E-03 0.  1.
         12    1    3    3    0    0  0.23974027608E+02  0.29246219977E+02 -0.21368897637E+02  0.43436449774E+02  0.00000000000E+00 0. -1.
</event>
<event>
 7    1  0.3795708E-015  0.9000772E+02  0.7816164E-02  0.1186339E+00
        -11   -1    0    0    0    0  0.00000000000E+00  0.00000000000E+00  0.45593999997E+02  0.45594000000E+02  0.51100000000E-03 0. -1.
         11   -1    0    0    0    0 -0.00000000000E+00 -0.00000000000E+00 -0.45593999997E+02  0.45594000000E+02  0.51100000000E-03 0.  1.
    9900012    2    1    2    0    0  0.86084486310E+00  0.80617762537E+00  0.45559817840E-01  0.90007723787E+02  0.89999984941E+02 0.  0.
         12    1    1    2    0    0 -0.86084486310E+00 -0.80617762537E+00 -0.45559817840E-01  0.11802762130E+01  0.00000000000E+00 0. -1.
         11    1    3    3    0    0 -0.30297045409E+02 -0.17029523781E+02  0.90850137026E+00  0.34766952925E+02  0.51100000000E-03 0. -1.
        -11    1    3    3    0    0 -0.65632869743E+01  0.33359305887E+01 -0.11314605109E+02  0.13499091000E+02  0.51100000000E-03 0.  1.
        -12    1    3    3    0    0  0.37721177246E+02  0.14499770817E+02  0.10451663556E+02  0.41741679862E+02  0.00000000000E+00 0.  1.
</event>
<event>
 7    1  0.3795708E-015  0.9000785E+02  0.7816164E-02  0.1186339E+00
        -11   -1    0    0    0    0  0.00000000000E+00  0.00000000000E+00  0.45593999997E+02  0.45594000000E+02  0.51100000000E-03 0. -1.
         11   -1    0    0    0    0 -0.00000000000E+00 -0.00000000000E+00 -0.45593999997E+02  0.45594000000E+02  0.51100000000E-03 0.  1.
    9900012    2    1    2    0    0  0.19498162754E+00 -0.11338235450E+01  0.26304092412E+00  0.90007845691E+02  0.90000108454E+02 0.  0.
         12    1    1    2    0    0 -0.19498162754E+00  0.11338235450E+01 -0.26304092412E+00  0.11801543094E+01  0.00000000000E+00 0. -1.
         11    1    3    3    0    0  0.88159396899E+01 -0.27782946592E+01 -0.11971248511E+01  0.93205591033E+01  0.51100000000E-03 0. -1.
        -11    1    3    3    0    0  0.42943878434E+01 -0.36464466962E+02 -0.11397723731E+02  0.38444859530E+02  0.51100000000E-03 0.  1.
         12    1    3    3    0    0 -0.12915345906E+02  0.38108938076E+02  0.12857889506E+02  0.42242427057E+02  0.00000000000E+00 0. -1.
</event>
