<event>
 7    1  0.2153242E-013  0.7246161E+02  0.7816164E-02  0.1226708E+00
        -11   -1    0    0    0    0  0.00000000000E+00  0.00000000000E+00  0.45593999997E+02  0.45594000000E+02  0.51100000000E-03 0. -1.
         11   -1    0    0    0    0 -0.00000000000E+00 -0.00000000000E+00 -0.45593999997E+02  0.45594000000E+02  0.51100000000E-03 0.  1.
    9900012    2    1    2    0    0 -0.16043153792E+02  0.96209200432E+01  0.85605440448E+00  0.72461609125E+02  0.70000050584E+02 0.  0.
         12    1    1    2    0    0  0.16043153792E+02 -0.96209200432E+01 -0.85605440448E+00  0.18726390875E+02  0.00000000000E+00 0. -1.
         11    1    3    3    0    0  0.77743116189E+01  0.81375739906E+01  0.17928884922E+02  0.21168489469E+02  0.51100000000E-03 0. -1.
        -11    1    3    3    0    0  0.37040094371E+01  0.28715352633E+01  0.10999241241E+02  0.11956115959E+02  0.51100000000E-03 0.  1.
        -12    1    3    3    0    0 -0.27521474848E+02 -0.13881892108E+01 -0.28072071758E+02  0.39337003697E+02  0.00000000000E+00 0.  1.
</event>
<event>
 7    1  0.2153242E-013  0.7246163E+02  0.7816164E-02  0.1226708E+00
        -11   -1    0    0    0    0  0.00000000000E+00  0.00000000000E+00  0.45593999997E+02  0.45594000000E+02  0.51100000000E-03 0.  1.
         11   -1    0    0    0    0 -0.00000000000E+00 -0.00000000000E+00 -0.45593999997E+02  0.45594000000E+02  0.51100000000E-03 0. -1.
    9900012    2    1    2    0    0 -0.82966979001E+01 -0.16388505556E+02  0.36412516481E+01  0.72461627581E+02  0.70000074627E+02 0.  0.
         12    1    1    2    0    0  0.82966979001E+01  0.16388505556E+02 -0.36412516481E+01  0.18726372419E+02  0.00000000000E+00 0. -1.
         11    1    3    3    0    0  0.34984621876E+01 -0.76472182386E+01  0.34910217313E+00  0.84167129602E+01  0.51100000000E-03 0. -1.
        -11    1    3    3    0    0 -0.23345867726E+02 -0.30750899788E+02 -0.18856648908E+01  0.38654923490E+02  0.51100000000E-03 0.  1.
         12    1    3    3    0    0  0.11550707639E+02  0.22009612470E+02  0.51778143658E+01  0.25389991131E+02  0.00000000000E+00 0. -1.
</event>
<event>
 7    1  0.2153242E-013  0.7246139E+02  0.7816164E-02  0.1226708E+00
        -11   -1    0    0    0    0  0.00000000000E+00  0.00000000000E+00  0.45593999997E+02  0.45594000000E+02  0.51100000000E-03 0.  1.
         11   -1    0    0    0    0 -0.00000000000E+00 -0.00000000000E+00 -0.45593999997E+02  0.45594000000E+02  0.51100000000E-03 0. -1.
    9900012    2    1    2    0    0 -0.34529834198E+01 -0.18398400899E+02  0.51159443794E+00  0.72461388480E+02  0.69999763153E+02 0.  0.
         12    1    1    2    0    0  0.34529834198E+01  0.18398400899E+02 -0.51159443794E+00  0.18726611520E+02  0.00000000000E+00 0. -1.
         11    1    3    3    0    0 -0.13069891820E+02 -0.12757200356E+02 -0.51671294693E+01  0.18980712851E+02  0.51100000000E-03 0. -1.
        -11    1    3    3    0    0 -0.82466737948E+01  0.69754615722E+01  0.23112888964E+02  0.25512160421E+02  0.51100000000E-03 0.  1.
         12    1    3    3    0    0  0.17863582195E+02 -0.12616662115E+02 -0.17434165056E+02  0.27968515209E+02  0.00000000000E+00 0. -1.
</event>
<event>
 7    1  0.2153242E-013  0.7246160E+02  0.7816164E-02  0.1226708E+00
        -11   -1    0    0    0    0  0.00000000000E+00  0.00000000000E+00  0.45593999997E+02  0.45594000000E+02  0.51100000000E-03 0. -1.
         11   -1    0    0    0    0 -0.00000000000E+00 -0.00000000000E+00 -0.45593999997E+02  0.45594000000E+02  0.51100000000E-03 0.  1.
    9900012    2    1    2    0    0  0.17730258525E+02  0.38373851075E+01  0.46465471296E+01  0.72461601733E+02  0.70000040954E+02 0.  0.
         12    1    1    2    0    0 -0.17730258525E+02 -0.38373851075E+01 -0.46465471296E+01  0.18726398267E+02  0.00000000000E+00 0. -1.
         11    1    3    3    0    0 -0.21860924489E+00 -0.13012687350E+02  0.57647399469E+01  0.14234115673E+02  0.51100000000E-03 0. -1.
        -11    1    3    3    0    0  0.12343183345E+01 -0.18689422126E+02  0.19645204775E+01  0.18832880346E+02  0.51100000000E-03 0.  1.
        -12    1    3    3    0    0  0.16714549436E+02  0.35539494583E+02 -0.30827132948E+01  0.39394605714E+02  0.00000000000E+00 0.  1.
</event>
<event>
 7    1  0.2153242E-013  0.7246160E+02  0.7816164E-02  0.1226708E+00
        -11   -1    0    0    0    0  0.00000000000E+00  0.00000000000E+00  0.45593999997E+02  0.45594000000E+02  0.51100000000E-03 0. -1.
         11   -1    0    0    0    0 -0.00000000000E+00 -0.00000000000E+00 -0.45593999997E+02  0.45594000000E+02  0.51100000000E-03 0.  1.
    9900012    2    1    2    0    0  0.28273047780E+01  0.18309825202E+02 -0.27266546654E+01  0.72461601604E+02  0.70000040787E+02 0.  0.
         12    1    1    2    0    0 -0.28273047780E+01 -0.18309825202E+02  0.27266546654E+01  0.18726398396E+02  0.00000000000E+00 0. -1.
         11    1    3    3    0    0  0.79294052722E+01 -0.12750762472E+01  0.29575201595E+01  0.85585169955E+01  0.51100000000E-03 0. -1.
        -11    1    3    3    0    0 -0.19815490110E+02  0.86135453722E+00 -0.25930639614E+02  0.32646495233E+02  0.51100000000E-03 0.  1.
         12    1    3    3    0    0  0.14713389616E+02  0.18723546912E+02  0.20246464789E+02  0.31256589376E+02  0.00000000000E+00 0. -1.
</event>
<event>
 7    1  0.2153242E-013  0.7246185E+02  0.7816164E-02  0.1226707E+00
        -11   -1    0    0    0    0  0.00000000000E+00  0.00000000000E+00  0.45593999997E+02  0.45594000000E+02  0.51100000000E-03 0. -1.
         11   -1    0    0    0    0 -0.00000000000E+00 -0.00000000000E+00 -0.45593999997E+02  0.45594000000E+02  0.51100000000E-03 0.  1.
    9900012    2    1    2    0    0 -0.70168147015E+01  0.54087003353E+01 -0.16497848580E+02  0.72461848884E+02  0.70000362913E+02 0.  0.
         12    1    1    2    0    0  0.70168147015E+01 -0.54087003353E+01  0.16497848580E+02  0.18726151116E+02  0.00000000000E+00 0. -1.
         11    1    3    3    0    0  0.18191664273E+02  0.11580175638E+02 -0.12901447367E+02  0.25129354573E+02  0.51100000000E-03 0. -1.
        -11    1    3    3    0    0 -0.29480385954E+01  0.51338269458E+01  0.15049162346E+02  0.16171715995E+02  0.51100000000E-03 0.  1.
        -12    1    3    3    0    0 -0.22260440379E+02 -0.11305302249E+02 -0.18645563558E+02  0.31160778315E+02  0.00000000000E+00 0.  1.
</event>
<event>
 7    1  0.2153242E-013  0.7246161E+02  0.7816164E-02  0.1226708E+00
        -11   -1    0    0    0    0  0.00000000000E+00  0.00000000000E+00  0.45593999997E+02  0.45594000000E+02  0.51100000000E-03 0. -1.
         11   -1    0    0    0    0 -0.00000000000E+00 -0.00000000000E+00 -0.45593999997E+02  0.45594000000E+02  0.51100000000E-03 0.  1.
    9900012    2    1    2    0    0 -0.47797369031E+01 -0.90008772876E+01 -0.15710378668E+02  0.72461610207E+02  0.70000051993E+02 0.  0.
         12    1    1    2    0    0  0.47797369031E+01  0.90008772876E+01  0.15710378668E+02  0.18726389793E+02  0.00000000000E+00 0. -1.
         11    1    3    3    0    0  0.34993925356E+01 -0.76225784430E+01 -0.51710105509E+01  0.98533649387E+01  0.51100000000E-03 0. -1.
        -11    1    3    3    0    0 -0.27920942810E+01 -0.30887492836E+02 -0.10009068735E+02  0.32588563353E+02  0.51100000000E-03 0.  1.
        -12    1    3    3    0    0 -0.54870351577E+01  0.29509193992E+02 -0.53029938131E+00  0.30019681915E+02  0.00000000000E+00 0.  1.
</event>
<event>
 7    1  0.2153242E-013  0.7246157E+02  0.7816164E-02  0.1226708E+00
        -11   -1    0    0    0    0  0.00000000000E+00  0.00000000000E+00  0.45593999997E+02  0.45594000000E+02  0.51100000000E-03 0.  1.
         11   -1    0    0    0    0 -0.00000000000E+00 -0.00000000000E+00 -0.45593999997E+02  0.45594000000E+02  0.51100000000E-03 0. -1.
    9900012    2    1    2    0    0  0.18131858884E+01  0.18080043114E+02  0.45280766974E+01  0.72461572667E+02  0.70000003091E+02 0.  0.
         12    1    1    2    0    0 -0.18131858884E+01 -0.18080043114E+02 -0.45280766974E+01  0.18726427333E+02  0.00000000000E+00 0. -1.
         11    1    3    3    0    0  0.12116030801E+02 -0.18828224164E+02 -0.45200331773E+01  0.22841430071E+02  0.51100000000E-03 0. -1.
        -11    1    3    3    0    0 -0.18216891724E+02  0.10304039128E+02  0.22991670303E+01  0.21055035875E+02  0.51100000000E-03 0.  1.
        -12    1    3    3    0    0  0.79140468118E+01  0.26604228150E+02  0.67489428444E+01  0.28565106720E+02  0.00000000000E+00 0.  1.
</event>
<event>
 7    1  0.2153242E-013  0.7246160E+02  0.7816164E-02  0.1226708E+00
        -11   -1    0    0    0    0  0.00000000000E+00  0.00000000000E+00  0.45593999997E+02  0.45594000000E+02  0.51100000000E-03 0.  1.
         11   -1    0    0    0    0 -0.00000000000E+00 -0.00000000000E+00 -0.45593999997E+02  0.45594000000E+02  0.51100000000E-03 0. -1.
    9900012    2    1    2    0    0 -0.69113347371E+01  0.51399752294E+00  0.17396759682E+02  0.72461601821E+02  0.70000041070E+02 0.  0.
         12    1    1    2    0    0  0.69113347371E+01 -0.51399752294E+00 -0.17396759682E+02  0.18726398179E+02  0.00000000000E+00 0. -1.
         11    1    3    3    0    0  0.18786134176E+02  0.20475547657E+02  0.77369296272E+01  0.28844877699E+02  0.51100000000E-03 0. -1.
        -11    1    3    3    0    0 -0.99489773423E+00  0.49931630761E+00  0.11437546180E+02  0.11491588279E+02  0.51100000000E-03 0.  1.
        -12    1    3    3    0    0 -0.24702571179E+02 -0.20460866442E+02 -0.17777161253E+01  0.32125135844E+02  0.00000000000E+00 0.  1.
</event>
<event>
 7    1  0.2153242E-013  0.7246157E+02  0.7816164E-02  0.1226708E+00
        -11   -1    0    0    0    0  0.00000000000E+00  0.00000000000E+00  0.45593999997E+02  0.45594000000E+02  0.51100000000E-03 0.  1.
         11   -1    0    0    0    0 -0.00000000000E+00 -0.00000000000E+00 -0.45593999997E+02  0.45594000000E+02  0.51100000000E-03 0. -1.
    9900012    2    1    2    0    0 -0.10509131712E+02  0.94407454117E+01  0.12292672273E+02  0.72461566413E+02  0.69999994944E+02 0.  0.
         12    1    1    2    0    0  0.10509131712E+02 -0.94407454117E+01 -0.12292672273E+02  0.18726433587E+02  0.00000000000E+00 0. -1.
         11    1    3    3    0    0 -0.14315435190E+01 -0.78005343310E+00 -0.41215130813E+01  0.44322308769E+01  0.51100000000E-03 0. -1.
        -11    1    3    3    0    0  0.16672823438E+02  0.27455452673E+02  0.18331766645E+02  0.36984301960E+02  0.51100000000E-03 0.  1.
         12    1    3    3    0    0 -0.25750411631E+02 -0.17234653828E+02 -0.19175812910E+01  0.31045033576E+02  0.00000000000E+00 0. -1.
</event>
<event>
 7    1  0.2153242E-013  0.7246157E+02  0.7816164E-02  0.1226708E+00
        -11   -1    0    0    0    0  0.00000000000E+00  0.00000000000E+00  0.45593999997E+02  0.45594000000E+02  0.51100000000E-03 0.  1.
         11   -1    0    0    0    0 -0.00000000000E+00 -0.00000000000E+00 -0.45593999997E+02  0.45594000000E+02  0.51100000000E-03 0. -1.
    9900012    2    1    2    0    0  0.59737607243E+00 -0.18648562746E+02 -0.15979552027E+01  0.72461569173E+02  0.69999998540E+02 0.  0.
         12    1    1    2    0    0 -0.59737607243E+00  0.18648562746E+02  0.15979552027E+01  0.18726430827E+02  0.00000000000E+00 0. -1.
         11    1    3    3    0    0 -0.13900287563E+02 -0.27972871597E+00  0.36259708593E+01  0.14368156020E+02  0.51100000000E-03 0. -1.
        -11    1    3    3    0    0 -0.58633352132E+01 -0.32039058481E+02 -0.76250217193E+01  0.33451770127E+02  0.51100000000E-03 0.  1.
         12    1    3    3    0    0  0.20360998849E+02  0.13670224451E+02  0.24010956573E+01  0.24641643026E+02  0.00000000000E+00 0. -1.
</event>
<event>
 7    1  0.2153242E-013  0.7246157E+02  0.7816164E-02  0.1226708E+00
        -11   -1    0    0    0    0  0.00000000000E+00  0.00000000000E+00  0.45593999997E+02  0.45594000000E+02  0.51100000000E-03 0. -1.
         11   -1    0    0    0    0 -0.00000000000E+00 -0.00000000000E+00 -0.45593999997E+02  0.45594000000E+02  0.51100000000E-03 0.  1.
    9900012    2    1    2    0    0 -0.18707634657E+01 -0.14180808480E+02 -0.12086518159E+02  0.72461574652E+02  0.70000005677E+02 0.  0.
         12    1    1    2    0    0  0.18707634657E+01  0.14180808480E+02  0.12086518159E+02  0.18726425348E+02  0.00000000000E+00 0. -1.
         11    1    3    3    0    0 -0.19991982682E+01  0.22386545088E+02  0.11892890333E+02  0.25428233038E+02  0.51100000000E-03 0. -1.
        -11    1    3    3    0    0  0.12584447019E+01  0.63423121537E+00  0.13989005206E+01  0.19856624159E+01  0.51100000000E-03 0.  1.
        -12    1    3    3    0    0 -0.11300098994E+01 -0.37201584783E+02 -0.25378309013E+02  0.45047679198E+02  0.00000000000E+00 0.  1.
</event>
<event>
 7    1  0.2153242E-013  0.7246153E+02  0.7816164E-02  0.1226708E+00
        -11   -1    0    0    0    0  0.00000000000E+00  0.00000000000E+00  0.45593999997E+02  0.45594000000E+02  0.51100000000E-03 0. -1.
         11   -1    0    0    0    0 -0.00000000000E+00 -0.00000000000E+00 -0.45593999997E+02  0.45594000000E+02  0.51100000000E-03 0.  1.
    9900012    2    1    2    0    0  0.20510476987E+01 -0.13760027916E+02 -0.12535366414E+02  0.72461532740E+02  0.69999951078E+02 0.  0.
         12    1    1    2    0    0 -0.20510476987E+01  0.13760027916E+02  0.12535366414E+02  0.18726467260E+02  0.00000000000E+00 0. -1.
         11    1    3    3    0    0  0.21391056003E+02 -0.38763637646E+01  0.81739240007E+01  0.23225341909E+02  0.51100000000E-03 0. -1.
        -11    1    3    3    0    0 -0.12588702425E+01 -0.14949702011E+02  0.63572624332E+01  0.16293959937E+02  0.51100000000E-03 0.  1.
        -12    1    3    3    0    0 -0.18081138062E+02  0.50660378599E+01 -0.27066552848E+02  0.32942230894E+02  0.00000000000E+00 0.  1.
</event>
<event>
 7    1  0.2153242E-013  0.7246167E+02  0.7816164E-02  0.1226708E+00
        -11   -1    0    0    0    0  0.00000000000E+00  0.00000000000E+00  0.45593999997E+02  0.45594000000E+02  0.51100000000E-03 0.  1.
         11   -1    0    0    0    0 -0.00000000000E+00 -0.00000000000E+00 -0.45593999997E+02  0.45594000000E+02  0.51100000000E-03 0. -1.
    9900012    2    1    2    0    0 -0.11207152625E+02 -0.10301470073E+02  0.10906636399E+02  0.72461674328E+02  0.70000135524E+02 0.  0.
         12    1    1    2    0    0  0.11207152625E+02  0.10301470073E+02 -0.10906636399E+02  0.18726325672E+02  0.00000000000E+00 0. -1.
         11    1    3    3    0    0  0.55775498029E+01  0.15359571169E+01  0.14456759495E+02  0.15571323689E+02  0.51100000000E-03 0. -1.
        -11    1    3    3    0    0  0.91410459961E+01  0.24698002749E+01  0.17951576882E+02  0.20295756899E+02  0.51100000000E-03 0.  1.
         12    1    3    3    0    0 -0.25925748424E+02 -0.14307227465E+02 -0.21501699978E+02  0.36594593740E+02  0.00000000000E+00 0. -1.
</event>
<event>
 7    1  0.2153242E-013  0.7246149E+02  0.7816164E-02  0.1226708E+00
        -11   -1    0    0    0    0  0.00000000000E+00  0.00000000000E+00  0.45593999997E+02  0.45594000000E+02  0.51100000000E-03 0. -1.
         11   -1    0    0    0    0 -0.00000000000E+00 -0.00000000000E+00 -0.45593999997E+02  0.45594000000E+02  0.51100000000E-03 0.  1.
    9900012    2    1    2    0    0  0.29425532290E+01 -0.53599921924E+01 -0.17700109985E+02  0.72461493938E+02  0.69999900532E+02 0.  0.
         12    1    1    2    0    0 -0.29425532290E+01  0.53599921924E+01  0.17700109985E+02  0.18726506062E+02  0.00000000000E+00 0. -1.
         11    1    3    3    0    0  0.55429468609E+01  0.50325419408E+01 -0.67540106103E+01  0.10083025234E+02  0.51100000000E-03 0. -1.
        -11    1    3    3    0    0 -0.11945494259E+02  0.21958862166E+02 -0.13852259691E+02  0.28579215516E+02  0.51100000000E-03 0.  1.
         12    1    3    3    0    0  0.93451006267E+01 -0.32351396300E+02  0.29061603164E+01  0.33799253188E+02  0.00000000000E+00 0. -1.
</event>
<event>
 7    1  0.2153242E-013  0.7246177E+02  0.7816164E-02  0.1226707E+00
        -11   -1    0    0    0    0  0.00000000000E+00  0.00000000000E+00  0.45593999997E+02  0.45594000000E+02  0.51100000000E-03 0.  1.
         11   -1    0    0    0    0 -0.00000000000E+00 -0.00000000000E+00 -0.45593999997E+02  0.45594000000E+02  0.51100000000E-03 0. -1.
    9900012    2    1    2    0    0  0.42057276173E+01 -0.16504752521E+02  0.77831050995E+01  0.72461769051E+02  0.70000258917E+02 0.  0.
         12    1    1    2    0    0 -0.42057276173E+01  0.16504752521E+02 -0.77831050995E+01  0.18726230949E+02  0.00000000000E+00 0. -1.
         11    1    3    3    0    0  0.17454560004E+01  0.19734212316E+02  0.11520137994E+02  0.22917227843E+02  0.51100000000E-03 0. -1.
        -11    1    3    3    0    0  0.40051264604E+01 -0.14040405769E+01  0.10923309499E+02  0.11718833499E+02  0.51100000000E-03 0.  1.
        -12    1    3    3    0    0 -0.15448548435E+01 -0.34834924259E+02 -0.14660342393E+02  0.37825707709E+02  0.00000000000E+00 0.  1.
</event>
<event>
 7    1  0.2153242E-013  0.7246162E+02  0.7816164E-02  0.1226708E+00
        -11   -1    0    0    0    0  0.00000000000E+00  0.00000000000E+00  0.45593999997E+02  0.45594000000E+02  0.51100000000E-03 0.  1.
         11   -1    0    0    0    0 -0.00000000000E+00 -0.00000000000E+00 -0.45593999997E+02  0.45594000000E+02  0.51100000000E-03 0. -1.
    9900012    2    1    2    0    0 -0.12868540325E+02  0.81520074897E+01  0.10891402125E+02  0.72461622975E+02  0.70000068627E+02 0.  0.
         12    1    1    2    0    0  0.12868540325E+02 -0.81520074897E+01 -0.10891402125E+02  0.18726377025E+02  0.00000000000E+00 0. -1.
         11    1    3    3    0    0 -0.15299059032E+02  0.40764284732E+01  0.17246085009E+02  0.23411662153E+02  0.51100000000E-03 0. -1.
        -11    1    3    3    0    0  0.11388811189E+01 -0.10761836789E+01  0.21063698630E+02  0.21121899104E+02  0.51100000000E-03 0.  1.
         12    1    3    3    0    0  0.12916375882E+01  0.51517626954E+01 -0.27418381514E+02  0.27928061719E+02  0.00000000000E+00 0. -1.
</event>
<event>
 7    1  0.2153242E-013  0.7246177E+02  0.7816164E-02  0.1226707E+00
        -11   -1    0    0    0    0  0.00000000000E+00  0.00000000000E+00  0.45593999997E+02  0.45594000000E+02  0.51100000000E-03 0.  1.
         11   -1    0    0    0    0 -0.00000000000E+00 -0.00000000000E+00 -0.45593999997E+02  0.45594000000E+02  0.51100000000E-03 0. -1.
    9900012    2    1    2    0    0  0.29065932606E+01  0.15588485930E+02  0.99610475694E+01  0.72461771158E+02  0.70000261662E+02 0.  0.
         12    1    1    2    0    0 -0.29065932606E+01 -0.15588485930E+02 -0.99610475694E+01  0.18726228842E+02  0.00000000000E+00 0. -1.
         11    1    3    3    0    0 -0.12144690341E+00 -0.11247770272E+01  0.11984008386E+02  0.12037289145E+02  0.51100000000E-03 0. -1.
        -11    1    3    3    0    0 -0.35505730716E+00 -0.66053403883E+01  0.24248383980E+02  0.25134452714E+02  0.51100000000E-03 0.  1.
         12    1    3    3    0    0  0.33830974712E+01  0.23318603345E+02 -0.26271344797E+02  0.35290029299E+02  0.00000000000E+00 0. -1.
</event>
<event>
 7    1  0.2153242E-013  0.7246156E+02  0.7816164E-02  0.1226708E+00
        -11   -1    0    0    0    0  0.00000000000E+00  0.00000000000E+00  0.45593999997E+02  0.45594000000E+02  0.51100000000E-03 0. -1.
         11   -1    0    0    0    0 -0.00000000000E+00 -0.00000000000E+00 -0.45593999997E+02  0.45594000000E+02  0.51100000000E-03 0.  1.
    9900012    2    1    2    0    0  0.14937173025E+02 -0.10690319237E+02 -0.36438149292E+01  0.72461562789E+02  0.69999990223E+02 0.  0.
         12    1    1    2    0    0 -0.14937173025E+02  0.10690319237E+02  0.36438149292E+01  0.18726437211E+02  0.00000000000E+00 0. -1.
         11    1    3    3    0    0 -0.24552970792E+02  0.28884302879E+01  0.54824248501E+01  0.25322882670E+02  0.51100000000E-03 0. -1.
        -11    1    3    3    0    0  0.34326962929E+01 -0.86338332349E+01  0.10434244184E+01  0.93496104168E+01  0.51100000000E-03 0.  1.
        -12    1    3    3    0    0  0.36057447524E+02 -0.49449162900E+01 -0.10169664198E+02  0.37789069702E+02  0.00000000000E+00 0.  1.
</event>
<event>
 7    1  0.2153242E-013  0.7246158E+02  0.7816164E-02  0.1226708E+00
        -11   -1    0    0    0    0  0.00000000000E+00  0.00000000000E+00  0.45593999997E+02  0.45594000000E+02  0.51100000000E-03 0.  1.
         11   -1    0    0    0    0 -0.00000000000E+00 -0.00000000000E+00 -0.45593999997E+02  0.45594000000E+02  0.51100000000E-03 0. -1.
    9900012    2    1    2    0    0 -0.13318669780E+02 -0.33664620970E+01  0.12726306432E+02  0.72461577299E+02  0.70000009125E+02 0.  0.
         12    1    1    2    0    0  0.13318669780E+02  0.33664620970E+01 -0.12726306432E+02  0.18726422701E+02  0.00000000000E+00 0. -1.
         11    1    3    3    0    0 -0.33697920513E+02  0.14179869332E+02  0.78839594234E+01  0.37400205315E+02  0.51100000000E-03 0. -1.
        -11    1    3    3    0    0 -0.18512540424E+01 -0.10897960168E+02  0.42724373982E+01  0.11851008351E+02  0.51100000000E-03 0.  1.
        -12    1    3    3    0    0  0.22230504775E+02 -0.66483712606E+01  0.56990961087E+00  0.23210363632E+02  0.00000000000E+00 0.  1.
</event>
<event>
 7    1  0.2153242E-013  0.7246153E+02  0.7816164E-02  0.1226708E+00
        -11   -1    0    0    0    0  0.00000000000E+00  0.00000000000E+00  0.45593999997E+02  0.45594000000E+02  0.51100000000E-03 0.  1.
         11   -1    0    0    0    0 -0.00000000000E+00 -0.00000000000E+00 -0.45593999997E+02  0.45594000000E+02  0.51100000000E-03 0. -1.
    9900012    2    1    2    0    0 -0.10312025600E+02 -0.63040698525E+01  0.14303900438E+02  0.72461528458E+02  0.69999945500E+02 0.  0.
         12    1    1    2    0    0  0.10312025600E+02  0.63040698525E+01 -0.14303900438E+02  0.18726471542E+02  0.00000000000E+00 0. -1.
         11    1    3    3    0    0 -0.21411408223E+01 -0.22231625472E+02 -0.16611624920E+02  0.27834793656E+02  0.51100000000E-03 0. -1.
        -11    1    3    3    0    0 -0.16512534244E+01 -0.72097044465E+01  0.35547297849E+01  0.82062525054E+01  0.51100000000E-03 0.  1.
        -12    1    3    3    0    0 -0.65196313536E+01  0.23137260066E+02  0.27360795572E+02  0.36420482296E+02  0.00000000000E+00 0.  1.
</event>
<event>
 7    1  0.2153242E-013  0.7246150E+02  0.7816164E-02  0.1226708E+00
        -11   -1    0    0    0    0  0.00000000000E+00  0.00000000000E+00  0.45593999997E+02  0.45594000000E+02  0.51100000000E-03 0. -1.
         11   -1    0    0    0    0 -0.00000000000E+00 -0.00000000000E+00 -0.45593999997E+02  0.45594000000E+02  0.51100000000E-03 0.  1.
    9900012    2    1    2    0    0 -0.14762795010E+02 -0.69614214523E+01 -0.91804275463E+01  0.72461501259E+02  0.69999910069E+02 0.  0.
         12    1    1    2    0    0  0.14762795010E+02  0.69614214523E+01  0.91804275463E+01  0.18726498741E+02  0.00000000000E+00 0. -1.
         11    1    3    3    0    0 -0.43844103778E+00 -0.11802561714E+02  0.20459555083E+01  0.11986602011E+02  0.51100000000E-03 0. -1.
        -11    1    3    3    0    0  0.21788073827E+02  0.78072970074E+01 -0.32290951893E+01  0.23368806210E+02  0.51100000000E-03 0.  1.
        -12    1    3    3    0    0 -0.36112427800E+02 -0.29661567454E+01 -0.79972878654E+01  0.37106093039E+02  0.00000000000E+00 0.  1.
</event>
<event>
 7    1  0.2153242E-013  0.7246158E+02  0.7816164E-02  0.1226708E+00
        -11   -1    0    0    0    0  0.00000000000E+00  0.00000000000E+00  0.45593999997E+02  0.45594000000E+02  0.51100000000E-03 0.  1.
         11   -1    0    0    0    0 -0.00000000000E+00 -0.00000000000E+00 -0.45593999997E+02  0.45594000000E+02  0.51100000000E-03 0. -1.
    9900012    2    1    2    0    0  0.32779674789E+01 -0.12882652011E+02 -0.13189811170E+02  0.72461577162E+02  0.70000008946E+02 0.  0.
         12    1    1    2    0    0 -0.32779674789E+01  0.12882652011E+02  0.13189811170E+02  0.18726422838E+02  0.00000000000E+00 0. -1.
         11    1    3    3    0    0 -0.15261231617E+02  0.59606453915E+01 -0.28579194392E+02  0.32942447333E+02  0.51100000000E-03 0. -1.
        -11    1    3    3    0    0 -0.83971136733E+00 -0.59337548581E+01 -0.55764203476E+01  0.81860262674E+01  0.51100000000E-03 0.  1.
        -12    1    3    3    0    0  0.19378910463E+02 -0.12909542544E+02  0.20965803570E+02  0.31333103561E+02  0.00000000000E+00 0.  1.
</event>
<event>
 7    1  0.2153242E-013  0.7246160E+02  0.7816164E-02  0.1226708E+00
        -11   -1    0    0    0    0  0.00000000000E+00  0.00000000000E+00  0.45593999997E+02  0.45594000000E+02  0.51100000000E-03 0. -1.
         11   -1    0    0    0    0 -0.00000000000E+00 -0.00000000000E+00 -0.45593999997E+02  0.45594000000E+02  0.51100000000E-03 0.  1.
    9900012    2    1    2    0    0 -0.12100708386E+02 -0.14284218825E+02 -0.46047977634E+00  0.72461599051E+02  0.70000037461E+02 0.  0.
         12    1    1    2    0    0  0.12100708386E+02  0.14284218825E+02  0.46047977634E+00  0.18726400949E+02  0.00000000000E+00 0. -1.
         11    1    3    3    0    0 -0.19590628705E+01  0.11200162639E+02  0.15528478560E+02  0.19246174091E+02  0.51100000000E-03 0. -1.
        -11    1    3    3    0    0 -0.12116612637E+02  0.96869375077E+01 -0.42553911333E+01  0.16085938394E+02  0.51100000000E-03 0.  1.
        -12    1    3    3    0    0  0.19749671217E+01 -0.35171318972E+02 -0.11733567203E+02  0.37129486566E+02  0.00000000000E+00 0.  1.
</event>
<event>
 7    1  0.2153242E-013  0.7246164E+02  0.7816164E-02  0.1226708E+00
        -11   -1    0    0    0    0  0.00000000000E+00  0.00000000000E+00  0.45593999997E+02  0.45594000000E+02  0.51100000000E-03 0. -1.
         11   -1    0    0    0    0 -0.00000000000E+00 -0.00000000000E+00 -0.45593999997E+02  0.45594000000E+02  0.51100000000E-03 0.  1.
    9900012    2    1    2    0    0  0.62441839661E+01 -0.46932770769E+01 -0.17019398683E+02  0.72461638510E+02  0.70000088864E+02 0.  0.
         12    1    1    2    0    0 -0.62441839661E+01  0.46932770769E+01  0.17019398683E+02  0.18726361490E+02  0.00000000000E+00 0. -1.
         11    1    3    3    0    0  0.16464533480E+01  0.72186409416E+01  0.22065561149E+02  0.23274633719E+02  0.51100000000E-03 0. -1.
        -11    1    3    3    0    0  0.56671751716E+01 -0.11921965715E+02 -0.35953080684E+01  0.13681241951E+02  0.51100000000E-03 0.  1.
        -12    1    3    3    0    0 -0.10694445536E+01  0.10047696709E-01 -0.35489651763E+02  0.35505762841E+02  0.00000000000E+00 0.  1.
</event>
<event>
 7    1  0.2153242E-013  0.7246145E+02  0.7816164E-02  0.1226708E+00
        -11   -1    0    0    0    0  0.00000000000E+00  0.00000000000E+00  0.45593999997E+02  0.45594000000E+02  0.51100000000E-03 0. -1.
         11   -1    0    0    0    0 -0.00000000000E+00 -0.00000000000E+00 -0.45593999997E+02  0.45594000000E+02  0.51100000000E-03 0.  1.
    9900012    2    1    2    0    0  0.88495957962E+00 -0.54707770169E+01 -0.17887735742E+02  0.72461450809E+02  0.69999844349E+02 0.  0.
         12    1    1    2    0    0 -0.88495957962E+00  0.54707770169E+01  0.17887735742E+02  0.18726549191E+02  0.00000000000E+00 0. -1.
         11    1    3    3    0    0 -0.37853820691E+01  0.44937632342E+01 -0.22555205269E+01  0.62936792517E+01  0.51100000000E-03 0. -1.
        -11    1    3    3    0    0  0.10111202501E+01 -0.17313360398E+02 -0.38308420128E+02  0.42051276620E+02  0.51100000000E-03 0.  1.
         12    1    3    3    0    0  0.36592213986E+01  0.73488201468E+01  0.22676204913E+02  0.24116494937E+02  0.00000000000E+00 0. -1.
</event>
<event>
 7    1  0.2153242E-013  0.7246160E+02  0.7816164E-02  0.1226708E+00
        -11   -1    0    0    0    0  0.00000000000E+00  0.00000000000E+00  0.45593999997E+02  0.45594000000E+02  0.51100000000E-03 0. -1.
         11   -1    0    0    0    0 -0.00000000000E+00 -0.00000000000E+00 -0.45593999997E+02  0.45594000000E+02  0.51100000000E-03 0.  1.
    9900012    2    1    2    0    0  0.52145632294E+01  0.73781257857E+01 -0.16402727694E+02  0.72461604575E+02  0.70000044657E+02 0.  0.
         12    1    1    2    0    0 -0.52145632294E+01 -0.73781257857E+01  0.16402727694E+02  0.18726395425E+02  0.00000000000E+00 0. -1.
         11    1    3    3    0    0 -0.10557248288E+02 -0.50981369624E+01 -0.11936390629E+02  0.16730926855E+02  0.51100000000E-03 0. -1.
        -11    1    3    3    0    0 -0.10961754184E+02  0.22503255908E+02 -0.94334701573E+01  0.26749709171E+02  0.51100000000E-03 0.  1.
        -12    1    3    3    0    0  0.26733565702E+02 -0.10026993160E+02  0.49671330918E+01  0.28980968550E+02  0.00000000000E+00 0.  1.
</event>
<event>
 7    1  0.2153242E-013  0.7246159E+02  0.7816164E-02  0.1226708E+00
        -11   -1    0    0    0    0  0.00000000000E+00  0.00000000000E+00  0.45593999997E+02  0.45594000000E+02  0.51100000000E-03 0. -1.
         11   -1    0    0    0    0 -0.00000000000E+00 -0.00000000000E+00 -0.45593999997E+02  0.45594000000E+02  0.51100000000E-03 0.  1.
    9900012    2    1    2    0    0  0.10811836541E+02 -0.12439807611E+02  0.88900989627E+01  0.72461588642E+02  0.70000023901E+02 0.  0.
         12    1    1    2    0    0 -0.10811836541E+02  0.12439807611E+02 -0.88900989627E+01  0.18726411358E+02  0.00000000000E+00 0. -1.
         11    1    3    3    0    0 -0.93351003557E+00  0.11211785727E+02 -0.35343834036E+01  0.11792686143E+02  0.51100000000E-03 0.  1.
        -11    1    3    3    0    0  0.88813102728E+01 -0.38118226182E+02  0.20148814477E+02  0.44021035477E+02  0.51100000000E-03 0. -1.
         12    1    3    3    0    0  0.28640363037E+01  0.14466632844E+02 -0.77243321103E+01  0.16647867021E+02  0.00000000000E+00 0. -1.
</event>
<event>
 7    1  0.2153242E-013  0.7246157E+02  0.7816164E-02  0.1226708E+00
        -11   -1    0    0    0    0  0.00000000000E+00  0.00000000000E+00  0.45593999997E+02  0.45594000000E+02  0.51100000000E-03 0. -1.
         11   -1    0    0    0    0 -0.00000000000E+00 -0.00000000000E+00 -0.45593999997E+02  0.45594000000E+02  0.51100000000E-03 0.  1.
    9900012    2    1    2    0    0 -0.65239607021E+01 -0.12673458281E+02 -0.12144987648E+02  0.72461565929E+02  0.69999994314E+02 0.  0.
         12    1    1    2    0    0  0.65239607021E+01  0.12673458281E+02  0.12144987648E+02  0.18726434071E+02  0.00000000000E+00 0. -1.
         11    1    3    3    0    0 -0.99699922492E+01 -0.39571439927E+01  0.14327228693E+02  0.17897743330E+02  0.51100000000E-03 0. -1.
        -11    1    3    3    0    0  0.15096109117E+02 -0.23837924188E+02 -0.12255852640E+02  0.30762721990E+02  0.51100000000E-03 0.  1.
        -12    1    3    3    0    0 -0.11650077570E+02  0.15121609900E+02 -0.14216363701E+02  0.23801100609E+02  0.00000000000E+00 0.  1.
</event>
<event>
 7    1  0.2153242E-013  0.7246155E+02  0.7816164E-02  0.1226708E+00
        -11   -1    0    0    0    0  0.00000000000E+00  0.00000000000E+00  0.45593999997E+02  0.45594000000E+02  0.51100000000E-03 0.  1.
         11   -1    0    0    0    0 -0.00000000000E+00 -0.00000000000E+00 -0.45593999997E+02  0.45594000000E+02  0.51100000000E-03 0. -1.
    9900012    2    1    2    0    0  0.22433738149E+01 -0.19177525478E+01  0.18492413382E+02  0.72461552029E+02  0.69999976206E+02 0.  0.
         12    1    1    2    0    0 -0.22433738149E+01  0.19177525478E+01 -0.18492413382E+02  0.18726447971E+02  0.00000000000E+00 0. -1.
         11    1    3    3    0    0  0.13522151659E+02 -0.17804268191E+02  0.95441378278E+01  0.24309074817E+02  0.51100000000E-03 0.  1.
        -11    1    3    3    0    0  0.16114103314E+02  0.73506908589E+01 -0.11158501402E+01  0.17746608226E+02  0.51100000000E-03 0. -1.
         12    1    3    3    0    0 -0.27392881158E+02  0.85358247845E+01  0.10064125694E+02  0.30405868987E+02  0.00000000000E+00 0. -1.
</event>
<event>
 7    1  0.2153242E-013  0.7246122E+02  0.7816164E-02  0.1226709E+00
        -11   -1    0    0    0    0  0.00000000000E+00  0.00000000000E+00  0.45593999997E+02  0.45594000000E+02  0.51100000000E-03 0.  1.
         11   -1    0    0    0    0 -0.00000000000E+00 -0.00000000000E+00 -0.45593999997E+02  0.45594000000E+02  0.51100000000E-03 0. -1.
    9900012    2    1    2    0    0 -0.82600072303E+01 -0.33416061041E+01  0.16471130771E+02  0.72461222390E+02  0.69999546788E+02 0.  0.
         12    1    1    2    0    0  0.82600072303E+01  0.33416061041E+01 -0.16471130771E+02  0.18726777610E+02  0.00000000000E+00 0. -1.
         11    1    3    3    0    0 -0.15653219094E+02 -0.21152868580E+02  0.19044912396E+02  0.32483469728E+02  0.51100000000E-03 0. -1.
        -11    1    3    3    0    0  0.35768247834E+01  0.23719926018E+01  0.15394763615E+02  0.15981826287E+02  0.51100000000E-03 0.  1.
         12    1    3    3    0    0  0.38163870801E+01  0.15439269874E+02 -0.17968545240E+02  0.23995926375E+02  0.00000000000E+00 0. -1.
</event>
<event>
 7    1  0.2153242E-013  0.7246158E+02  0.7816164E-02  0.1226708E+00
        -11   -1    0    0    0    0  0.00000000000E+00  0.00000000000E+00  0.45593999997E+02  0.45594000000E+02  0.51100000000E-03 0.  1.
         11   -1    0    0    0    0 -0.00000000000E+00 -0.00000000000E+00 -0.45593999997E+02  0.45594000000E+02  0.51100000000E-03 0. -1.
    9900012    2    1    2    0    0 -0.40394669575E+00 -0.38340028502E+01  0.18325285336E+02  0.72461579268E+02  0.70000011689E+02 0.  0.
         12    1    1    2    0    0  0.40394669575E+00  0.38340028502E+01 -0.18325285336E+02  0.18726420732E+02  0.00000000000E+00 0. -1.
         11    1    3    3    0    0 -0.11298671525E+02  0.75898100228E+00 -0.14452325932E+02  0.18360439959E+02  0.51100000000E-03 0. -1.
        -11    1    3    3    0    0 -0.12455458844E+02  0.46388415560E+01  0.24123470969E+02  0.27542678843E+02  0.51100000000E-03 0.  1.
        -12    1    3    3    0    0  0.23350183674E+02 -0.92318254085E+01  0.86541402996E+01  0.26558460465E+02  0.00000000000E+00 0.  1.
</event>
<event>
 7    1  0.2153242E-013  0.7246150E+02  0.7816164E-02  0.1226708E+00
        -11   -1    0    0    0    0  0.00000000000E+00  0.00000000000E+00  0.45593999997E+02  0.45594000000E+02  0.51100000000E-03 0.  1.
         11   -1    0    0    0    0 -0.00000000000E+00 -0.00000000000E+00 -0.45593999997E+02  0.45594000000E+02  0.51100000000E-03 0. -1.
    9900012    2    1    2    0    0  0.11540326777E+02 -0.14029701950E+02  0.45464308840E+01  0.72461502390E+02  0.69999911542E+02 0.  0.
         12    1    1    2    0    0 -0.11540326777E+02  0.14029701950E+02 -0.45464308840E+01  0.18726497610E+02  0.00000000000E+00 0. -1.
         11    1    3    3    0    0  0.76530407482E+01  0.14129023726E+02  0.21735051268E+02  0.27029813134E+02  0.51100000000E-03 0. -1.
        -11    1    3    3    0    0 -0.15618067685E+01  0.41856710439E+01  0.43149269969E+01  0.62110931179E+01  0.51100000000E-03 0.  1.
         12    1    3    3    0    0  0.54490927977E+01 -0.32344396720E+02 -0.21503547381E+02  0.39220596139E+02  0.00000000000E+00 0. -1.
</event>
<event>
 7    1  0.2153242E-013  0.7246145E+02  0.7816164E-02  0.1226708E+00
        -11   -1    0    0    0    0  0.00000000000E+00  0.00000000000E+00  0.45593999997E+02  0.45594000000E+02  0.51100000000E-03 0.  1.
         11   -1    0    0    0    0 -0.00000000000E+00 -0.00000000000E+00 -0.45593999997E+02  0.45594000000E+02  0.51100000000E-03 0. -1.
    9900012    2    1    2    0    0  0.41474072588E+01  0.44497732677E+01  0.17711072858E+02  0.72461452777E+02  0.69999846912E+02 0.  0.
         12    1    1    2    0    0 -0.41474072588E+01 -0.44497732677E+01 -0.17711072858E+02  0.18726547223E+02  0.00000000000E+00 0. -1.
         11    1    3    3    0    0  0.95776036933E+01 -0.18794309259E+02  0.91655439836E+01  0.22999211938E+02  0.51100000000E-03 0. -1.
        -11    1    3    3    0    0  0.41569433283E+01  0.18801535686E+02  0.23981997506E+02  0.30755716975E+02  0.51100000000E-03 0.  1.
        -12    1    3    3    0    0 -0.95871397628E+01  0.44425468407E+01 -0.15436468632E+02  0.18706523864E+02  0.00000000000E+00 0.  1.
</event>
<event>
 7    1  0.2153242E-013  0.7246156E+02  0.7816164E-02  0.1226708E+00
        -11   -1    0    0    0    0  0.00000000000E+00  0.00000000000E+00  0.45593999997E+02  0.45594000000E+02  0.51100000000E-03 0.  1.
         11   -1    0    0    0    0 -0.00000000000E+00 -0.00000000000E+00 -0.45593999997E+02  0.45594000000E+02  0.51100000000E-03 0. -1.
    9900012    2    1    2    0    0 -0.13936105271E+02 -0.10860838082E+02  0.62053843995E+01  0.72461558012E+02  0.69999984000E+02 0.  0.
         12    1    1    2    0    0  0.13936105271E+02  0.10860838082E+02 -0.62053843995E+01  0.18726441988E+02  0.00000000000E+00 0. -1.
         11    1    3    3    0    0 -0.60505920307E+01  0.21663096110E+02 -0.45011443663E+01  0.22938171197E+02  0.51100000000E-03 0. -1.
        -11    1    3    3    0    0 -0.65678869855E+01 -0.11877473720E+02  0.22077623207E+02  0.25915882546E+02  0.51100000000E-03 0.  1.
         12    1    3    3    0    0 -0.13176262553E+01 -0.20646460472E+02 -0.11371094441E+02  0.23607504268E+02  0.00000000000E+00 0. -1.
</event>
<event>
 7    1  0.2153242E-013  0.7246166E+02  0.7816164E-02  0.1226708E+00
        -11   -1    0    0    0    0  0.00000000000E+00  0.00000000000E+00  0.45593999997E+02  0.45594000000E+02  0.51100000000E-03 0.  1.
         11   -1    0    0    0    0 -0.00000000000E+00 -0.00000000000E+00 -0.45593999997E+02  0.45594000000E+02  0.51100000000E-03 0. -1.
    9900012    2    1    2    0    0  0.52895876586E+01 -0.96755008944E+01  0.15135416312E+02  0.72461658070E+02  0.70000114344E+02 0.  0.
         12    1    1    2    0    0 -0.52895876586E+01  0.96755008944E+01 -0.15135416312E+02  0.18726341930E+02  0.00000000000E+00 0. -1.
         11    1    3    3    0    0 -0.13350968421E+02 -0.86037689860E+01  0.52507774798E+01  0.16728534393E+02  0.51100000000E-03 0. -1.
        -11    1    3    3    0    0 -0.11650917629E+01  0.21668428029E+02 -0.47502809759E+01  0.22213585520E+02  0.51100000000E-03 0.  1.
        -12    1    3    3    0    0  0.19805647843E+02 -0.22740159937E+02  0.14634919808E+02  0.33519538156E+02  0.00000000000E+00 0.  1.
</event>
<event>
 7    1  0.2153242E-013  0.7246158E+02  0.7816164E-02  0.1226708E+00
        -11   -1    0    0    0    0  0.00000000000E+00  0.00000000000E+00  0.45593999997E+02  0.45594000000E+02  0.51100000000E-03 0. -1.
         11   -1    0    0    0    0 -0.00000000000E+00 -0.00000000000E+00 -0.45593999997E+02  0.45594000000E+02  0.51100000000E-03 0.  1.
    9900012    2    1    2    0    0 -0.13822713923E+02 -0.41422436150E+01 -0.11935377876E+02  0.72461578895E+02  0.70000011204E+02 0.  0.
         12    1    1    2    0    0  0.13822713923E+02  0.41422436150E+01  0.11935377876E+02  0.18726421105E+02  0.00000000000E+00 0. -1.
         11    1    3    3    0    0  0.18249827886E+02 -0.25319018242E+01 -0.12050441709E+02  0.22015446631E+02  0.51100000000E-03 0. -1.
        -11    1    3    3    0    0 -0.15204424041E+02 -0.17555137096E+02 -0.97982486674E+01  0.25206408433E+02  0.51100000000E-03 0.  1.
        -12    1    3    3    0    0 -0.16868117768E+02  0.15944795305E+02  0.99133124999E+01  0.25239723831E+02  0.00000000000E+00 0.  1.
</event>
<event>
 7    1  0.2153242E-013  0.7246158E+02  0.7816164E-02  0.1226708E+00
        -11   -1    0    0    0    0  0.00000000000E+00  0.00000000000E+00  0.45593999997E+02  0.45594000000E+02  0.51100000000E-03 0.  1.
         11   -1    0    0    0    0 -0.00000000000E+00 -0.00000000000E+00 -0.45593999997E+02  0.45594000000E+02  0.51100000000E-03 0. -1.
    9900012    2    1    2    0    0  0.13128892392E+02 -0.91945926454E+01  0.96835069704E+01  0.72461583989E+02  0.70000017840E+02 0.  0.
         12    1    1    2    0    0 -0.13128892392E+02  0.91945926454E+01 -0.96835069704E+01  0.18726416011E+02  0.00000000000E+00 0. -1.
         11    1    3    3    0    0 -0.10774977421E+01 -0.12625223601E+01  0.12691760320E+01  0.20894430252E+01  0.51100000000E-03 0. -1.
        -11    1    3    3    0    0 -0.71722991898E+01 -0.34498195605E+02  0.86060747615E+01  0.36271640419E+02  0.51100000000E-03 0.  1.
         12    1    3    3    0    0  0.21378689324E+02  0.26566125319E+02 -0.19174382311E+00  0.34100500545E+02  0.00000000000E+00 0. -1.
</event>
<event>
 7    1  0.2153242E-013  0.7246162E+02  0.7816164E-02  0.1226708E+00
        -11   -1    0    0    0    0  0.00000000000E+00  0.00000000000E+00  0.45593999997E+02  0.45594000000E+02  0.51100000000E-03 0.  1.
         11   -1    0    0    0    0 -0.00000000000E+00 -0.00000000000E+00 -0.45593999997E+02  0.45594000000E+02  0.51100000000E-03 0. -1.
    9900012    2    1    2    0    0  0.57101258001E+01 -0.17791802044E+02  0.12342760620E+01  0.72461623040E+02  0.70000068711E+02 0.  0.
         12    1    1    2    0    0 -0.57101258001E+01  0.17791802044E+02 -0.12342760620E+01  0.18726376960E+02  0.00000000000E+00 0. -1.
         11    1    3    3    0    0 -0.92532525371E+00 -0.98623106214E+01 -0.13243258985E+01  0.99937599013E+01  0.51100000000E-03 0. -1.
        -11    1    3    3    0    0  0.10902986553E+02 -0.34034309774E+02  0.40951712262E+01  0.35971930518E+02  0.51100000000E-03 0.  1.
         12    1    3    3    0    0 -0.42675354989E+01  0.26104818351E+02 -0.15365692657E+01  0.26495932621E+02  0.00000000000E+00 0. -1.
</event>
<event>
 7    1  0.2175192E-013  0.7246156E+02  0.7816164E-02  0.1226708E+00
        -11   -1    0    0    0    0  0.00000000000E+00  0.00000000000E+00  0.45593999997E+02  0.45594000000E+02  0.51100000000E-03 0.  1.
         11   -1    0    0    0    0 -0.00000000000E+00 -0.00000000000E+00 -0.45593999997E+02  0.45594000000E+02  0.51100000000E-03 0. -1.
    9900012    2    1    2    0    0 -0.35876337433E+01  0.13120803296E+02  0.12870627759E+02  0.72461557361E+02  0.69999983152E+02 0.  0.
         12    1    1    2    0    0  0.35876337433E+01 -0.13120803296E+02 -0.12870627759E+02  0.18726442639E+02  0.00000000000E+00 0. -1.
         11    1    3    3    0    0 -0.15649838503E+02  0.11040647682E+02  0.10432894681E+01  0.19180766398E+02  0.51100000000E-03 0. -1.
        -11    1    3    3    0    0  0.15802161248E+01 -0.86675446128E+01  0.29094828000E+02  0.30399546530E+02  0.51100000000E-03 0.  1.
         12    1    3    3    0    0  0.10481988635E+02  0.10747700227E+02 -0.17267489710E+02  0.22881244433E+02  0.00000000000E+00 0. -1.
</event>
<event>
 7    1  0.2153242E-013  0.7246155E+02  0.7816164E-02  0.1226708E+00
        -11   -1    0    0    0    0  0.00000000000E+00  0.00000000000E+00  0.45593999997E+02  0.45594000000E+02  0.51100000000E-03 0.  1.
         11   -1    0    0    0    0 -0.00000000000E+00 -0.00000000000E+00 -0.45593999997E+02  0.45594000000E+02  0.51100000000E-03 0. -1.
    9900012    2    1    2    0    0 -0.12899750168E+02 -0.67703224285E+01  0.11766013562E+02  0.72461550915E+02  0.69999974755E+02 0.  0.
         12    1    1    2    0    0  0.12899750168E+02  0.67703224285E+01 -0.11766013562E+02  0.18726449085E+02  0.00000000000E+00 0. -1.
         11    1    3    3    0    0 -0.13045086289E+02 -0.96858061690E+01 -0.18818803098E+02  0.24862350406E+02  0.51100000000E-03 0. -1.
        -11    1    3    3    0    0 -0.79966516349E+01 -0.12945919526E+00 -0.59985275593E+01  0.99972761387E+01  0.51100000000E-03 0.  1.
        -12    1    3    3    0    0  0.81419877556E+01  0.30449429357E+01  0.36583344219E+02  0.37601924370E+02  0.00000000000E+00 0.  1.
</event>
<event>
 7    1  0.2153242E-013  0.7246156E+02  0.7816164E-02  0.1226708E+00
        -11   -1    0    0    0    0  0.00000000000E+00  0.00000000000E+00  0.45593999997E+02  0.45594000000E+02  0.51100000000E-03 0.  1.
         11   -1    0    0    0    0 -0.00000000000E+00 -0.00000000000E+00 -0.45593999997E+02  0.45594000000E+02  0.51100000000E-03 0. -1.
    9900012    2    1    2    0    0  0.32328029318E+01 -0.18378230469E+02 -0.15713566954E+01  0.72461560621E+02  0.69999987399E+02 0.  0.
         12    1    1    2    0    0 -0.32328029318E+01  0.18378230469E+02  0.15713566954E+01  0.18726439379E+02  0.00000000000E+00 0. -1.
         11    1    3    3    0    0  0.20861536804E+02 -0.91116610072E+01 -0.25621597858E+02  0.34273785335E+02  0.51100000000E-03 0. -1.
        -11    1    3    3    0    0 -0.36170403189E+01 -0.25167934144E+01 -0.41051230028E+01  0.60223969388E+01  0.51100000000E-03 0.  1.
        -12    1    3    3    0    0 -0.14011693553E+02 -0.67497760471E+01  0.28155364166E+02  0.32165378347E+02  0.00000000000E+00 0.  1.
</event>
<event>
 7    1  0.2153242E-013  0.7246144E+02  0.7816164E-02  0.1226708E+00
        -11   -1    0    0    0    0  0.00000000000E+00  0.00000000000E+00  0.45593999997E+02  0.45594000000E+02  0.51100000000E-03 0.  1.
         11   -1    0    0    0    0 -0.00000000000E+00 -0.00000000000E+00 -0.45593999997E+02  0.45594000000E+02  0.51100000000E-03 0. -1.
    9900012    2    1    2    0    0 -0.32926125860E+01 -0.92555443178E+01  0.15942951558E+02  0.72461438580E+02  0.69999828417E+02 0.  0.
         12    1    1    2    0    0  0.32926125860E+01  0.92555443178E+01 -0.15942951558E+02  0.18726561420E+02  0.00000000000E+00 0. -1.
         11    1    3    3    0    0  0.25501317607E+01  0.17525994690E+02  0.10350821870E+02  0.20513487649E+02  0.51100000000E-03 0. -1.
        -11    1    3    3    0    0  0.18174347569E+02 -0.18447935065E+02  0.57426480370E+01  0.26525671046E+02  0.51100000000E-03 0.  1.
        -12    1    3    3    0    0 -0.24017091916E+02 -0.83336039424E+01 -0.15051834984E+00  0.25422279885E+02  0.00000000000E+00 0.  1.
</event>
<event>
 7    1  0.2153242E-013  0.7246155E+02  0.7816164E-02  0.1226708E+00
        -11   -1    0    0    0    0  0.00000000000E+00  0.00000000000E+00  0.45593999997E+02  0.45594000000E+02  0.51100000000E-03 0.  1.
         11   -1    0    0    0    0 -0.00000000000E+00 -0.00000000000E+00 -0.45593999997E+02  0.45594000000E+02  0.51100000000E-03 0. -1.
    9900012    2    1    2    0    0 -0.60200025877E+01 -0.10190502959E+02  0.14511826278E+02  0.72461551227E+02  0.69999975161E+02 0.  0.
         12    1    1    2    0    0  0.60200025877E+01  0.10190502959E+02 -0.14511826278E+02  0.18726448773E+02  0.00000000000E+00 0. -1.
         11    1    3    3    0    0 -0.47301907260E+01  0.97799533288E+01  0.80727715722E+01  0.13534837736E+02  0.51100000000E-03 0. -1.
        -11    1    3    3    0    0  0.17540849157E+02  0.10199826349E+02 -0.61457984035E+01  0.21201148199E+02  0.51100000000E-03 0.  1.
         12    1    3    3    0    0 -0.18830661019E+02 -0.30170282637E+02  0.12584853109E+02  0.37725565292E+02  0.00000000000E+00 0. -1.
</event>
<event>
 7    1  0.2153242E-013  0.7246153E+02  0.7816164E-02  0.1226708E+00
        -11   -1    0    0    0    0  0.00000000000E+00  0.00000000000E+00  0.45593999997E+02  0.45594000000E+02  0.51100000000E-03 0.  1.
         11   -1    0    0    0    0 -0.00000000000E+00 -0.00000000000E+00 -0.45593999997E+02  0.45594000000E+02  0.51100000000E-03 0. -1.
    9900012    2    1    2    0    0  0.11994602593E+02 -0.39834356990E+01  0.13818197836E+02  0.72461525618E+02  0.69999941800E+02 0.  0.
         12    1    1    2    0    0 -0.11994602593E+02  0.39834356990E+01 -0.13818197836E+02  0.18726474382E+02  0.00000000000E+00 0. -1.
         11    1    3    3    0    0 -0.26536360175E+01 -0.11823085944E+02  0.59586400427E+01  0.13503056571E+02  0.51100000000E-03 0. -1.
        -11    1    3    3    0    0 -0.43446679624E+00 -0.17565452193E+02  0.20346268612E+02  0.26883164226E+02  0.51100000000E-03 0.  1.
         12    1    3    3    0    0  0.15082705407E+02  0.25405102437E+02 -0.12486710818E+02  0.32075304820E+02  0.00000000000E+00 0. -1.
</event>
<event>
 7    1  0.2153242E-013  0.7246157E+02  0.7816164E-02  0.1226708E+00
        -11   -1    0    0    0    0  0.00000000000E+00  0.00000000000E+00  0.45593999997E+02  0.45594000000E+02  0.51100000000E-03 0. -1.
         11   -1    0    0    0    0 -0.00000000000E+00 -0.00000000000E+00 -0.45593999997E+02  0.45594000000E+02  0.51100000000E-03 0.  1.
    9900012    2    1    2    0    0  0.91456947659E+01  0.12192046755E+02  0.10880688832E+02  0.72461571449E+02  0.70000001504E+02 0.  0.
         12    1    1    2    0    0 -0.91456947659E+01 -0.12192046755E+02 -0.10880688832E+02  0.18726428551E+02  0.00000000000E+00 0. -1.
         11    1    3    3    0    0  0.66210730436E+00 -0.15631007941E+01 -0.50412547088E+01  0.53193908932E+01  0.51100000000E-03 0. -1.
        -11    1    3    3    0    0  0.71804839797E+00  0.30162565277E+01 -0.24452546929E+02  0.24648335613E+02  0.51100000000E-03 0.  1.
         12    1    3    3    0    0  0.77655390636E+01  0.10738891022E+02  0.40374490469E+02  0.42493844942E+02  0.00000000000E+00 0. -1.
</event>
<event>
 7    1  0.2153242E-013  0.7246156E+02  0.7816164E-02  0.1226708E+00
        -11   -1    0    0    0    0  0.00000000000E+00  0.00000000000E+00  0.45593999997E+02  0.45594000000E+02  0.51100000000E-03 0. -1.
         11   -1    0    0    0    0 -0.00000000000E+00 -0.00000000000E+00 -0.45593999997E+02  0.45594000000E+02  0.51100000000E-03 0.  1.
    9900012    2    1    2    0    0 -0.12959816178E+02  0.39487793681E+01 -0.12927877119E+02  0.72461556113E+02  0.69999981526E+02 0.  0.
         12    1    1    2    0    0  0.12959816178E+02 -0.39487793681E+01  0.12927877119E+02  0.18726443887E+02  0.00000000000E+00 0. -1.
         11    1    3    3    0    0  0.31979497328E+01  0.82489024838E+01  0.18069952650E+01  0.90297567425E+01  0.51100000000E-03 0. -1.
        -11    1    3    3    0    0  0.16259289054E+01  0.24115767566E+02 -0.17433028949E+02  0.29801415884E+02  0.51100000000E-03 0.  1.
         12    1    3    3    0    0 -0.17783694816E+02 -0.28415890682E+02  0.26981565646E+01  0.33630383486E+02  0.00000000000E+00 0. -1.
</event>
<event>
 7    1  0.2153242E-013  0.7246161E+02  0.7816164E-02  0.1226708E+00
        -11   -1    0    0    0    0  0.00000000000E+00  0.00000000000E+00  0.45593999997E+02  0.45594000000E+02  0.51100000000E-03 0.  1.
         11   -1    0    0    0    0 -0.00000000000E+00 -0.00000000000E+00 -0.45593999997E+02  0.45594000000E+02  0.51100000000E-03 0. -1.
    9900012    2    1    2    0    0 -0.17840726410E+02  0.34444420460E+01 -0.45301317437E+01  0.72461607035E+02  0.70000047862E+02 0.  0.
         12    1    1    2    0    0  0.17840726410E+02 -0.34444420460E+01  0.45301317437E+01  0.18726392965E+02  0.00000000000E+00 0. -1.
         11    1    3    3    0    0 -0.25803114073E+02  0.75989431465E+01 -0.16043141491E+02  0.31319754500E+02  0.51100000000E-03 0. -1.
        -11    1    3    3    0    0  0.16609616346E+02 -0.16726616925E+02  0.32679417878E+01  0.23797867818E+02  0.51100000000E-03 0.  1.
         12    1    3    3    0    0 -0.86472286830E+01  0.12572115824E+02  0.82450679592E+01  0.17343984717E+02  0.00000000000E+00 0. -1.
</event>
<event>
 7    1  0.2153242E-013  0.7246157E+02  0.7816164E-02  0.1226708E+00
        -11   -1    0    0    0    0  0.00000000000E+00  0.00000000000E+00  0.45593999997E+02  0.45594000000E+02  0.51100000000E-03 0.  1.
         11   -1    0    0    0    0 -0.00000000000E+00 -0.00000000000E+00 -0.45593999997E+02  0.45594000000E+02  0.51100000000E-03 0. -1.
    9900012    2    1    2    0    0  0.10139281579E+02 -0.13127652531E+02  0.86913113923E+01  0.72461569864E+02  0.69999999440E+02 0.  0.
         12    1    1    2    0    0 -0.10139281579E+02  0.13127652531E+02 -0.86913113923E+01  0.18726430136E+02  0.00000000000E+00 0. -1.
         11    1    3    3    0    0 -0.38363723256E+01 -0.19716916101E+02  0.13988189706E+02  0.24477417851E+02  0.51100000000E-03 0.  1.
        -11    1    3    3    0    0  0.28972413951E+02 -0.52668363052E+00 -0.10127774055E+02  0.30696090523E+02  0.51100000000E-03 0. -1.
         12    1    3    3    0    0 -0.14996760046E+02  0.71159472002E+01  0.48308957418E+01  0.17288061491E+02  0.00000000000E+00 0. -1.
</event>
<event>
 7    1  0.2153242E-013  0.7246149E+02  0.7816164E-02  0.1226708E+00
        -11   -1    0    0    0    0  0.00000000000E+00  0.00000000000E+00  0.45593999997E+02  0.45594000000E+02  0.51100000000E-03 0. -1.
         11   -1    0    0    0    0 -0.00000000000E+00 -0.00000000000E+00 -0.45593999997E+02  0.45594000000E+02  0.51100000000E-03 0.  1.
    9900012    2    1    2    0    0  0.17690995077E+02  0.55531396529E+01 -0.26217113880E+01  0.72461493721E+02  0.69999900249E+02 0.  0.
         12    1    1    2    0    0 -0.17690995077E+02 -0.55531396529E+01  0.26217113880E+01  0.18726506279E+02  0.00000000000E+00 0. -1.
         11    1    3    3    0    0 -0.67087066640E+01 -0.80680031787E+01 -0.19259941358E+01  0.10668124206E+02  0.51100000000E-03 0. -1.
        -11    1    3    3    0    0 -0.15782977279E+02 -0.24745605601E+01 -0.80455611351E+01  0.17887338427E+02  0.51100000000E-03 0.  1.
         12    1    3    3    0    0  0.40182679020E+02  0.16095703392E+02  0.73498438829E+01  0.43906031089E+02  0.00000000000E+00 0. -1.
</event>
<event>
 7    1  0.2153242E-013  0.7246159E+02  0.7816164E-02  0.1226708E+00
        -11   -1    0    0    0    0  0.00000000000E+00  0.00000000000E+00  0.45593999997E+02  0.45594000000E+02  0.51100000000E-03 0.  1.
         11   -1    0    0    0    0 -0.00000000000E+00 -0.00000000000E+00 -0.45593999997E+02  0.45594000000E+02  0.51100000000E-03 0. -1.
    9900012    2    1    2    0    0  0.10761553612E+02 -0.50523327781E+01  0.14468637069E+02  0.72461586535E+02  0.70000021156E+02 0.  0.
         12    1    1    2    0    0 -0.10761553612E+02  0.50523327781E+01 -0.14468637069E+02  0.18726413465E+02  0.00000000000E+00 0. -1.
         11    1    3    3    0    0 -0.15235024818E+02 -0.82734262576E+01  0.36807434485E+01  0.17722963517E+02  0.51100000000E-03 0. -1.
        -11    1    3    3    0    0 -0.13382010142E+02  0.47621948150E+01  0.39286913699E+01  0.14737411952E+02  0.51100000000E-03 0.  1.
        -12    1    3    3    0    0  0.39378588572E+02 -0.15411013356E+01  0.68592022503E+01  0.40001211066E+02  0.00000000000E+00 0.  1.
</event>
<event>
 7    1  0.2153242E-013  0.7246158E+02  0.7816164E-02  0.1226708E+00
        -11   -1    0    0    0    0  0.00000000000E+00  0.00000000000E+00  0.45593999997E+02  0.45594000000E+02  0.51100000000E-03 0. -1.
         11   -1    0    0    0    0 -0.00000000000E+00 -0.00000000000E+00 -0.45593999997E+02  0.45594000000E+02  0.51100000000E-03 0.  1.
    9900012    2    1    2    0    0  0.58639588238E+01  0.16651783441E+02 -0.62458849127E+01  0.72461575270E+02  0.70000006481E+02 0.  0.
         12    1    1    2    0    0 -0.58639588238E+01 -0.16651783441E+02  0.62458849127E+01  0.18726424730E+02  0.00000000000E+00 0. -1.
         11    1    3    3    0    0  0.13385216942E+01  0.14605852092E+02  0.18823156249E+02  0.23862811383E+02  0.51100000000E-03 0. -1.
        -11    1    3    3    0    0 -0.14202674434E+02  0.64592749887E+01  0.16316284343E+01  0.15687587643E+02  0.51100000000E-03 0.  1.
        -12    1    3    3    0    0  0.18728111564E+02 -0.44133436404E+01 -0.26700669596E+02  0.32911176243E+02  0.00000000000E+00 0.  1.
</event>
<event>
 7    1  0.2153242E-013  0.7246157E+02  0.7816164E-02  0.1226708E+00
        -11   -1    0    0    0    0  0.00000000000E+00  0.00000000000E+00  0.45593999997E+02  0.45594000000E+02  0.51100000000E-03 0. -1.
         11   -1    0    0    0    0 -0.00000000000E+00 -0.00000000000E+00 -0.45593999997E+02  0.45594000000E+02  0.51100000000E-03 0.  1.
    9900012    2    1    2    0    0 -0.25621329231E+01  0.14469149060E+02 -0.11608541033E+02  0.72461574165E+02  0.70000005042E+02 0.  0.
         12    1    1    2    0    0  0.25621329231E+01 -0.14469149060E+02  0.11608541033E+02  0.18726425835E+02  0.00000000000E+00 0. -1.
         11    1    3    3    0    0 -0.60925629713E-01  0.57684929584E+01 -0.57158860019E+01  0.81209959975E+01  0.51100000000E-03 0. -1.
        -11    1    3    3    0    0  0.12904951741E+02  0.32910882419E+02 -0.41124175761E+01  0.35588986212E+02  0.51100000000E-03 0.  1.
         12    1    3    3    0    0 -0.15406159035E+02 -0.24210226317E+02 -0.17802374553E+01  0.28751591955E+02  0.00000000000E+00 0. -1.
</event>
<event>
 7    1  0.2153242E-013  0.7246142E+02  0.7816164E-02  0.1226708E+00
        -11   -1    0    0    0    0  0.00000000000E+00  0.00000000000E+00  0.45593999997E+02  0.45594000000E+02  0.51100000000E-03 0.  1.
         11   -1    0    0    0    0 -0.00000000000E+00 -0.00000000000E+00 -0.45593999997E+02  0.45594000000E+02  0.51100000000E-03 0. -1.
    9900012    2    1    2    0    0 -0.18138182333E+02  0.86944558273E+00  0.45755128056E+01  0.72461416986E+02  0.69999800287E+02 0.  0.
         12    1    1    2    0    0  0.18138182333E+02 -0.86944558273E+00 -0.45755128056E+01  0.18726583014E+02  0.00000000000E+00 0. -1.
         11    1    3    3    0    0  0.75926861975E+00  0.15553375394E+02 -0.14706136625E+02  0.21418553398E+02  0.51100000000E-03 0. -1.
        -11    1    3    3    0    0 -0.67915538427E+01 -0.80872712443E+01  0.31124964681E+02  0.32867804710E+02  0.51100000000E-03 0.  1.
         12    1    3    3    0    0 -0.12105897110E+02 -0.65966585667E+01 -0.11843315251E+02  0.18175058878E+02  0.00000000000E+00 0. -1.
</event>
<event>
 7    1  0.2153242E-013  0.7246155E+02  0.7816164E-02  0.1226708E+00
        -11   -1    0    0    0    0  0.00000000000E+00  0.00000000000E+00  0.45593999997E+02  0.45594000000E+02  0.51100000000E-03 0. -1.
         11   -1    0    0    0    0 -0.00000000000E+00 -0.00000000000E+00 -0.45593999997E+02  0.45594000000E+02  0.51100000000E-03 0.  1.
    9900012    2    1    2    0    0  0.10643561226E+02 -0.45050661069E+01 -0.14734282505E+02  0.72461545527E+02  0.69999967736E+02 0.  0.
         12    1    1    2    0    0 -0.10643561226E+02  0.45050661069E+01  0.14734282505E+02  0.18726454473E+02  0.00000000000E+00 0. -1.
         11    1    3    3    0    0  0.63093199287E+01 -0.18406003376E+02 -0.39184383181E+01  0.19847988245E+02  0.51100000000E-03 0. -1.
        -11    1    3    3    0    0 -0.99517077028E+01 -0.10450678360E+02 -0.18396009767E+02  0.23380896903E+02  0.51100000000E-03 0.  1.
        -12    1    3    3    0    0  0.14285949000E+02  0.24351615630E+02  0.75801655798E+01  0.29232660379E+02  0.00000000000E+00 0.  1.
</event>
<event>
 7    1  0.2153242E-013  0.7246156E+02  0.7816164E-02  0.1226708E+00
        -11   -1    0    0    0    0  0.00000000000E+00  0.00000000000E+00  0.45593999997E+02  0.45594000000E+02  0.51100000000E-03 0. -1.
         11   -1    0    0    0    0 -0.00000000000E+00 -0.00000000000E+00 -0.45593999997E+02  0.45594000000E+02  0.51100000000E-03 0.  1.
    9900012    2    1    2    0    0  0.18550046920E+01 -0.13558443979E+02 -0.12783078756E+02  0.72461560188E+02  0.69999986834E+02 0.  0.
         12    1    1    2    0    0 -0.18550046920E+01  0.13558443979E+02  0.12783078756E+02  0.18726439812E+02  0.00000000000E+00 0. -1.
         11    1    3    3    0    0  0.13372664213E+02  0.13984607516E+02 -0.13004221484E+02  0.23313240277E+02  0.51100000000E-03 0. -1.
        -11    1    3    3    0    0  0.72471651911E+01 -0.96838802539E+01 -0.14870035112E+02  0.19168121571E+02  0.51100000000E-03 0.  1.
        -12    1    3    3    0    0 -0.18764824712E+02 -0.17859171242E+02  0.15091177839E+02  0.29980198340E+02  0.00000000000E+00 0.  1.
</event>
<event>
 7    1  0.2153242E-013  0.7246148E+02  0.7816164E-02  0.1226708E+00
        -11   -1    0    0    0    0  0.00000000000E+00  0.00000000000E+00  0.45593999997E+02  0.45594000000E+02  0.51100000000E-03 0.  1.
         11   -1    0    0    0    0 -0.00000000000E+00 -0.00000000000E+00 -0.45593999997E+02  0.45594000000E+02  0.51100000000E-03 0. -1.
    9900012    2    1    2    0    0 -0.67602177161E+01  0.13619666102E+02  0.10930991457E+02  0.72461483439E+02  0.69999886854E+02 0.  0.
         12    1    1    2    0    0  0.67602177161E+01 -0.13619666102E+02 -0.10930991457E+02  0.18726516561E+02  0.00000000000E+00 0. -1.
         11    1    3    3    0    0 -0.20822147750E+02 -0.53273249816E+01 -0.14899387860E+02  0.26152131600E+02  0.51100000000E-03 0. -1.
        -11    1    3    3    0    0  0.14121025968E+02  0.97424918894E+01 -0.17392909544E+01  0.17243684522E+02  0.51100000000E-03 0.  1.
        -12    1    3    3    0    0 -0.59095934413E-01  0.92044991936E+01  0.27569670271E+02  0.29065667317E+02  0.00000000000E+00 0.  1.
</event>
<event>
 7    1  0.2153242E-013  0.7246157E+02  0.7816164E-02  0.1226708E+00
        -11   -1    0    0    0    0  0.00000000000E+00  0.00000000000E+00  0.45593999997E+02  0.45594000000E+02  0.51100000000E-03 0.  1.
         11   -1    0    0    0    0 -0.00000000000E+00 -0.00000000000E+00 -0.45593999997E+02  0.45594000000E+02  0.51100000000E-03 0. -1.
    9900012    2    1    2    0    0 -0.73300641202E+01  0.17027335349E+02  0.26493900618E+01  0.72461567964E+02  0.69999996964E+02 0.  0.
         12    1    1    2    0    0  0.73300641202E+01 -0.17027335349E+02 -0.26493900618E+01  0.18726432036E+02  0.00000000000E+00 0. -1.
         11    1    3    3    0    0 -0.90423739023E+00 -0.65069167567E+01  0.29137318703E+01  0.71866156576E+01  0.51100000000E-03 0. -1.
        -11    1    3    3    0    0 -0.33198198602E+02  0.17377318572E+02  0.30964075404E+01  0.37598927260E+02  0.51100000000E-03 0.  1.
         12    1    3    3    0    0  0.26772371872E+02  0.61569335343E+01 -0.33607493489E+01  0.27676025047E+02  0.00000000000E+00 0. -1.
</event>
<event>
 7    1  0.2153242E-013  0.7246157E+02  0.7816164E-02  0.1226708E+00
        -11   -1    0    0    0    0  0.00000000000E+00  0.00000000000E+00  0.45593999997E+02  0.45594000000E+02  0.51100000000E-03 0.  1.
         11   -1    0    0    0    0 -0.00000000000E+00 -0.00000000000E+00 -0.45593999997E+02  0.45594000000E+02  0.51100000000E-03 0. -1.
    9900012    2    1    2    0    0  0.59773826570E+01  0.16097790489E+02  0.74706928010E+01  0.72461569134E+02  0.69999998488E+02 0.  0.
         12    1    1    2    0    0 -0.59773826570E+01 -0.16097790489E+02 -0.74706928010E+01  0.18726430866E+02  0.00000000000E+00 0. -1.
         11    1    3    3    0    0 -0.10875127277E+02  0.10600817422E+02 -0.16088626551E+02  0.22124412487E+02  0.51100000000E-03 0. -1.
        -11    1    3    3    0    0  0.41432647299E+00  0.96748981320E+01 -0.92572500158E+01  0.13396715956E+02  0.51100000000E-03 0.  1.
        -12    1    3    3    0    0  0.16438183461E+02 -0.41779250650E+01  0.32816569368E+02  0.36940440691E+02  0.00000000000E+00 0.  1.
</event>
<event>
 7    1  0.2153242E-013  0.7246163E+02  0.7816164E-02  0.1226708E+00
        -11   -1    0    0    0    0  0.00000000000E+00  0.00000000000E+00  0.45593999997E+02  0.45594000000E+02  0.51100000000E-03 0. -1.
         11   -1    0    0    0    0 -0.00000000000E+00 -0.00000000000E+00 -0.45593999997E+02  0.45594000000E+02  0.51100000000E-03 0.  1.
    9900012    2    1    2    0    0  0.72523072941E+01  0.12551392542E+02  0.11855099679E+02  0.72461633449E+02  0.70000082270E+02 0.  0.
         12    1    1    2    0    0 -0.72523072941E+01 -0.12551392542E+02 -0.11855099679E+02  0.18726366551E+02  0.00000000000E+00 0. -1.
         11    1    3    3    0    0  0.42051923217E+01 -0.23099656500E+02  0.61387914707E+00  0.23487328941E+02  0.51100000000E-03 0. -1.
        -11    1    3    3    0    0 -0.78843383630E+00 -0.56263951341E+01 -0.95749485571E+00  0.57614882434E+01  0.51100000000E-03 0.  1.
        -12    1    3    3    0    0  0.38355488088E+01  0.41277444176E+02  0.12198715387E+02  0.43212816264E+02  0.00000000000E+00 0.  1.
</event>
<event>
 7    1  0.2153242E-013  0.7246158E+02  0.7816164E-02  0.1226708E+00
        -11   -1    0    0    0    0  0.00000000000E+00  0.00000000000E+00  0.45593999997E+02  0.45594000000E+02  0.51100000000E-03 0.  1.
         11   -1    0    0    0    0 -0.00000000000E+00 -0.00000000000E+00 -0.45593999997E+02  0.45594000000E+02  0.51100000000E-03 0. -1.
    9900012    2    1    2    0    0 -0.72114452609E+01 -0.17185420760E+02 -0.18262388045E+01  0.72461580758E+02  0.70000013631E+02 0.  0.
         12    1    1    2    0    0  0.72114452609E+01  0.17185420760E+02  0.18262388045E+01  0.18726419242E+02  0.00000000000E+00 0. -1.
         11    1    3    3    0    0 -0.71707157127E+01 -0.10790539854E+02  0.91488873112E+01  0.15860550226E+02  0.51100000000E-03 0. -1.
        -11    1    3    3    0    0 -0.19185182327E+02 -0.22165072710E+02 -0.12234978268E+02  0.31765647524E+02  0.51100000000E-03 0.  1.
         12    1    3    3    0    0  0.19144452778E+02  0.15770191804E+02  0.12598521523E+01  0.24835383008E+02  0.00000000000E+00 0. -1.
</event>
<event>
 7    1  0.2153242E-013  0.7246153E+02  0.7816164E-02  0.1226708E+00
        -11   -1    0    0    0    0  0.00000000000E+00  0.00000000000E+00  0.45593999997E+02  0.45594000000E+02  0.51100000000E-03 0. -1.
         11   -1    0    0    0    0 -0.00000000000E+00 -0.00000000000E+00 -0.45593999997E+02  0.45594000000E+02  0.51100000000E-03 0.  1.
    9900012    2    1    2    0    0  0.35014813086E+01  0.64775851937E+01 -0.17218046093E+02  0.72461532299E+02  0.69999950504E+02 0.  0.
         12    1    1    2    0    0 -0.35014813086E+01 -0.64775851937E+01  0.17218046093E+02  0.18726467701E+02  0.00000000000E+00 0. -1.
         11    1    3    3    0    0  0.51841737404E+00 -0.19453167778E+02  0.15670680848E+01  0.19523068299E+02  0.51100000000E-03 0.  1.
        -11    1    3    3    0    0  0.12120081009E+02  0.38456244165E+01 -0.25170168250E+02  0.28199690793E+02  0.51100000000E-03 0. -1.
         12    1    3    3    0    0 -0.91370170747E+01  0.22085128555E+02  0.63850540722E+01  0.24738773207E+02  0.00000000000E+00 0. -1.
</event>
<event>
 7    1  0.2153242E-013  0.7246159E+02  0.7816164E-02  0.1226708E+00
        -11   -1    0    0    0    0  0.00000000000E+00  0.00000000000E+00  0.45593999997E+02  0.45594000000E+02  0.51100000000E-03 0. -1.
         11   -1    0    0    0    0 -0.00000000000E+00 -0.00000000000E+00 -0.45593999997E+02  0.45594000000E+02  0.51100000000E-03 0.  1.
    9900012    2    1    2    0    0  0.12207706845E+02 -0.49582267028E+00  0.14191701062E+02  0.72461592828E+02  0.70000029355E+02 0.  0.
         12    1    1    2    0    0 -0.12207706845E+02  0.49582267028E+00 -0.14191701062E+02  0.18726407172E+02  0.00000000000E+00 0. -1.
         11    1    3    3    0    0  0.46529740795E+01  0.80574411698E+00 -0.36728578392E+01  0.59824139220E+01  0.51100000000E-03 0. -1.
        -11    1    3    3    0    0  0.10617592824E+02 -0.10337278530E+02 -0.21423564212E+02  0.26049217044E+02  0.51100000000E-03 0.  1.
         12    1    3    3    0    0 -0.30628600588E+01  0.90357117426E+01  0.39288123113E+02  0.40429961862E+02  0.00000000000E+00 0. -1.
</event>
<event>
 7    1  0.2153242E-013  0.7246153E+02  0.7816164E-02  0.1226708E+00
        -11   -1    0    0    0    0  0.00000000000E+00  0.00000000000E+00  0.45593999997E+02  0.45594000000E+02  0.51100000000E-03 0. -1.
         11   -1    0    0    0    0 -0.00000000000E+00 -0.00000000000E+00 -0.45593999997E+02  0.45594000000E+02  0.51100000000E-03 0.  1.
    9900012    2    1    2    0    0 -0.56216480523E+01  0.58988618712E+01 -0.16860640766E+02  0.72461529290E+02  0.69999946585E+02 0.  0.
         12    1    1    2    0    0  0.56216480523E+01 -0.58988618712E+01  0.16860640766E+02  0.18726470710E+02  0.00000000000E+00 0. -1.
         11    1    3    3    0    0 -0.98046752376E+00 -0.68072560109E+01 -0.70466392579E+01  0.98465819478E+01  0.51100000000E-03 0. -1.
        -11    1    3    3    0    0 -0.28801703955E+02  0.57432240575E+01 -0.19951160661E+02  0.35504529081E+02  0.51100000000E-03 0.  1.
         12    1    3    3    0    0  0.24160523426E+02  0.69628938247E+01  0.10137159153E+02  0.27110418262E+02  0.00000000000E+00 0. -1.
</event>
<event>
 7    1  0.2153242E-013  0.7246154E+02  0.7816164E-02  0.1226708E+00
        -11   -1    0    0    0    0  0.00000000000E+00  0.00000000000E+00  0.45593999997E+02  0.45594000000E+02  0.51100000000E-03 0.  1.
         11   -1    0    0    0    0 -0.00000000000E+00 -0.00000000000E+00 -0.45593999997E+02  0.45594000000E+02  0.51100000000E-03 0. -1.
    9900012    2    1    2    0    0  0.20082582958E+01 -0.18600377852E+02  0.82038064426E+00  0.72461543260E+02  0.69999964783E+02 0.  0.
         12    1    1    2    0    0 -0.20082582958E+01  0.18600377852E+02 -0.82038064426E+00  0.18726456740E+02  0.00000000000E+00 0. -1.
         11    1    3    3    0    0  0.35495262554E+01  0.10281650740E+02 -0.19405730009E+01  0.11048859779E+02  0.51100000000E-03 0. -1.
        -11    1    3    3    0    0 -0.15738181834E+02  0.25183016271E+01  0.17730452393E+02  0.23841165090E+02  0.51100000000E-03 0.  1.
         12    1    3    3    0    0  0.14196913874E+02 -0.31400330220E+02 -0.14969498748E+02  0.37571518391E+02  0.00000000000E+00 0. -1.
</event>
<event>
 7    1  0.2153242E-013  0.7246154E+02  0.7816164E-02  0.1226708E+00
        -11   -1    0    0    0    0  0.00000000000E+00  0.00000000000E+00  0.45593999997E+02  0.45594000000E+02  0.51100000000E-03 0. -1.
         11   -1    0    0    0    0 -0.00000000000E+00 -0.00000000000E+00 -0.45593999997E+02  0.45594000000E+02  0.51100000000E-03 0.  1.
    9900012    2    1    2    0    0 -0.17245719449E+02 -0.68181331172E+01 -0.26035525705E+01  0.72461541058E+02  0.69999961914E+02 0.  0.
         12    1    1    2    0    0  0.17245719449E+02  0.68181331172E+01  0.26035525705E+01  0.18726458942E+02  0.00000000000E+00 0. -1.
         11    1    3    3    0    0 -0.64650492002E+01  0.58567184860E+01 -0.30303093139E+01  0.92347597362E+01  0.51100000000E-03 0. -1.
        -11    1    3    3    0    0 -0.33175806689E+02  0.43037841078E+01  0.74184641793E+01  0.34266460543E+02  0.51100000000E-03 0.  1.
         12    1    3    3    0    0  0.22395136439E+02 -0.16978635711E+02 -0.69917074360E+01  0.28960320779E+02  0.00000000000E+00 0. -1.
</event>
<event>
 7    1  0.2153242E-013  0.7246157E+02  0.7816164E-02  0.1226708E+00
        -11   -1    0    0    0    0  0.00000000000E+00  0.00000000000E+00  0.45593999997E+02  0.45594000000E+02  0.51100000000E-03 0. -1.
         11   -1    0    0    0    0 -0.00000000000E+00 -0.00000000000E+00 -0.45593999997E+02  0.45594000000E+02  0.51100000000E-03 0.  1.
    9900012    2    1    2    0    0  0.10337257568E+02 -0.35876408831E+01 -0.15197006134E+02  0.72461573310E+02  0.70000003928E+02 0.  0.
         12    1    1    2    0    0 -0.10337257568E+02  0.35876408831E+01  0.15197006134E+02  0.18726426690E+02  0.00000000000E+00 0. -1.
         11    1    3    3    0    0  0.92475808686E+01 -0.11299939159E+02  0.31868962928E+01  0.14945323187E+02  0.51100000000E-03 0. -1.
        -11    1    3    3    0    0  0.19220358064E+02  0.95109485129E+01  0.10099575230E+02  0.23704044503E+02  0.51100000000E-03 0.  1.
        -12    1    3    3    0    0 -0.18130681364E+02 -0.17986502365E+01 -0.28483477657E+02  0.33812205619E+02  0.00000000000E+00 0.  1.
</event>
<event>
 7    1  0.2153242E-013  0.7246162E+02  0.7816164E-02  0.1226708E+00
        -11   -1    0    0    0    0  0.00000000000E+00  0.00000000000E+00  0.45593999997E+02  0.45594000000E+02  0.51100000000E-03 0.  1.
         11   -1    0    0    0    0 -0.00000000000E+00 -0.00000000000E+00 -0.45593999997E+02  0.45594000000E+02  0.51100000000E-03 0. -1.
    9900012    2    1    2    0    0 -0.10785604199E+02 -0.38034812430E+01  0.14828407536E+02  0.72461617606E+02  0.70000061632E+02 0.  0.
         12    1    1    2    0    0  0.10785604199E+02  0.38034812430E+01 -0.14828407536E+02  0.18726382394E+02  0.00000000000E+00 0. -1.
         11    1    3    3    0    0 -0.12057446654E+02  0.97965011740E+00  0.32935373880E+02  0.35086758002E+02  0.51100000000E-03 0. -1.
        -11    1    3    3    0    0  0.93565190263E+01  0.58558186056E+01  0.38343912246E+01  0.11684931158E+02  0.51100000000E-03 0.  1.
         12    1    3    3    0    0 -0.80846765716E+01 -0.10638949966E+02 -0.21941357569E+02  0.25689928447E+02  0.00000000000E+00 0. -1.
</event>
<event>
 7    1  0.2153242E-013  0.7246157E+02  0.7816164E-02  0.1226708E+00
        -11   -1    0    0    0    0  0.00000000000E+00  0.00000000000E+00  0.45593999997E+02  0.45594000000E+02  0.51100000000E-03 0. -1.
         11   -1    0    0    0    0 -0.00000000000E+00 -0.00000000000E+00 -0.45593999997E+02  0.45594000000E+02  0.51100000000E-03 0.  1.
    9900012    2    1    2    0    0 -0.90004417320E+01  0.14604983930E+02  0.75077183263E+01  0.72461565704E+02  0.69999994020E+02 0.  0.
         12    1    1    2    0    0  0.90004417320E+01 -0.14604983930E+02 -0.75077183263E+01  0.18726434296E+02  0.00000000000E+00 0. -1.
         11    1    3    3    0    0  0.70608639087E+01  0.19718428526E+02  0.22500329138E+02  0.30739828143E+02  0.51100000000E-03 0. -1.
        -11    1    3    3    0    0  0.59808845828E+01  0.59947202033E+01  0.51082276439E+01  0.98894712008E+01  0.51100000000E-03 0.  1.
        -12    1    3    3    0    0 -0.22042190223E+02 -0.11108164799E+02 -0.20100838455E+02  0.31832266361E+02  0.00000000000E+00 0.  1.
</event>
<event>
 7    1  0.2153242E-013  0.7246171E+02  0.7816164E-02  0.1226708E+00
        -11   -1    0    0    0    0  0.00000000000E+00  0.00000000000E+00  0.45593999997E+02  0.45594000000E+02  0.51100000000E-03 0. -1.
         11   -1    0    0    0    0 -0.00000000000E+00 -0.00000000000E+00 -0.45593999997E+02  0.45594000000E+02  0.51100000000E-03 0.  1.
    9900012    2    1    2    0    0  0.14712634592E+02  0.91651863379E+01 -0.70860131696E+01  0.72461712597E+02  0.70000185376E+02 0.  0.
         12    1    1    2    0    0 -0.14712634592E+02 -0.91651863379E+01  0.70860131696E+01  0.18726287403E+02  0.00000000000E+00 0. -1.
         11    1    3    3    0    0 -0.37723641115E+01 -0.44028040112E+01  0.18044305275E+02  0.18952898651E+02  0.51100000000E-03 0. -1.
        -11    1    3    3    0    0 -0.11783993219E+02 -0.13683448654E+01 -0.78040183062E+00  0.11888813698E+02  0.51100000000E-03 0.  1.
        -12    1    3    3    0    0  0.30268991922E+02  0.14936335214E+02 -0.24349916614E+02  0.41620000249E+02  0.00000000000E+00 0.  1.
</event>
<event>
 7    1  0.2153242E-013  0.7246164E+02  0.7816164E-02  0.1226708E+00
        -11   -1    0    0    0    0  0.00000000000E+00  0.00000000000E+00  0.45593999997E+02  0.45594000000E+02  0.51100000000E-03 0. -1.
         11   -1    0    0    0    0 -0.00000000000E+00 -0.00000000000E+00 -0.45593999997E+02  0.45594000000E+02  0.51100000000E-03 0.  1.
    9900012    2    1    2    0    0  0.27305620706E+01  0.17188796444E+02  0.69112894427E+01  0.72461638523E+02  0.70000088881E+02 0.  0.
         12    1    1    2    0    0 -0.27305620706E+01 -0.17188796444E+02 -0.69112894427E+01  0.18726361477E+02  0.00000000000E+00 0. -1.
         11    1    3    3    0    0  0.82230666900E+01  0.34542006985E+02  0.14476489100E+02  0.38344984148E+02  0.51100000000E-03 0. -1.
        -11    1    3    3    0    0 -0.95453714387E+01 -0.91203375386E+01  0.84386699786E+01  0.15668625466E+02  0.51100000000E-03 0.  1.
        -12    1    3    3    0    0  0.40528668193E+01 -0.82328730031E+01 -0.16003869636E+02  0.18448028910E+02  0.00000000000E+00 0.  1.
</event>
<event>
 7    1  0.2153242E-013  0.7246162E+02  0.7816164E-02  0.1226708E+00
        -11   -1    0    0    0    0  0.00000000000E+00  0.00000000000E+00  0.45593999997E+02  0.45594000000E+02  0.51100000000E-03 0.  1.
         11   -1    0    0    0    0 -0.00000000000E+00 -0.00000000000E+00 -0.45593999997E+02  0.45594000000E+02  0.51100000000E-03 0. -1.
    9900012    2    1    2    0    0  0.12198156174E+02  0.45545059967E+01  0.13458782909E+02  0.72461618174E+02  0.70000062372E+02 0.  0.
         12    1    1    2    0    0 -0.12198156174E+02 -0.45545059967E+01 -0.13458782909E+02  0.18726381826E+02  0.00000000000E+00 0. -1.
         11    1    3    3    0    0 -0.15291601206E+01  0.24178163041E+02 -0.25610772958E+01  0.24361465799E+02  0.51100000000E-03 0. -1.
        -11    1    3    3    0    0  0.16900892656E+02  0.24359654596E+01 -0.46567682199E+01  0.17699140962E+02  0.51100000000E-03 0.  1.
        -12    1    3    3    0    0 -0.31735763615E+01 -0.22059622504E+02  0.20676628424E+02  0.30401011413E+02  0.00000000000E+00 0.  1.
</event>
<event>
 7    1  0.2153242E-013  0.7246159E+02  0.7816164E-02  0.1226708E+00
        -11   -1    0    0    0    0  0.00000000000E+00  0.00000000000E+00  0.45593999997E+02  0.45594000000E+02  0.51100000000E-03 0.  1.
         11   -1    0    0    0    0 -0.00000000000E+00 -0.00000000000E+00 -0.45593999997E+02  0.45594000000E+02  0.51100000000E-03 0. -1.
    9900012    2    1    2    0    0  0.13808400028E+02 -0.60931400026E+01  0.11085138966E+02  0.72461586240E+02  0.70000020772E+02 0.  0.
         12    1    1    2    0    0 -0.13808400028E+02  0.60931400026E+01 -0.11085138966E+02  0.18726413760E+02  0.00000000000E+00 0. -1.
         11    1    3    3    0    0 -0.25099810715E+01 -0.24256135477E+02 -0.67868938898E+01  0.25312487871E+02  0.51100000000E-03 0. -1.
        -11    1    3    3    0    0  0.51391674200E+01 -0.11139328851E+02  0.49235749191E+01  0.13218822916E+02  0.51100000000E-03 0.  1.
        -12    1    3    3    0    0  0.11179213679E+02  0.29302324326E+02  0.12948457937E+02  0.33930275453E+02  0.00000000000E+00 0.  1.
</event>
<event>
 7    1  0.2153242E-013  0.7246159E+02  0.7816164E-02  0.1226708E+00
        -11   -1    0    0    0    0  0.00000000000E+00  0.00000000000E+00  0.45593999997E+02  0.45594000000E+02  0.51100000000E-03 0.  1.
         11   -1    0    0    0    0 -0.00000000000E+00 -0.00000000000E+00 -0.45593999997E+02  0.45594000000E+02  0.51100000000E-03 0. -1.
    9900012    2    1    2    0    0 -0.14213127073E+02  0.65290883199E+01  0.10297398337E+02  0.72461591162E+02  0.70000027184E+02 0.  0.
         12    1    1    2    0    0  0.14213127073E+02 -0.65290883199E+01 -0.10297398337E+02  0.18726408838E+02  0.00000000000E+00 0. -1.
         11    1    3    3    0    0  0.30782753506E+01  0.43574132864E+01 -0.64124600350E+01  0.83416109742E+01  0.51100000000E-03 0. -1.
        -11    1    3    3    0    0  0.56522218727E+01  0.24104986468E+02  0.20512544323E+02  0.32152176592E+02  0.51100000000E-03 0.  1.
         12    1    3    3    0    0 -0.22943624296E+02 -0.21933311434E+02 -0.38026859516E+01  0.31967803596E+02  0.00000000000E+00 0. -1.
</event>
<event>
 7    1  0.2153242E-013  0.7246156E+02  0.7816164E-02  0.1226708E+00
        -11   -1    0    0    0    0  0.00000000000E+00  0.00000000000E+00  0.45593999997E+02  0.45594000000E+02  0.51100000000E-03 0. -1.
         11   -1    0    0    0    0 -0.00000000000E+00 -0.00000000000E+00 -0.45593999997E+02  0.45594000000E+02  0.51100000000E-03 0.  1.
    9900012    2    1    2    0    0  0.73087152312E+01 -0.17164435804E+02 -0.16261122282E+01  0.72461563719E+02  0.69999991435E+02 0.  0.
         12    1    1    2    0    0 -0.73087152312E+01  0.17164435804E+02  0.16261122282E+01  0.18726436281E+02  0.00000000000E+00 0. -1.
         11    1    3    3    0    0 -0.32824405408E+01 -0.95625003145E+01  0.15496834348E+02  0.18503180895E+02  0.51100000000E-03 0. -1.
        -11    1    3    3    0    0  0.14333275019E+02 -0.26957744023E+02 -0.53504248694E+01  0.30996609204E+02  0.51100000000E-03 0.  1.
         12    1    3    3    0    0 -0.37421192474E+01  0.19355808534E+02 -0.11772521707E+02  0.22961773620E+02  0.00000000000E+00 0. -1.
</event>
<event>
 7    1  0.2153242E-013  0.7246142E+02  0.7816164E-02  0.1226708E+00
        -11   -1    0    0    0    0  0.00000000000E+00  0.00000000000E+00  0.45593999997E+02  0.45594000000E+02  0.51100000000E-03 0. -1.
         11   -1    0    0    0    0 -0.00000000000E+00 -0.00000000000E+00 -0.45593999997E+02  0.45594000000E+02  0.51100000000E-03 0.  1.
    9900012    2    1    2    0    0  0.23452655181E+00  0.97462666654E+01 -0.15988752977E+02  0.72461416265E+02  0.69999799348E+02 0.  0.
         12    1    1    2    0    0 -0.23452655181E+00 -0.97462666654E+01  0.15988752977E+02  0.18726583735E+02  0.00000000000E+00 0. -1.
         11    1    3    3    0    0 -0.36014473906E+01  0.32215721673E+02 -0.18891751771E+02  0.37519613957E+02  0.51100000000E-03 0. -1.
        -11    1    3    3    0    0  0.52184644813E+00 -0.95450681632E+01  0.14430316446E+02  0.17309381356E+02  0.51100000000E-03 0.  1.
        -12    1    3    3    0    0  0.33141274943E+01 -0.12924386845E+02 -0.11527317652E+02  0.17632420952E+02  0.00000000000E+00 0.  1.
</event>
<event>
 7    1  0.2153242E-013  0.7246163E+02  0.7816164E-02  0.1226708E+00
        -11   -1    0    0    0    0  0.00000000000E+00  0.00000000000E+00  0.45593999997E+02  0.45594000000E+02  0.51100000000E-03 0. -1.
         11   -1    0    0    0    0 -0.00000000000E+00 -0.00000000000E+00 -0.45593999997E+02  0.45594000000E+02  0.51100000000E-03 0.  1.
    9900012    2    1    2    0    0 -0.93922174369E+01  0.61791969771E+01 -0.14976007663E+02  0.72461627442E+02  0.70000074445E+02 0.  0.
         12    1    1    2    0    0  0.93922174369E+01 -0.61791969771E+01  0.14976007663E+02  0.18726372558E+02  0.00000000000E+00 0. -1.
         11    1    3    3    0    0  0.20310722587E+02  0.48120710756E+01 -0.13187406617E+02  0.24689859732E+02  0.51100000000E-03 0. -1.
        -11    1    3    3    0    0  0.32181356683E+01 -0.82528854811E+01 -0.91041256688E+01  0.12702425768E+02  0.51100000000E-03 0.  1.
        -12    1    3    3    0    0 -0.32921075692E+02  0.96200113827E+01  0.73155246224E+01  0.35069341942E+02  0.00000000000E+00 0.  1.
</event>
<event>
 7    1  0.2153242E-013  0.7246153E+02  0.7816164E-02  0.1226708E+00
        -11   -1    0    0    0    0  0.00000000000E+00  0.00000000000E+00  0.45593999997E+02  0.45594000000E+02  0.51100000000E-03 0.  1.
         11   -1    0    0    0    0 -0.00000000000E+00 -0.00000000000E+00 -0.45593999997E+02  0.45594000000E+02  0.51100000000E-03 0. -1.
    9900012    2    1    2    0    0  0.11495452374E+02  0.14664365716E+02 -0.18685454021E+01  0.72461534529E+02  0.69999953409E+02 0.  0.
         12    1    1    2    0    0 -0.11495452374E+02 -0.14664365716E+02  0.18685454021E+01  0.18726465471E+02  0.00000000000E+00 0. -1.
         11    1    3    3    0    0  0.21311922145E+02  0.16269954041E+02 -0.28320466149E+01  0.26961637900E+02  0.51100000000E-03 0. -1.
        -11    1    3    3    0    0  0.11576693789E+02  0.11188933813E+02  0.10037224492E+02  0.18972557938E+02  0.51100000000E-03 0.  1.
        -12    1    3    3    0    0 -0.21393163560E+02 -0.12794522138E+02 -0.90737232793E+01  0.26527338690E+02  0.00000000000E+00 0.  1.
</event>
<event>
 7    1  0.2153242E-013  0.7246158E+02  0.7816164E-02  0.1226708E+00
        -11   -1    0    0    0    0  0.00000000000E+00  0.00000000000E+00  0.45593999997E+02  0.45594000000E+02  0.51100000000E-03 0.  1.
         11   -1    0    0    0    0 -0.00000000000E+00 -0.00000000000E+00 -0.45593999997E+02  0.45594000000E+02  0.51100000000E-03 0. -1.
    9900012    2    1    2    0    0 -0.66430376663E+01  0.51185190695E+01  0.16743641593E+02  0.72461582278E+02  0.70000015612E+02 0.  0.
         12    1    1    2    0    0  0.66430376663E+01 -0.51185190695E+01 -0.16743641593E+02  0.18726417722E+02  0.00000000000E+00 0. -1.
         11    1    3    3    0    0 -0.75600502731E+01 -0.32381154641E+01  0.60926939532E+01  0.10235266081E+02  0.51100000000E-03 0. -1.
        -11    1    3    3    0    0 -0.46450887577E+01  0.27793707425E+02  0.24809467399E+02  0.37544329730E+02  0.51100000000E-03 0.  1.
         12    1    3    3    0    0  0.55621013645E+01 -0.19437072891E+02 -0.14158519760E+02  0.24681986467E+02  0.00000000000E+00 0. -1.
</event>
<event>
 7    1  0.2153242E-013  0.7246162E+02  0.7816164E-02  0.1226708E+00
        -11   -1    0    0    0    0  0.00000000000E+00  0.00000000000E+00  0.45593999997E+02  0.45594000000E+02  0.51100000000E-03 0.  1.
         11   -1    0    0    0    0 -0.00000000000E+00 -0.00000000000E+00 -0.45593999997E+02  0.45594000000E+02  0.51100000000E-03 0. -1.
    9900012    2    1    2    0    0  0.86743868823E+01  0.87585566794E+00  0.16573029407E+02  0.72461617150E+02  0.70000061038E+02 0.  0.
         12    1    1    2    0    0 -0.86743868823E+01 -0.87585566794E+00 -0.16573029407E+02  0.18726382850E+02  0.00000000000E+00 0. -1.
         11    1    3    3    0    0  0.11225472404E+02  0.48018214523E+01 -0.90987586544E+00  0.12243226467E+02  0.51100000000E-03 0. -1.
        -11    1    3    3    0    0 -0.35358210847E+01 -0.28243517274E+02  0.21342610256E+02  0.35576752403E+02  0.51100000000E-03 0.  1.
         12    1    3    3    0    0  0.98473556260E+00  0.24317551489E+02 -0.38597049843E+01  0.24641638280E+02  0.00000000000E+00 0. -1.
</event>
<event>
 7    1  0.2153242E-013  0.7246160E+02  0.7816164E-02  0.1226708E+00
        -11   -1    0    0    0    0  0.00000000000E+00  0.00000000000E+00  0.45593999997E+02  0.45594000000E+02  0.51100000000E-03 0.  1.
         11   -1    0    0    0    0 -0.00000000000E+00 -0.00000000000E+00 -0.45593999997E+02  0.45594000000E+02  0.51100000000E-03 0. -1.
    9900012    2    1    2    0    0  0.15956897464E+02 -0.89891063295E+01  0.39052888025E+01  0.72461604460E+02  0.70000044507E+02 0.  0.
         12    1    1    2    0    0 -0.15956897464E+02  0.89891063295E+01 -0.39052888025E+01  0.18726395540E+02  0.00000000000E+00 0. -1.
         11    1    3    3    0    0  0.19345037619E+02  0.47305628912E+01  0.12764303676E+02  0.23654516574E+02  0.51100000000E-03 0.  1.
        -11    1    3    3    0    0 -0.24251089165E+02 -0.11775143590E+02 -0.35482275281E+01  0.27191161268E+02  0.51100000000E-03 0. -1.
         12    1    3    3    0    0  0.20862949010E+02 -0.19445256307E+01 -0.53107873450E+01  0.21615926618E+02  0.00000000000E+00 0. -1.
</event>
<event>
 7    1  0.2153242E-013  0.7246157E+02  0.7816164E-02  0.1226708E+00
        -11   -1    0    0    0    0  0.00000000000E+00  0.00000000000E+00  0.45593999997E+02  0.45594000000E+02  0.51100000000E-03 0.  1.
         11   -1    0    0    0    0 -0.00000000000E+00 -0.00000000000E+00 -0.45593999997E+02  0.45594000000E+02  0.51100000000E-03 0. -1.
    9900012    2    1    2    0    0 -0.60851270896E+01  0.14945040321E+02 -0.95024308267E+01  0.72461569654E+02  0.69999999166E+02 0.  0.
         12    1    1    2    0    0  0.60851270896E+01 -0.14945040321E+02  0.95024308267E+01  0.18726430346E+02  0.00000000000E+00 0. -1.
         11    1    3    3    0    0 -0.13943805221E+02  0.19851706842E+02  0.83454630055E+01  0.25654760214E+02  0.51100000000E-03 0. -1.
        -11    1    3    3    0    0 -0.13557245514E+01  0.11613778665E+02  0.84398668264E+01  0.14420443691E+02  0.51100000000E-03 0.  1.
         12    1    3    3    0    0  0.92144026825E+01 -0.16520445187E+02 -0.26287760659E+02  0.32386365749E+02  0.00000000000E+00 0. -1.
</event>
<event>
 7    1  0.2153242E-013  0.7246176E+02  0.7816164E-02  0.1226707E+00
        -11   -1    0    0    0    0  0.00000000000E+00  0.00000000000E+00  0.45593999997E+02  0.45594000000E+02  0.51100000000E-03 0.  1.
         11   -1    0    0    0    0 -0.00000000000E+00 -0.00000000000E+00 -0.45593999997E+02  0.45594000000E+02  0.51100000000E-03 0. -1.
    9900012    2    1    2    0    0  0.96752178895E+01  0.15289994175E+02 -0.48247453774E+01  0.72461763565E+02  0.70000251770E+02 0.  0.
         12    1    1    2    0    0 -0.96752178895E+01 -0.15289994175E+02  0.48247453774E+01  0.18726236435E+02  0.00000000000E+00 0. -1.
         11    1    3    3    0    0  0.14517517384E+02  0.14367549490E+02 -0.11050019512E+02  0.23222569212E+02  0.51100000000E-03 0. -1.
        -11    1    3    3    0    0  0.14378928238E+02  0.10666665318E+02 -0.11548678924E+02  0.21305006722E+02  0.51100000000E-03 0.  1.
        -12    1    3    3    0    0 -0.19221227732E+02 -0.97442206328E+01  0.17773953059E+02  0.27934187631E+02  0.00000000000E+00 0.  1.
</event>
<event>
 7    1  0.2153242E-013  0.7246166E+02  0.7816164E-02  0.1226708E+00
        -11   -1    0    0    0    0  0.00000000000E+00  0.00000000000E+00  0.45593999997E+02  0.45594000000E+02  0.51100000000E-03 0.  1.
         11   -1    0    0    0    0 -0.00000000000E+00 -0.00000000000E+00 -0.45593999997E+02  0.45594000000E+02  0.51100000000E-03 0. -1.
    9900012    2    1    2    0    0  0.16859961354E+02 -0.47004817459E+01  0.66575440020E+01  0.72461662461E+02  0.70000120064E+02 0.  0.
         12    1    1    2    0    0 -0.16859961354E+02  0.47004817459E+01 -0.66575440020E+01  0.18726337539E+02  0.00000000000E+00 0. -1.
         11    1    3    3    0    0 -0.25152287554E+01  0.10489105711E+02 -0.90092731042E+01  0.14053992900E+02  0.51100000000E-03 0. -1.
        -11    1    3    3    0    0  0.13220623566E+02 -0.29713231942E+02 -0.44708663474E+01  0.32827575086E+02  0.51100000000E-03 0.  1.
        -12    1    3    3    0    0  0.61545665429E+01  0.14523644485E+02  0.20137683454E+02  0.25580094475E+02  0.00000000000E+00 0.  1.
</event>
<event>
 7    1  0.2153242E-013  0.7246160E+02  0.7816164E-02  0.1226708E+00
        -11   -1    0    0    0    0  0.00000000000E+00  0.00000000000E+00  0.45593999997E+02  0.45594000000E+02  0.51100000000E-03 0.  1.
         11   -1    0    0    0    0 -0.00000000000E+00 -0.00000000000E+00 -0.45593999997E+02  0.45594000000E+02  0.51100000000E-03 0. -1.
    9900012    2    1    2    0    0 -0.15739097669E+02  0.66888916420E+01 -0.76300483832E+01  0.72461598713E+02  0.70000037021E+02 0.  0.
         12    1    1    2    0    0  0.15739097669E+02 -0.66888916420E+01  0.76300483832E+01  0.18726401287E+02  0.00000000000E+00 0. -1.
         11    1    3    3    0    0 -0.28555557641E+02  0.22498967465E+02  0.32242315199E+01  0.36496836553E+02  0.51100000000E-03 0. -1.
        -11    1    3    3    0    0 -0.79241118883E+01 -0.26100975265E+01  0.14578415300E+01  0.84693246782E+01  0.51100000000E-03 0.  1.
        -12    1    3    3    0    0  0.20740571861E+02 -0.13199978297E+02 -0.12312121433E+02  0.27495437482E+02  0.00000000000E+00 0.  1.
</event>
<event>
 7    1  0.2153242E-013  0.7246162E+02  0.7816164E-02  0.1226708E+00
        -11   -1    0    0    0    0  0.00000000000E+00  0.00000000000E+00  0.45593999997E+02  0.45594000000E+02  0.51100000000E-03 0.  1.
         11   -1    0    0    0    0 -0.00000000000E+00 -0.00000000000E+00 -0.45593999997E+02  0.45594000000E+02  0.51100000000E-03 0. -1.
    9900012    2    1    2    0    0 -0.50720687091E+01 -0.16705725798E+02  0.67727566358E+01  0.72461617865E+02  0.70000061969E+02 0.  0.
         12    1    1    2    0    0  0.50720687091E+01  0.16705725798E+02 -0.67727566358E+01  0.18726382135E+02  0.00000000000E+00 0. -1.
         11    1    3    3    0    0  0.23831949646E+02 -0.22028992463E+01 -0.13440563434E+02  0.27449286598E+02  0.51100000000E-03 0. -1.
        -11    1    3    3    0    0  0.10247645461E+01 -0.73453085603E+00 -0.39568526483E+01  0.41528738356E+01  0.51100000000E-03 0.  1.
        -12    1    3    3    0    0 -0.29928782902E+02 -0.13768295696E+02  0.24170172718E+02  0.40859457431E+02  0.00000000000E+00 0.  1.
</event>
<event>
 7    1  0.2322980E-013  0.7246161E+02  0.7816164E-02  0.1226708E+00
        -11   -1    0    0    0    0  0.00000000000E+00  0.00000000000E+00  0.45593999997E+02  0.45594000000E+02  0.51100000000E-03 0.  1.
         11   -1    0    0    0    0 -0.00000000000E+00 -0.00000000000E+00 -0.45593999997E+02  0.45594000000E+02  0.51100000000E-03 0. -1.
    9900012    2    1    2    0    0  0.18178699144E+02 -0.25765904601E+00  0.44884577701E+01  0.72461608359E+02  0.70000049586E+02 0.  0.
         12    1    1    2    0    0 -0.18178699144E+02  0.25765904601E+00 -0.44884577701E+01  0.18726391641E+02  0.00000000000E+00 0. -1.
         11    1    3    3    0    0  0.80072820547E+01 -0.51843074181E+01 -0.11178664146E+02  0.14695446290E+02  0.51100000000E-03 0. -1.
        -11    1    3    3    0    0  0.29052607642E+02  0.50880745178E+00  0.22975968703E+02  0.37043326442E+02  0.51100000000E-03 0.  1.
         12    1    3    3    0    0 -0.18881190553E+02  0.44178409203E+01 -0.73088467869E+01  0.20722835627E+02  0.00000000000E+00 0. -1.
</event>
<event>
 7    1  0.2153242E-013  0.7246156E+02  0.7816164E-02  0.1226708E+00
        -11   -1    0    0    0    0  0.00000000000E+00  0.00000000000E+00  0.45593999997E+02  0.45594000000E+02  0.51100000000E-03 0.  1.
         11   -1    0    0    0    0 -0.00000000000E+00 -0.00000000000E+00 -0.45593999997E+02  0.45594000000E+02  0.51100000000E-03 0. -1.
    9900012    2    1    2    0    0 -0.26683999864E+01 -0.39993982464E+01  0.18098727980E+02  0.72461561489E+02  0.69999988529E+02 0.  0.
         12    1    1    2    0    0  0.26683999864E+01  0.39993982464E+01 -0.18098727980E+02  0.18726438511E+02  0.00000000000E+00 0. -1.
         11    1    3    3    0    0 -0.15504136814E+02  0.87436904730E+01  0.12870770536E+02  0.21965589359E+02  0.51100000000E-03 0. -1.
        -11    1    3    3    0    0 -0.12356861610E+02 -0.20138028182E+02 -0.45995060454E+00  0.23631414742E+02  0.51100000000E-03 0.  1.
         12    1    3    3    0    0  0.25192598438E+02  0.73949394621E+01  0.56879080484E+01  0.26864557388E+02  0.00000000000E+00 0. -1.
</event>
<event>
 7    1  0.2153242E-013  0.7246146E+02  0.7816164E-02  0.1226708E+00
        -11   -1    0    0    0    0  0.00000000000E+00  0.00000000000E+00  0.45593999997E+02  0.45594000000E+02  0.51100000000E-03 0.  1.
         11   -1    0    0    0    0 -0.00000000000E+00 -0.00000000000E+00 -0.45593999997E+02  0.45594000000E+02  0.51100000000E-03 0. -1.
    9900012    2    1    2    0    0 -0.97716504838E+01  0.69861697484E+01  0.14366329267E+02  0.72461464348E+02  0.69999861985E+02 0.  0.
         12    1    1    2    0    0  0.97716504838E+01 -0.69861697484E+01 -0.14366329267E+02  0.18726535652E+02  0.00000000000E+00 0. -1.
         11    1    3    3    0    0  0.52491791039E+01 -0.15722699760E+02 -0.10283705632E+02  0.19506710917E+02  0.51100000000E-03 0. -1.
        -11    1    3    3    0    0  0.34559588128E+01 -0.14772538588E+01 -0.76811106878E+01  0.85513386050E+01  0.51100000000E-03 0.  1.
        -12    1    3    3    0    0 -0.18476788401E+02  0.24186123368E+02  0.32331145587E+02  0.44403414825E+02  0.00000000000E+00 0.  1.
</event>
<event>
 7    1  0.2153242E-013  0.7246159E+02  0.7816164E-02  0.1226708E+00
        -11   -1    0    0    0    0  0.00000000000E+00  0.00000000000E+00  0.45593999997E+02  0.45594000000E+02  0.51100000000E-03 0. -1.
         11   -1    0    0    0    0 -0.00000000000E+00 -0.00000000000E+00 -0.45593999997E+02  0.45594000000E+02  0.51100000000E-03 0.  1.
    9900012    2    1    2    0    0 -0.12516011453E+02 -0.59595062613E+01 -0.12590156831E+02  0.72461593334E+02  0.70000030014E+02 0.  0.
         12    1    1    2    0    0  0.12516011453E+02  0.59595062613E+01  0.12590156831E+02  0.18726406666E+02  0.00000000000E+00 0. -1.
         11    1    3    3    0    0  0.16779021357E+02 -0.10664439806E+02  0.10520959446E+02  0.22493475098E+02  0.51100000000E-03 0. -1.
        -11    1    3    3    0    0 -0.14494458659E+02 -0.13943473864E+02 -0.13861673966E+02  0.24426538858E+02  0.51100000000E-03 0.  1.
        -12    1    3    3    0    0 -0.14800574151E+02  0.18648407408E+02 -0.92494423111E+01  0.25541579378E+02  0.00000000000E+00 0.  1.
</event>
<event>
 7    1  0.2153242E-013  0.7246154E+02  0.7816164E-02  0.1226708E+00
        -11   -1    0    0    0    0  0.00000000000E+00  0.00000000000E+00  0.45593999997E+02  0.45594000000E+02  0.51100000000E-03 0.  1.
         11   -1    0    0    0    0 -0.00000000000E+00 -0.00000000000E+00 -0.45593999997E+02  0.45594000000E+02  0.51100000000E-03 0. -1.
    9900012    2    1    2    0    0  0.65992340772E+01  0.58258357302E+01  0.16528465293E+02  0.72461536978E+02  0.69999956599E+02 0.  0.
         12    1    1    2    0    0 -0.65992340772E+01 -0.58258357302E+01 -0.16528465293E+02  0.18726463022E+02  0.00000000000E+00 0. -1.
         11    1    3    3    0    0  0.33168485810E+02 -0.43942709653E+01  0.13363080862E+02  0.36028183393E+02  0.51100000000E-03 0. -1.
        -11    1    3    3    0    0 -0.50196081280E+01 -0.18641456378E+01  0.95200720288E+01  0.10922603921E+02  0.51100000000E-03 0.  1.
        -12    1    3    3    0    0 -0.21549643605E+02  0.12084252333E+02 -0.63546875974E+01  0.25510749664E+02  0.00000000000E+00 0.  1.
</event>
<event>
 7    1  0.2153242E-013  0.7246156E+02  0.7816164E-02  0.1226708E+00
        -11   -1    0    0    0    0  0.00000000000E+00  0.00000000000E+00  0.45593999997E+02  0.45594000000E+02  0.51100000000E-03 0. -1.
         11   -1    0    0    0    0 -0.00000000000E+00 -0.00000000000E+00 -0.45593999997E+02  0.45594000000E+02  0.51100000000E-03 0.  1.
    9900012    2    1    2    0    0 -0.19755951984E+00 -0.15772823327E+02  0.10092504257E+02  0.72461558063E+02  0.69999984066E+02 0.  0.
         12    1    1    2    0    0  0.19755951984E+00  0.15772823327E+02 -0.10092504257E+02  0.18726441937E+02  0.00000000000E+00 0. -1.
         11    1    3    3    0    0 -0.36974775823E+01  0.51038957986E+01  0.58808832496E+01  0.86200858959E+01  0.51100000000E-03 0. -1.
        -11    1    3    3    0    0 -0.27978918750E+02 -0.14498297632E+02  0.57263369982E+00  0.31517430705E+02  0.51100000000E-03 0.  1.
         12    1    3    3    0    0  0.31478836812E+02 -0.63784214931E+01  0.36389873075E+01  0.32324041462E+02  0.00000000000E+00 0. -1.
</event>
<event>
 7    1  0.2153242E-013  0.7246151E+02  0.7816164E-02  0.1226708E+00
        -11   -1    0    0    0    0  0.00000000000E+00  0.00000000000E+00  0.45593999997E+02  0.45594000000E+02  0.51100000000E-03 0. -1.
         11   -1    0    0    0    0 -0.00000000000E+00 -0.00000000000E+00 -0.45593999997E+02  0.45594000000E+02  0.51100000000E-03 0.  1.
    9900012    2    1    2    0    0  0.10814022020E+02  0.87830521387E+01 -0.12513846488E+02  0.72461509912E+02  0.69999921340E+02 0.  0.
         12    1    1    2    0    0 -0.10814022020E+02 -0.87830521387E+01  0.12513846488E+02  0.18726490088E+02  0.00000000000E+00 0. -1.
         11    1    3    3    0    0  0.15830089528E+02  0.13298491443E+02  0.63071105819E+01  0.21615301369E+02  0.51100000000E-03 0. -1.
        -11    1    3    3    0    0  0.66930948163E+01  0.15186590000E+02  0.54463685462E+01  0.17466910564E+02  0.51100000000E-03 0.  1.
        -12    1    3    3    0    0 -0.11709162324E+02 -0.19702029304E+02 -0.24267325616E+02  0.33379297979E+02  0.00000000000E+00 0.  1.
</event>
<event>
 7    1  0.2153242E-013  0.7246150E+02  0.7816164E-02  0.1226708E+00
        -11   -1    0    0    0    0  0.00000000000E+00  0.00000000000E+00  0.45593999997E+02  0.45594000000E+02  0.51100000000E-03 0. -1.
         11   -1    0    0    0    0 -0.00000000000E+00 -0.00000000000E+00 -0.45593999997E+02  0.45594000000E+02  0.51100000000E-03 0.  1.
    9900012    2    1    2    0    0 -0.27345907012E+01 -0.92479598412E+01 -0.16052381949E+02  0.72461502362E+02  0.69999911506E+02 0.  0.
         12    1    1    2    0    0  0.27345907012E+01  0.92479598412E+01  0.16052381949E+02  0.18726497638E+02  0.00000000000E+00 0. -1.
         11    1    3    3    0    0 -0.72518223515E+01 -0.20842749868E+02 -0.25176839625E+01  0.22211435845E+02  0.51100000000E-03 0. -1.
        -11    1    3    3    0    0 -0.40597363946E+01 -0.14618373059E+02  0.61442574338E+01  0.16368573247E+02  0.51100000000E-03 0.  1.
        -12    1    3    3    0    0  0.85769680450E+01  0.26213163086E+02 -0.19678955421E+02  0.33881493271E+02  0.00000000000E+00 0.  1.
</event>
<event>
 7    1  0.2153242E-013  0.7246156E+02  0.7816164E-02  0.1226708E+00
        -11   -1    0    0    0    0  0.00000000000E+00  0.00000000000E+00  0.45593999997E+02  0.45594000000E+02  0.51100000000E-03 0.  1.
         11   -1    0    0    0    0 -0.00000000000E+00 -0.00000000000E+00 -0.45593999997E+02  0.45594000000E+02  0.51100000000E-03 0. -1.
    9900012    2    1    2    0    0  0.11338097626E+01  0.81940722617E+01  0.16800331934E+02  0.72461561527E+02  0.69999988579E+02 0.  0.
         12    1    1    2    0    0 -0.11338097626E+01 -0.81940722617E+01 -0.16800331934E+02  0.18726438473E+02  0.00000000000E+00 0. -1.
         11    1    3    3    0    0  0.19849055283E+02 -0.18328660862E+01 -0.16816429570E+02  0.26079430544E+02  0.51100000000E-03 0. -1.
        -11    1    3    3    0    0  0.56180481876E+01  0.16838708140E+01  0.92313843957E+01  0.10936925733E+02  0.51100000000E-03 0.  1.
        -12    1    3    3    0    0 -0.24333293708E+02  0.83430675339E+01  0.24385377108E+02  0.35445205251E+02  0.00000000000E+00 0.  1.
</event>
<event>
 7    1  0.2153242E-013  0.7246156E+02  0.7816164E-02  0.1226708E+00
        -11   -1    0    0    0    0  0.00000000000E+00  0.00000000000E+00  0.45593999997E+02  0.45594000000E+02  0.51100000000E-03 0. -1.
         11   -1    0    0    0    0 -0.00000000000E+00 -0.00000000000E+00 -0.45593999997E+02  0.45594000000E+02  0.51100000000E-03 0.  1.
    9900012    2    1    2    0    0  0.18428774357E+01  0.15539169970E+02 -0.10286771773E+02  0.72461556822E+02  0.69999982449E+02 0.  0.
         12    1    1    2    0    0 -0.18428774357E+01 -0.15539169970E+02  0.10286771773E+02  0.18726443178E+02  0.00000000000E+00 0. -1.
         11    1    3    3    0    0 -0.21500840299E+02 -0.17403095631E+01 -0.41595981526E+01  0.21968547243E+02  0.51100000000E-03 0. -1.
        -11    1    3    3    0    0  0.18114939969E+02 -0.10881832904E+02  0.31676985030E+00  0.21134466656E+02  0.51100000000E-03 0.  1.
        -12    1    3    3    0    0  0.52287777655E+01  0.28161312437E+02 -0.64439434704E+01  0.29358542923E+02  0.00000000000E+00 0.  1.
</event>
<event>
 7    1  0.2153242E-013  0.7246163E+02  0.7816164E-02  0.1226708E+00
        -11   -1    0    0    0    0  0.00000000000E+00  0.00000000000E+00  0.45593999997E+02  0.45594000000E+02  0.51100000000E-03 0. -1.
         11   -1    0    0    0    0 -0.00000000000E+00 -0.00000000000E+00 -0.45593999997E+02  0.45594000000E+02  0.51100000000E-03 0.  1.
    9900012    2    1    2    0    0 -0.11698039540E+02  0.54174388956E+01 -0.13582498488E+02  0.72461627195E+02  0.70000074123E+02 0.  0.
         12    1    1    2    0    0  0.11698039540E+02 -0.54174388956E+01  0.13582498488E+02  0.18726372805E+02  0.00000000000E+00 0. -1.
         11    1    3    3    0    0 -0.16624778241E+02 -0.12533097722E+02  0.13474361766E+02  0.24799601113E+02  0.51100000000E-03 0. -1.
        -11    1    3    3    0    0 -0.14810281619E+02  0.10050452186E+02 -0.10858498748E+02  0.20934732530E+02  0.51100000000E-03 0.  1.
         12    1    3    3    0    0  0.19737020321E+02  0.79000844319E+01 -0.16198361505E+02  0.26727293552E+02  0.00000000000E+00 0. -1.
</event>
<event>
 7    1  0.2153242E-013  0.7246157E+02  0.7816164E-02  0.1226708E+00
        -11   -1    0    0    0    0  0.00000000000E+00  0.00000000000E+00  0.45593999997E+02  0.45594000000E+02  0.51100000000E-03 0.  1.
         11   -1    0    0    0    0 -0.00000000000E+00 -0.00000000000E+00 -0.45593999997E+02  0.45594000000E+02  0.51100000000E-03 0. -1.
    9900012    2    1    2    0    0  0.93284294612E+00 -0.16137622037E+02 -0.94544240560E+01  0.72461570143E+02  0.69999999803E+02 0.  0.
         12    1    1    2    0    0 -0.93284294612E+00  0.16137622037E+02  0.94544240560E+01  0.18726429857E+02  0.00000000000E+00 0. -1.
         11    1    3    3    0    0 -0.23648390121E+01 -0.43473960398E+01  0.43286895720E+01  0.65749425512E+01  0.51100000000E-03 0. -1.
        -11    1    3    3    0    0  0.32003295786E+02 -0.10915222042E+01  0.63621263292E+00  0.32028223939E+02  0.51100000000E-03 0.  1.
         12    1    3    3    0    0 -0.28705613828E+02 -0.10698703793E+02 -0.14419326261E+02  0.33858403653E+02  0.00000000000E+00 0. -1.
</event>
<event>
 7    1  0.2153242E-013  0.7246161E+02  0.7816164E-02  0.1226708E+00
        -11   -1    0    0    0    0  0.00000000000E+00  0.00000000000E+00  0.45593999997E+02  0.45594000000E+02  0.51100000000E-03 0.  1.
         11   -1    0    0    0    0 -0.00000000000E+00 -0.00000000000E+00 -0.45593999997E+02  0.45594000000E+02  0.51100000000E-03 0. -1.
    9900012    2    1    2    0    0 -0.81549734228E+01 -0.36350970863E+00  0.16853548281E+02  0.72461606314E+02  0.70000046922E+02 0.  0.
         12    1    1    2    0    0  0.81549734228E+01  0.36350970863E+00 -0.16853548281E+02  0.18726393686E+02  0.00000000000E+00 0. -1.
         11    1    3    3    0    0 -0.14633985046E+02 -0.17671652067E+02 -0.11551389088E+02  0.25688039926E+02  0.51100000000E-03 0. -1.
        -11    1    3    3    0    0 -0.11075038445E+02  0.58704511701E+01  0.21180227594E+02  0.24611394002E+02  0.51100000000E-03 0.  1.
        -12    1    3    3    0    0  0.17554050069E+02  0.11437691188E+02  0.72247097748E+01  0.22162172386E+02  0.00000000000E+00 0.  1.
</event>
<event>
 7    1  0.2153242E-013  0.7246158E+02  0.7816164E-02  0.1226708E+00
        -11   -1    0    0    0    0  0.00000000000E+00  0.00000000000E+00  0.45593999997E+02  0.45594000000E+02  0.51100000000E-03 0.  1.
         11   -1    0    0    0    0 -0.00000000000E+00 -0.00000000000E+00 -0.45593999997E+02  0.45594000000E+02  0.51100000000E-03 0. -1.
    9900012    2    1    2    0    0  0.11285630810E+02  0.90145246178E+00 -0.14916460268E+02  0.72461578392E+02  0.70000010548E+02 0.  0.
         12    1    1    2    0    0 -0.11285630810E+02 -0.90145246178E+00  0.14916460268E+02  0.18726421608E+02  0.00000000000E+00 0. -1.
         11    1    3    3    0    0  0.88276249814E+01 -0.25676879079E+01 -0.15241050611E+02  0.17799146272E+02  0.51100000000E-03 0. -1.
        -11    1    3    3    0    0 -0.24300194379E+02 -0.47688223331E+01 -0.69781374417E+01  0.25728107504E+02  0.51100000000E-03 0.  1.
         12    1    3    3    0    0  0.26758200208E+02  0.82379627028E+01  0.73027277849E+01  0.28934324616E+02  0.00000000000E+00 0. -1.
</event>
<event>
 7    1  0.2153242E-013  0.7246156E+02  0.7816164E-02  0.1226708E+00
        -11   -1    0    0    0    0  0.00000000000E+00  0.00000000000E+00  0.45593999997E+02  0.45594000000E+02  0.51100000000E-03 0. -1.
         11   -1    0    0    0    0 -0.00000000000E+00 -0.00000000000E+00 -0.45593999997E+02  0.45594000000E+02  0.51100000000E-03 0.  1.
    9900012    2    1    2    0    0  0.17867459522E+02  0.13575264379E+01  0.54397355700E+01  0.72461555840E+02  0.69999981171E+02 0.  0.
         12    1    1    2    0    0 -0.17867459522E+02 -0.13575264379E+01 -0.54397355700E+01  0.18726444160E+02  0.00000000000E+00 0. -1.
         11    1    3    3    0    0  0.12852512482E+01  0.24977451569E+01  0.28903346033E+01  0.40304634994E+01  0.51100000000E-03 0. -1.
        -11    1    3    3    0    0 -0.50809353455E+01  0.29985925914E+02 -0.13351351507E+00  0.30413639753E+02  0.51100000000E-03 0.  1.
         12    1    3    3    0    0  0.21663143619E+02 -0.31126144633E+02  0.26829144817E+01  0.38017452588E+02  0.00000000000E+00 0. -1.
</event>
<event>
 7    1  0.2153242E-013  0.7246163E+02  0.7816164E-02  0.1226708E+00
        -11   -1    0    0    0    0  0.00000000000E+00  0.00000000000E+00  0.45593999997E+02  0.45594000000E+02  0.51100000000E-03 0. -1.
         11   -1    0    0    0    0 -0.00000000000E+00 -0.00000000000E+00 -0.45593999997E+02  0.45594000000E+02  0.51100000000E-03 0.  1.
    9900012    2    1    2    0    0  0.12103493720E+02  0.12761975796E+02 -0.64276193476E+01  0.72461631507E+02  0.70000079741E+02 0.  0.
         12    1    1    2    0    0 -0.12103493720E+02 -0.12761975796E+02  0.64276193476E+01  0.18726368493E+02  0.00000000000E+00 0. -1.
         11    1    3    3    0    0 -0.19405734204E+01  0.67813351668E+01 -0.73989833738E+01  0.10222391456E+02  0.51100000000E-03 0. -1.
        -11    1    3    3    0    0  0.24724734687E+02 -0.16897387622E+02 -0.13814604311E+02  0.32979956130E+02  0.51100000000E-03 0.  1.
         12    1    3    3    0    0 -0.10680667547E+02  0.22878028252E+02  0.14785968337E+02  0.29259283921E+02  0.00000000000E+00 0. -1.
</event>
<event>
 7    1  0.2153242E-013  0.7246158E+02  0.7816164E-02  0.1226708E+00
        -11   -1    0    0    0    0  0.00000000000E+00  0.00000000000E+00  0.45593999997E+02  0.45594000000E+02  0.51100000000E-03 0. -1.
         11   -1    0    0    0    0 -0.00000000000E+00 -0.00000000000E+00 -0.45593999997E+02  0.45594000000E+02  0.51100000000E-03 0.  1.
    9900012    2    1    2    0    0  0.15227137810E+02 -0.10052610650E+02 -0.42140331296E+01  0.72461580642E+02  0.70000013479E+02 0.  0.
         12    1    1    2    0    0 -0.15227137810E+02  0.10052610650E+02  0.42140331296E+01  0.18726419358E+02  0.00000000000E+00 0. -1.
         11    1    3    3    0    0  0.25136866687E+02 -0.29090165474E+01 -0.62205970583E+01  0.26058017425E+02  0.51100000000E-03 0. -1.
        -11    1    3    3    0    0  0.85810951504E+01 -0.13479937336E+02 -0.13918405922E+02  0.21191175716E+02  0.51100000000E-03 0.  1.
         12    1    3    3    0    0 -0.18490824027E+02  0.63363432339E+01  0.15924969850E+02  0.25212387501E+02  0.00000000000E+00 0. -1.
</event>
<event>
 7    1  0.2153242E-013  0.7246158E+02  0.7816164E-02  0.1226708E+00
        -11   -1    0    0    0    0  0.00000000000E+00  0.00000000000E+00  0.45593999997E+02  0.45594000000E+02  0.51100000000E-03 0.  1.
         11   -1    0    0    0    0 -0.00000000000E+00 -0.00000000000E+00 -0.45593999997E+02  0.45594000000E+02  0.51100000000E-03 0. -1.
    9900012    2    1    2    0    0  0.46228124742E+01 -0.11110315563E+02  0.14348151843E+02  0.72461575664E+02  0.70000006995E+02 0.  0.
         12    1    1    2    0    0 -0.46228124742E+01  0.11110315563E+02 -0.14348151843E+02  0.18726424336E+02  0.00000000000E+00 0. -1.
         11    1    3    3    0    0 -0.81248016414E+01  0.37385621047E+00 -0.42268135405E+01  0.91661400352E+01  0.51100000000E-03 0. -1.
        -11    1    3    3    0    0 -0.13868921251E+02  0.96605919292E+01 -0.93385355053E+01  0.19310159469E+02  0.51100000000E-03 0.  1.
         12    1    3    3    0    0  0.26616535366E+02 -0.21144763703E+02  0.27913500889E+02  0.43985276160E+02  0.00000000000E+00 0. -1.
</event>
<event>
 7    1  0.2153242E-013  0.7246176E+02  0.7816164E-02  0.1226708E+00
        -11   -1    0    0    0    0  0.00000000000E+00  0.00000000000E+00  0.45593999997E+02  0.45594000000E+02  0.51100000000E-03 0. -1.
         11   -1    0    0    0    0 -0.00000000000E+00 -0.00000000000E+00 -0.45593999997E+02  0.45594000000E+02  0.51100000000E-03 0.  1.
    9900012    2    1    2    0    0 -0.12412865918E+02  0.13860624654E+02 -0.21156282152E+01  0.72461760686E+02  0.70000248020E+02 0.  0.
         12    1    1    2    0    0  0.12412865918E+02 -0.13860624654E+02  0.21156282152E+01  0.18726239314E+02  0.00000000000E+00 0. -1.
         11    1    3    3    0    0  0.64959413084E+00 -0.13540771401E+02 -0.24347863078E+02  0.27867416446E+02  0.51100000000E-03 0.  1.
        -11    1    3    3    0    0 -0.13116245330E+02  0.23530852353E+01  0.10337199541E+02  0.16865070302E+02  0.51100000000E-03 0. -1.
        -12    1    3    3    0    0  0.53785281723E-01  0.25048310820E+02  0.11895035322E+02  0.27729273937E+02  0.00000000000E+00 0.  1.
</event>
<event>
 7    1  0.2153242E-013  0.7246159E+02  0.7816164E-02  0.1226708E+00
        -11   -1    0    0    0    0  0.00000000000E+00  0.00000000000E+00  0.45593999997E+02  0.45594000000E+02  0.51100000000E-03 0.  1.
         11   -1    0    0    0    0 -0.00000000000E+00 -0.00000000000E+00 -0.45593999997E+02  0.45594000000E+02  0.51100000000E-03 0. -1.
    9900012    2    1    2    0    0 -0.73813786009E+01 -0.48573226049E+01  0.16510608947E+02  0.72461587083E+02  0.70000021871E+02 0.  0.
         12    1    1    2    0    0  0.73813786009E+01  0.48573226049E+01 -0.16510608947E+02  0.18726412917E+02  0.00000000000E+00 0. -1.
         11    1    3    3    0    0  0.17892433709E+02  0.14221161147E+02 -0.17439959045E+01  0.22922088263E+02  0.51100000000E-03 0. -1.
        -11    1    3    3    0    0  0.79131463237E+01 -0.49907554563E+01  0.72757061973E+01  0.11851642321E+02  0.51100000000E-03 0.  1.
        -12    1    3    3    0    0 -0.33186958633E+02 -0.14087728295E+02  0.10978898654E+02  0.37687856499E+02  0.00000000000E+00 0.  1.
</event>
<event>
 7    1  0.2153242E-013  0.7246182E+02  0.7816164E-02  0.1226707E+00
        -11   -1    0    0    0    0  0.00000000000E+00  0.00000000000E+00  0.45593999997E+02  0.45594000000E+02  0.51100000000E-03 0.  1.
         11   -1    0    0    0    0 -0.00000000000E+00 -0.00000000000E+00 -0.45593999997E+02  0.45594000000E+02  0.51100000000E-03 0. -1.
    9900012    2    1    2    0    0 -0.34316974232E+00 -0.25229419312E+00  0.18721332476E+02  0.72461822934E+02  0.70000329110E+02 0.  0.
         12    1    1    2    0    0  0.34316974232E+00  0.25229419312E+00 -0.18721332476E+02  0.18726177066E+02  0.00000000000E+00 0. -1.
         11    1    3    3    0    0  0.26542941974E+02 -0.63974846065E+01  0.13564703570E+02  0.30486993311E+02  0.51100000000E-03 0. -1.
        -11    1    3    3    0    0 -0.10958741236E+01  0.13362124526E+02 -0.34519935195E+01  0.13844261319E+02  0.51100000000E-03 0.  1.
        -12    1    3    3    0    0 -0.25790237593E+02 -0.72169341130E+01  0.86086224248E+01  0.28130568304E+02  0.00000000000E+00 0.  1.
</event>
<event>
 7    1  0.2153242E-013  0.7246149E+02  0.7816164E-02  0.1226708E+00
        -11   -1    0    0    0    0  0.00000000000E+00  0.00000000000E+00  0.45593999997E+02  0.45594000000E+02  0.51100000000E-03 0. -1.
         11   -1    0    0    0    0 -0.00000000000E+00 -0.00000000000E+00 -0.45593999997E+02  0.45594000000E+02  0.51100000000E-03 0.  1.
    9900012    2    1    2    0    0  0.16808642647E+02 -0.24199217151E+01 -0.78927648062E+01  0.72461488711E+02  0.69999893723E+02 0.  0.
         12    1    1    2    0    0 -0.16808642647E+02  0.24199217151E+01  0.78927648062E+01  0.18726511289E+02  0.00000000000E+00 0. -1.
         11    1    3    3    0    0  0.77083892768E+01  0.14394483819E+02 -0.20799253421E+02  0.26442945614E+02  0.51100000000E-03 0. -1.
        -11    1    3    3    0    0  0.16574055806E+02  0.74370151729E+01  0.15989710026E+01  0.18236371050E+02  0.51100000000E-03 0.  1.
         12    1    3    3    0    0 -0.74738024351E+01 -0.24251420707E+02  0.11307517612E+02  0.27782172047E+02  0.00000000000E+00 0. -1.
</event>
<event>
 7    1  0.2153242E-013  0.7246158E+02  0.7816164E-02  0.1226708E+00
        -11   -1    0    0    0    0  0.00000000000E+00  0.00000000000E+00  0.45593999997E+02  0.45594000000E+02  0.51100000000E-03 0.  1.
         11   -1    0    0    0    0 -0.00000000000E+00 -0.00000000000E+00 -0.45593999997E+02  0.45594000000E+02  0.51100000000E-03 0. -1.
    9900012    2    1    2    0    0  0.44694229549E+01 -0.88706314777E+01 -0.15874979181E+02  0.72461579937E+02  0.70000012562E+02 0.  0.
         12    1    1    2    0    0 -0.44694229549E+01  0.88706314777E+01  0.15874979181E+02  0.18726420063E+02  0.00000000000E+00 0. -1.
         11    1    3    3    0    0  0.59934764844E+01  0.75953158920E+01 -0.32064105665E+02  0.33492050642E+02  0.51100000000E-03 0. -1.
        -11    1    3    3    0    0 -0.12250567563E+01  0.80582777408E+01  0.11345362724E+02  0.13969748022E+02  0.51100000000E-03 0.  1.
        -12    1    3    3    0    0 -0.29899677324E+00 -0.24524225111E+02  0.48437637593E+01  0.24999781273E+02  0.00000000000E+00 0.  1.
</event>
<event>
 7    1  0.2153242E-013  0.7246159E+02  0.7816164E-02  0.1226708E+00
        -11   -1    0    0    0    0  0.00000000000E+00  0.00000000000E+00  0.45593999997E+02  0.45594000000E+02  0.51100000000E-03 0.  1.
         11   -1    0    0    0    0 -0.00000000000E+00 -0.00000000000E+00 -0.45593999997E+02  0.45594000000E+02  0.51100000000E-03 0. -1.
    9900012    2    1    2    0    0  0.80485372655E+01 -0.12351869870E+02  0.11546897628E+02  0.72461588538E+02  0.70000023766E+02 0.  0.
         12    1    1    2    0    0 -0.80485372655E+01  0.12351869870E+02 -0.11546897628E+02  0.18726411462E+02  0.00000000000E+00 0. -1.
         11    1    3    3    0    0  0.14306125688E+01 -0.12526581536E+02  0.58819237503E+01  0.13912545582E+02  0.51100000000E-03 0. -1.
        -11    1    3    3    0    0  0.12993840918E+02 -0.24323830204E+02  0.15211564180E+02  0.31494131242E+02  0.51100000000E-03 0.  1.
         12    1    3    3    0    0 -0.63759162211E+01  0.24498541871E+02 -0.95465903025E+01  0.27054911714E+02  0.00000000000E+00 0. -1.
</event>
<event>
 7    1  0.2153242E-013  0.7246154E+02  0.7816164E-02  0.1226708E+00
        -11   -1    0    0    0    0  0.00000000000E+00  0.00000000000E+00  0.45593999997E+02  0.45594000000E+02  0.51100000000E-03 0. -1.
         11   -1    0    0    0    0 -0.00000000000E+00 -0.00000000000E+00 -0.45593999997E+02  0.45594000000E+02  0.51100000000E-03 0.  1.
    9900012    2    1    2    0    0  0.10264338905E+02 -0.12653548619E+02 -0.92309950092E+01  0.72461542389E+02  0.69999963648E+02 0.  0.
         12    1    1    2    0    0 -0.10264338905E+02  0.12653548619E+02  0.92309950092E+01  0.18726457611E+02  0.00000000000E+00 0. -1.
         11    1    3    3    0    0  0.19073173938E+02 -0.33653875124E+02 -0.21631254699E+01  0.38743365715E+02  0.51100000000E-03 0. -1.
        -11    1    3    3    0    0  0.50601009722E+01  0.26817228192E+01  0.51441465388E+01  0.76979544687E+01  0.51100000000E-03 0.  1.
        -12    1    3    3    0    0 -0.13868936005E+02  0.18318603685E+02 -0.12212016078E+02  0.26020222205E+02  0.00000000000E+00 0.  1.
</event>
<event>
 7    1  0.2153242E-013  0.7246157E+02  0.7816164E-02  0.1226708E+00
        -11   -1    0    0    0    0  0.00000000000E+00  0.00000000000E+00  0.45593999997E+02  0.45594000000E+02  0.51100000000E-03 0. -1.
         11   -1    0    0    0    0 -0.00000000000E+00 -0.00000000000E+00 -0.45593999997E+02  0.45594000000E+02  0.51100000000E-03 0.  1.
    9900012    2    1    2    0    0  0.38256887016E+01  0.18301862148E+02 -0.10416297247E+01  0.72461573630E+02  0.70000004345E+02 0.  0.
         12    1    1    2    0    0 -0.38256887016E+01 -0.18301862148E+02  0.10416297247E+01  0.18726426370E+02  0.00000000000E+00 0. -1.
         11    1    3    3    0    0 -0.17337572041E+02  0.72783492123E+01 -0.85843260627E+00  0.18822929590E+02  0.51100000000E-03 0.  1.
        -11    1    3    3    0    0 -0.12928371259E+02 -0.48390064769E+01 -0.69150818838E+01  0.15439466468E+02  0.51100000000E-03 0. -1.
        -12    1    3    3    0    0  0.34091632002E+02  0.15862519413E+02  0.67318847653E+01  0.38199177572E+02  0.00000000000E+00 0.  1.
</event>
<event>
 7    1  0.2153242E-013  0.7246149E+02  0.7816164E-02  0.1226708E+00
        -11   -1    0    0    0    0  0.00000000000E+00  0.00000000000E+00  0.45593999997E+02  0.45594000000E+02  0.51100000000E-03 0.  1.
         11   -1    0    0    0    0 -0.00000000000E+00 -0.00000000000E+00 -0.45593999997E+02  0.45594000000E+02  0.51100000000E-03 0. -1.
    9900012    2    1    2    0    0  0.17520923702E+02  0.83208700190E-01  0.66100301453E+01  0.72461489658E+02  0.69999894956E+02 0.  0.
         12    1    1    2    0    0 -0.17520923702E+02 -0.83208700190E-01 -0.66100301453E+01  0.18726510342E+02  0.00000000000E+00 0. -1.
         11    1    3    3    0    0 -0.60604330943E+00  0.94967930553E+01 -0.23813639726E+02  0.25644605750E+02  0.51100000000E-03 0. -1.
        -11    1    3    3    0    0 -0.78044838141E+01 -0.31862104075E+01  0.42124619909E+01  0.94237328406E+01  0.51100000000E-03 0.  1.
        -12    1    3    3    0    0  0.25931450826E+02 -0.62273739476E+01  0.26211207880E+02  0.37393151067E+02  0.00000000000E+00 0.  1.
</event>
<event>
 7    1  0.2153242E-013  0.7246155E+02  0.7816164E-02  0.1226708E+00
        -11   -1    0    0    0    0  0.00000000000E+00  0.00000000000E+00  0.45593999997E+02  0.45594000000E+02  0.51100000000E-03 0.  1.
         11   -1    0    0    0    0 -0.00000000000E+00 -0.00000000000E+00 -0.45593999997E+02  0.45594000000E+02  0.51100000000E-03 0. -1.
    9900012    2    1    2    0    0  0.17361854416E+02 -0.14138625789E+01  0.68736328931E+01  0.72461552785E+02  0.69999977190E+02 0.  0.
         12    1    1    2    0    0 -0.17361854416E+02  0.14138625789E+01 -0.68736328931E+01  0.18726447215E+02  0.00000000000E+00 0. -1.
         11    1    3    3    0    0  0.21614737506E+02 -0.22422039250E+02  0.43865094124E+01  0.31451330444E+02  0.51100000000E-03 0. -1.
        -11    1    3    3    0    0  0.10639163937E+02  0.89927276745E+01 -0.10874035811E+02  0.17672170647E+02  0.51100000000E-03 0.  1.
         12    1    3    3    0    0 -0.14892047027E+02  0.12015448997E+02  0.13361159291E+02  0.23338051694E+02  0.00000000000E+00 0. -1.
</event>
<event>
 7    1  0.2153242E-013  0.7246154E+02  0.7816164E-02  0.1226708E+00
        -11   -1    0    0    0    0  0.00000000000E+00  0.00000000000E+00  0.45593999997E+02  0.45594000000E+02  0.51100000000E-03 0. -1.
         11   -1    0    0    0    0 -0.00000000000E+00 -0.00000000000E+00 -0.45593999997E+02  0.45594000000E+02  0.51100000000E-03 0.  1.
    9900012    2    1    2    0    0 -0.10507695102E+02  0.54955236147E+01 -0.14493723638E+02  0.72461535810E+02  0.69999955078E+02 0.  0.
         12    1    1    2    0    0  0.10507695102E+02 -0.54955236147E+01  0.14493723638E+02  0.18726464190E+02  0.00000000000E+00 0. -1.
         11    1    3    3    0    0  0.94463756886E+01  0.10973170054E+02  0.12746037997E+02  0.19290048201E+02  0.51100000000E-03 0. -1.
        -11    1    3    3    0    0  0.51718988705E+01 -0.17178639701E+02 -0.10256060135E+02  0.20664969627E+02  0.51100000000E-03 0.  1.
        -12    1    3    3    0    0 -0.25125969661E+02  0.11700993262E+02 -0.16983701500E+02  0.32506517983E+02  0.00000000000E+00 0.  1.
</event>
<event>
 7    1  0.2153242E-013  0.7246158E+02  0.7816164E-02  0.1226708E+00
        -11   -1    0    0    0    0  0.00000000000E+00  0.00000000000E+00  0.45593999997E+02  0.45594000000E+02  0.51100000000E-03 0.  1.
         11   -1    0    0    0    0 -0.00000000000E+00 -0.00000000000E+00 -0.45593999997E+02  0.45594000000E+02  0.51100000000E-03 0. -1.
    9900012    2    1    2    0    0 -0.66341791382E+01 -0.16405685081E+02 -0.61253687688E+01  0.72461575398E+02  0.70000006648E+02 0.  0.
         12    1    1    2    0    0  0.66341791382E+01  0.16405685081E+02  0.61253687688E+01  0.18726424602E+02  0.00000000000E+00 0. -1.
         11    1    3    3    0    0  0.43780203785E+01 -0.27519897424E+02 -0.16267973840E+02  0.32266992264E+02  0.51100000000E-03 0. -1.
        -11    1    3    3    0    0 -0.12038842017E+02  0.32641624032E+00 -0.11080389205E+02  0.16365063088E+02  0.51100000000E-03 0.  1.
        -12    1    3    3    0    0  0.10266425003E+01  0.10787796102E+02  0.21222994276E+02  0.23829520046E+02  0.00000000000E+00 0.  1.
</event>
<event>
 7    1  0.2153242E-013  0.7246157E+02  0.7816164E-02  0.1226708E+00
        -11   -1    0    0    0    0  0.00000000000E+00  0.00000000000E+00  0.45593999997E+02  0.45594000000E+02  0.51100000000E-03 0. -1.
         11   -1    0    0    0    0 -0.00000000000E+00 -0.00000000000E+00 -0.45593999997E+02  0.45594000000E+02  0.51100000000E-03 0.  1.
    9900012    2    1    2    0    0 -0.16309497015E+02 -0.91262327850E+01 -0.11795358336E+01  0.72461571550E+02  0.70000001635E+02 0.  0.
         12    1    1    2    0    0  0.16309497015E+02  0.91262327850E+01  0.11795358336E+01  0.18726428450E+02  0.00000000000E+00 0. -1.
         11    1    3    3    0    0 -0.52337724678E+01 -0.14842517065E+01  0.14965022175E+02  0.15923167597E+02  0.51100000000E-03 0. -1.
        -11    1    3    3    0    0 -0.15170998026E+02 -0.23678069346E+02 -0.25123077744E+02  0.37709139272E+02  0.51100000000E-03 0.  1.
         12    1    3    3    0    0  0.40952734788E+01  0.16036088267E+02  0.89785197353E+01  0.18829264681E+02  0.00000000000E+00 0. -1.
</event>
<event>
 7    1  0.2153242E-013  0.7246146E+02  0.7816164E-02  0.1226708E+00
        -11   -1    0    0    0    0  0.00000000000E+00  0.00000000000E+00  0.45593999997E+02  0.45594000000E+02  0.51100000000E-03 0.  1.
         11   -1    0    0    0    0 -0.00000000000E+00 -0.00000000000E+00 -0.45593999997E+02  0.45594000000E+02  0.51100000000E-03 0. -1.
    9900012    2    1    2    0    0  0.93986964359E+01 -0.15798891036E+02 -0.35696879698E+01  0.72461464686E+02  0.69999862425E+02 0.  0.
         12    1    1    2    0    0 -0.93986964359E+01  0.15798891036E+02  0.35696879698E+01  0.18726535314E+02  0.00000000000E+00 0. -1.
         11    1    3    3    0    0  0.15357502093E+02 -0.23862190595E+02  0.30078149841E+00  0.28378644793E+02  0.51100000000E-03 0. -1.
        -11    1    3    3    0    0  0.16144314672E+02 -0.12465990529E+01  0.71348216243E+01  0.17694591978E+02  0.51100000000E-03 0.  1.
         12    1    3    3    0    0 -0.22103120329E+02  0.93098986118E+01 -0.11005291092E+02  0.26388227914E+02  0.00000000000E+00 0. -1.
</event>
<event>
 7    1  0.2153242E-013  0.7246157E+02  0.7816164E-02  0.1226708E+00
        -11   -1    0    0    0    0  0.00000000000E+00  0.00000000000E+00  0.45593999997E+02  0.45594000000E+02  0.51100000000E-03 0.  1.
         11   -1    0    0    0    0 -0.00000000000E+00 -0.00000000000E+00 -0.45593999997E+02  0.45594000000E+02  0.51100000000E-03 0. -1.
    9900012    2    1    2    0    0  0.18223870852E+01 -0.17722460720E+02 -0.57682439931E+01  0.72461565544E+02  0.69999993812E+02 0.  0.
         12    1    1    2    0    0 -0.18223870852E+01  0.17722460720E+02  0.57682439931E+01  0.18726434456E+02  0.00000000000E+00 0. -1.
         11    1    3    3    0    0 -0.18318687164E+02 -0.98557436024E+01 -0.55707558259E+01  0.21534699954E+02  0.51100000000E-03 0. -1.
        -11    1    3    3    0    0 -0.96079130075E+01  0.61583148106E+01 -0.11449936835E+02  0.16165948393E+02  0.51100000000E-03 0.  1.
        -12    1    3    3    0    0  0.29748987257E+02 -0.14025031928E+02  0.11252448668E+02  0.34760917197E+02  0.00000000000E+00 0.  1.
</event>
<event>
 7    1  0.2153242E-013  0.7246161E+02  0.7816164E-02  0.1226708E+00
        -11   -1    0    0    0    0  0.00000000000E+00  0.00000000000E+00  0.45593999997E+02  0.45594000000E+02  0.51100000000E-03 0.  1.
         11   -1    0    0    0    0 -0.00000000000E+00 -0.00000000000E+00 -0.45593999997E+02  0.45594000000E+02  0.51100000000E-03 0. -1.
    9900012    2    1    2    0    0 -0.15356668149E+02 -0.84242230445E+01  0.66244285408E+01  0.72461605685E+02  0.70000046103E+02 0.  0.
         12    1    1    2    0    0  0.15356668149E+02  0.84242230445E+01 -0.66244285408E+01  0.18726394315E+02  0.00000000000E+00 0. -1.
         11    1    3    3    0    0  0.55191458757E+01 -0.11337768403E+02  0.13401283101E+02  0.18401096505E+02  0.51100000000E-03 0. -1.
        -11    1    3    3    0    0  0.78455654113E+01 -0.14048630181E+02  0.75299785793E+01  0.17765626480E+02  0.51100000000E-03 0.  1.
         12    1    3    3    0    0 -0.28721379436E+02  0.16962175540E+02 -0.14306833140E+02  0.36294882700E+02  0.00000000000E+00 0. -1.
</event>
<event>
 7    1  0.2153242E-013  0.7246155E+02  0.7816164E-02  0.1226708E+00
        -11   -1    0    0    0    0  0.00000000000E+00  0.00000000000E+00  0.45593999997E+02  0.45594000000E+02  0.51100000000E-03 0.  1.
         11   -1    0    0    0    0 -0.00000000000E+00 -0.00000000000E+00 -0.45593999997E+02  0.45594000000E+02  0.51100000000E-03 0. -1.
    9900012    2    1    2    0    0  0.31593019073E+01 -0.10940630558E+02  0.14866114748E+02  0.72461549369E+02  0.69999972740E+02 0.  0.
         12    1    1    2    0    0 -0.31593019073E+01  0.10940630558E+02 -0.14866114748E+02  0.18726450631E+02  0.00000000000E+00 0. -1.
         11    1    3    3    0    0 -0.82433076093E+01 -0.41370051174E+00 -0.46803637849E+01  0.94883651845E+01  0.51100000000E-03 0. -1.
        -11    1    3    3    0    0  0.13129047174E+02  0.10275191666E+02 -0.15120299467E+02  0.22507218836E+02  0.51100000000E-03 0.  1.
         12    1    3    3    0    0 -0.17264376578E+01 -0.20802121712E+02  0.34666778000E+02  0.40465965349E+02  0.00000000000E+00 0. -1.
</event>
<event>
 7    1  0.2153242E-013  0.7246160E+02  0.7816164E-02  0.1226708E+00
        -11   -1    0    0    0    0  0.00000000000E+00  0.00000000000E+00  0.45593999997E+02  0.45594000000E+02  0.51100000000E-03 0.  1.
         11   -1    0    0    0    0 -0.00000000000E+00 -0.00000000000E+00 -0.45593999997E+02  0.45594000000E+02  0.51100000000E-03 0. -1.
    9900012    2    1    2    0    0 -0.13764575053E+01  0.18291907163E+02 -0.37669098955E+01  0.72461598501E+02  0.70000036745E+02 0.  0.
         12    1    1    2    0    0  0.13764575053E+01 -0.18291907163E+02  0.37669098955E+01  0.18726401499E+02  0.00000000000E+00 0. -1.
         11    1    3    3    0    0 -0.94145738350E+00  0.10466342480E+02 -0.33118373602E+02  0.34745608891E+02  0.51100000000E-03 0. -1.
        -11    1    3    3    0    0  0.54272256903E+01  0.66287226034E+01  0.86802943449E+00  0.86109359193E+01  0.51100000000E-03 0.  1.
         12    1    3    3    0    0 -0.58622258121E+01  0.11968420798E+01  0.28483434272E+02  0.29105053691E+02  0.00000000000E+00 0. -1.
</event>
<event>
 7    1  0.2153242E-013  0.7246158E+02  0.7816164E-02  0.1226708E+00
        -11   -1    0    0    0    0  0.00000000000E+00  0.00000000000E+00  0.45593999997E+02  0.45594000000E+02  0.51100000000E-03 0. -1.
         11   -1    0    0    0    0 -0.00000000000E+00 -0.00000000000E+00 -0.45593999997E+02  0.45594000000E+02  0.51100000000E-03 0.  1.
    9900012    2    1    2    0    0 -0.30314182654E+01  0.91139730250E+01 -0.16075600718E+02  0.72461576437E+02  0.70000008002E+02 0.  0.
         12    1    1    2    0    0  0.30314182654E+01 -0.91139730250E+01  0.16075600718E+02  0.18726423563E+02  0.00000000000E+00 0. -1.
         11    1    3    3    0    0 -0.10773519402E+02  0.18669207088E+02  0.11963856218E+02  0.24652421169E+02  0.51100000000E-03 0. -1.
        -11    1    3    3    0    0 -0.14708451571E+01 -0.50949398079E+01  0.84140962662E+01  0.99457937521E+01  0.51100000000E-03 0.  1.
        -12    1    3    3    0    0  0.92129462940E+01 -0.44602942552E+01 -0.36453553202E+02  0.37863361516E+02  0.00000000000E+00 0.  1.
</event>
<event>
 7    1  0.2153242E-013  0.7246159E+02  0.7816164E-02  0.1226708E+00
        -11   -1    0    0    0    0  0.00000000000E+00  0.00000000000E+00  0.45593999997E+02  0.45594000000E+02  0.51100000000E-03 0. -1.
         11   -1    0    0    0    0 -0.00000000000E+00 -0.00000000000E+00 -0.45593999997E+02  0.45594000000E+02  0.51100000000E-03 0.  1.
    9900012    2    1    2    0    0  0.15488066146E+02 -0.86180612278E+01  0.60437855817E+01  0.72461587732E+02  0.70000022716E+02 0.  0.
         12    1    1    2    0    0 -0.15488066146E+02  0.86180612278E+01 -0.60437855817E+01  0.18726412268E+02  0.00000000000E+00 0. -1.
         11    1    3    3    0    0  0.17574267648E+01  0.25213566789E+02 -0.47856014239E+01  0.25723811543E+02  0.51100000000E-03 0. -1.
        -11    1    3    3    0    0 -0.34090222712E+01 -0.37629230398E+01 -0.63236017069E+01  0.81098064994E+01  0.51100000000E-03 0.  1.
        -12    1    3    3    0    0  0.17139661653E+02 -0.30068704977E+02  0.17152988713E+02  0.38627969689E+02  0.00000000000E+00 0.  1.
</event>
<event>
 7    1  0.2153242E-013  0.7246158E+02  0.7816164E-02  0.1226708E+00
        -11   -1    0    0    0    0  0.00000000000E+00  0.00000000000E+00  0.45593999997E+02  0.45594000000E+02  0.51100000000E-03 0.  1.
         11   -1    0    0    0    0 -0.00000000000E+00 -0.00000000000E+00 -0.45593999997E+02  0.45594000000E+02  0.51100000000E-03 0. -1.
    9900012    2    1    2    0    0 -0.16291239694E+02 -0.74192234758E+01 -0.54981333403E+01  0.72461579147E+02  0.70000011532E+02 0.  0.
         12    1    1    2    0    0  0.16291239694E+02  0.74192234758E+01  0.54981333403E+01  0.18726420853E+02  0.00000000000E+00 0. -1.
         11    1    3    3    0    0 -0.14781019487E+02 -0.31261641644E+02 -0.14533314598E+01  0.34610416755E+02  0.51100000000E-03 0. -1.
        -11    1    3    3    0    0 -0.13040008177E+02  0.62402913490E+01 -0.78768974857E+01  0.16462945169E+02  0.51100000000E-03 0.  1.
        -12    1    3    3    0    0  0.11529787970E+02  0.17602126820E+02  0.38320956053E+01  0.21388217222E+02  0.00000000000E+00 0.  1.
</event>
<event>
 7    1  0.2153242E-013  0.7246157E+02  0.7816164E-02  0.1226708E+00
        -11   -1    0    0    0    0  0.00000000000E+00  0.00000000000E+00  0.45593999997E+02  0.45594000000E+02  0.51100000000E-03 0. -1.
         11   -1    0    0    0    0 -0.00000000000E+00 -0.00000000000E+00 -0.45593999997E+02  0.45594000000E+02  0.51100000000E-03 0.  1.
    9900012    2    1    2    0    0 -0.18400178040E+02  0.16768080878E+01 -0.30497635720E+01  0.72461566941E+02  0.69999995632E+02 0.  0.
         12    1    1    2    0    0  0.18400178040E+02 -0.16768080878E+01  0.30497635720E+01  0.18726433059E+02  0.00000000000E+00 0. -1.
         11    1    3    3    0    0 -0.11106988504E+02  0.27441768528E+02 -0.97214451107E+01  0.31159626905E+02  0.51100000000E-03 0. -1.
        -11    1    3    3    0    0 -0.38163700398E+01 -0.51302070565E+01  0.16857174881E+02  0.18029088994E+02  0.51100000000E-03 0.  1.
        -12    1    3    3    0    0 -0.34768194958E+01 -0.20634753384E+02 -0.10185493342E+02  0.23272851042E+02  0.00000000000E+00 0.  1.
</event>
<event>
 7    1  0.2153242E-013  0.7246163E+02  0.7816164E-02  0.1226708E+00
        -11   -1    0    0    0    0  0.00000000000E+00  0.00000000000E+00  0.45593999997E+02  0.45594000000E+02  0.51100000000E-03 0.  1.
         11   -1    0    0    0    0 -0.00000000000E+00 -0.00000000000E+00 -0.45593999997E+02  0.45594000000E+02  0.51100000000E-03 0. -1.
    9900012    2    1    2    0    0 -0.15666661782E+02 -0.71262354798E+01 -0.73789897812E+01  0.72461627855E+02  0.70000074984E+02 0.  0.
         12    1    1    2    0    0  0.15666661782E+02  0.71262354798E+01  0.73789897812E+01  0.18726372145E+02  0.00000000000E+00 0. -1.
         11    1    3    3    0    0 -0.98508020594E+01 -0.16850990859E+02  0.10732495248E+02  0.22275112764E+02  0.51100000000E-03 0. -1.
        -11    1    3    3    0    0 -0.23775857264E+02  0.14947567753E+02 -0.11519150030E+02  0.30354768786E+02  0.51100000000E-03 0.  1.
         12    1    3    3    0    0  0.17959997541E+02 -0.52228123739E+01 -0.65923349990E+01  0.19831746305E+02  0.00000000000E+00 0. -1.
</event>
<event>
 7    1  0.2153242E-013  0.7246157E+02  0.7816164E-02  0.1226708E+00
        -11   -1    0    0    0    0  0.00000000000E+00  0.00000000000E+00  0.45593999997E+02  0.45594000000E+02  0.51100000000E-03 0.  1.
         11   -1    0    0    0    0 -0.00000000000E+00 -0.00000000000E+00 -0.45593999997E+02  0.45594000000E+02  0.51100000000E-03 0. -1.
    9900012    2    1    2    0    0 -0.77405052963E+01  0.10466825974E+02  0.13461400962E+02  0.72461569906E+02  0.69999999494E+02 0.  0.
         12    1    1    2    0    0  0.77405052963E+01 -0.10466825974E+02 -0.13461400962E+02  0.18726430094E+02  0.00000000000E+00 0. -1.
         11    1    3    3    0    0  0.11245061979E+02 -0.67322425051E+01 -0.57364458226E+01  0.14306687912E+02  0.51100000000E-03 0. -1.
        -11    1    3    3    0    0  0.38757070579E+01 -0.33519382698E+01  0.26142249521E+02  0.26639703558E+02  0.51100000000E-03 0.  1.
         12    1    3    3    0    0 -0.22861274333E+02  0.20551006749E+02 -0.69444027367E+01  0.31515178437E+02  0.00000000000E+00 0. -1.
</event>
<event>
 7    1  0.2153242E-013  0.7246178E+02  0.7816164E-02  0.1226707E+00
        -11   -1    0    0    0    0  0.00000000000E+00  0.00000000000E+00  0.45593999997E+02  0.45594000000E+02  0.51100000000E-03 0.  1.
         11   -1    0    0    0    0 -0.00000000000E+00 -0.00000000000E+00 -0.45593999997E+02  0.45594000000E+02  0.51100000000E-03 0. -1.
    9900012    2    1    2    0    0  0.44749837298E+01 -0.64285827977E+01  0.17009381379E+02  0.72461782788E+02  0.70000276812E+02 0.  0.
         12    1    1    2    0    0 -0.44749837298E+01  0.64285827977E+01 -0.17009381379E+02  0.18726217212E+02  0.00000000000E+00 0. -1.
         11    1    3    3    0    0  0.91431401765E+01 -0.36491358024E+02  0.10365034635E+02  0.39021150239E+02  0.51100000000E-03 0. -1.
        -11    1    3    3    0    0  0.35015549103E+01  0.64821313806E+01  0.38955599641E+01  0.83339247489E+01  0.51100000000E-03 0.  1.
        -12    1    3    3    0    0 -0.81697113570E+01  0.23580643845E+02  0.27487867799E+01  0.25106707800E+02  0.00000000000E+00 0.  1.
</event>
<event>
 7    1  0.2153242E-013  0.7246167E+02  0.7816164E-02  0.1226708E+00
        -11   -1    0    0    0    0  0.00000000000E+00  0.00000000000E+00  0.45593999997E+02  0.45594000000E+02  0.51100000000E-03 0. -1.
         11   -1    0    0    0    0 -0.00000000000E+00 -0.00000000000E+00 -0.45593999997E+02  0.45594000000E+02  0.51100000000E-03 0.  1.
    9900012    2    1    2    0    0 -0.12023637442E+02  0.57793580692E+01 -0.13141784100E+02  0.72461672908E+02  0.70000133673E+02 0.  0.
         12    1    1    2    0    0  0.12023637442E+02 -0.57793580692E+01  0.13141784100E+02  0.18726327092E+02  0.00000000000E+00 0. -1.
         11    1    3    3    0    0 -0.21984870223E+02  0.30756626439E+01 -0.21505710716E+02  0.30907762991E+02  0.51100000000E-03 0. -1.
        -11    1    3    3    0    0  0.48497875662E+01  0.73837883538E+00 -0.15920763449E+02  0.16659422313E+02  0.51100000000E-03 0.  1.
         12    1    3    3    0    0  0.51114452153E+01  0.19653165899E+01  0.24284690065E+02  0.24894487604E+02  0.00000000000E+00 0. -1.
</event>
<event>
 7    1  0.2153242E-013  0.7246156E+02  0.7816164E-02  0.1226708E+00
        -11   -1    0    0    0    0  0.00000000000E+00  0.00000000000E+00  0.45593999997E+02  0.45594000000E+02  0.51100000000E-03 0.  1.
         11   -1    0    0    0    0 -0.00000000000E+00 -0.00000000000E+00 -0.45593999997E+02  0.45594000000E+02  0.51100000000E-03 0. -1.
    9900012    2    1    2    0    0 -0.25861897123E+01 -0.67764176492E+01  0.17264740939E+02  0.72461561655E+02  0.69999988746E+02 0.  0.
         12    1    1    2    0    0  0.25861897123E+01  0.67764176492E+01 -0.17264740939E+02  0.18726438345E+02  0.00000000000E+00 0. -1.
         11    1    3    3    0    0  0.64582341288E+01  0.15185200891E+02 -0.19354839836E+02  0.25434404642E+02  0.51100000000E-03 0. -1.
        -11    1    3    3    0    0  0.20303379265E+01  0.16376599190E+01  0.80525174058E+00  0.27299510496E+01  0.51100000000E-03 0.  1.
        -12    1    3    3    0    0 -0.11074761768E+02 -0.23599278459E+02  0.35814329035E+02  0.44297205964E+02  0.00000000000E+00 0.  1.
</event>
<event>
 7    1  0.2153242E-013  0.7246157E+02  0.7816164E-02  0.1226708E+00
        -11   -1    0    0    0    0  0.00000000000E+00  0.00000000000E+00  0.45593999997E+02  0.45594000000E+02  0.51100000000E-03 0.  1.
         11   -1    0    0    0    0 -0.00000000000E+00 -0.00000000000E+00 -0.45593999997E+02  0.45594000000E+02  0.51100000000E-03 0. -1.
    9900012    2    1    2    0    0 -0.79020948771E+01 -0.16226383628E+02 -0.49940408455E+01  0.72461572870E+02  0.70000003355E+02 0.  0.
         12    1    1    2    0    0  0.79020948771E+01  0.16226383628E+02  0.49940408455E+01  0.18726427130E+02  0.00000000000E+00 0. -1.
         11    1    3    3    0    0  0.16795470620E+02  0.34211888826E+01 -0.10683072278E+02  0.20197039394E+02  0.51100000000E-03 0. -1.
        -11    1    3    3    0    0 -0.13681634716E+01  0.76155262667E+01  0.13483143861E+02  0.15545522836E+02  0.51100000000E-03 0.  1.
         12    1    3    3    0    0 -0.23329402026E+02 -0.27263098777E+02 -0.77941124288E+01  0.36719010640E+02  0.00000000000E+00 0. -1.
</event>
<event>
 7    1  0.2320537E-013  0.7246155E+02  0.7816164E-02  0.1226708E+00
        -11   -1    0    0    0    0  0.00000000000E+00  0.00000000000E+00  0.45593999997E+02  0.45594000000E+02  0.51100000000E-03 0. -1.
         11   -1    0    0    0    0 -0.00000000000E+00 -0.00000000000E+00 -0.45593999997E+02  0.45594000000E+02  0.51100000000E-03 0.  1.
    9900012    2    1    2    0    0 -0.97778735951E+01  0.59043426094E+01 -0.14839537731E+02  0.72461549355E+02  0.69999972722E+02 0.  0.
         12    1    1    2    0    0  0.97778735951E+01 -0.59043426094E+01  0.14839537731E+02  0.18726450645E+02  0.00000000000E+00 0. -1.
         11    1    3    3    0    0 -0.11929479667E+02 -0.13622757532E+02 -0.12672817586E+02  0.22101862223E+02  0.51100000000E-03 0. -1.
        -11    1    3    3    0    0  0.65961867318E+01 -0.34651407893E+01 -0.19728286947E+02  0.21088437264E+02  0.51100000000E-03 0.  1.
         12    1    3    3    0    0 -0.44445806600E+01  0.22992240931E+02  0.17561566802E+02  0.29271249868E+02  0.00000000000E+00 0. -1.
</event>
<event>
 7    1  0.2153242E-013  0.7246154E+02  0.7816164E-02  0.1226708E+00
        -11   -1    0    0    0    0  0.00000000000E+00  0.00000000000E+00  0.45593999997E+02  0.45594000000E+02  0.51100000000E-03 0. -1.
         11   -1    0    0    0    0 -0.00000000000E+00 -0.00000000000E+00 -0.45593999997E+02  0.45594000000E+02  0.51100000000E-03 0.  1.
    9900012    2    1    2    0    0  0.14000539716E+02 -0.43729696913E+01 -0.11642259782E+02  0.72461543072E+02  0.69999964538E+02 0.  0.
         12    1    1    2    0    0 -0.14000539716E+02  0.43729696913E+01  0.11642259782E+02  0.18726456928E+02  0.00000000000E+00 0. -1.
         11    1    3    3    0    0 -0.43107747034E+01  0.12330467813E+02  0.22594317677E+02  0.26098398544E+02  0.51100000000E-03 0. -1.
        -11    1    3    3    0    0  0.71598373917E+01 -0.20117267698E+01  0.42083570985E-01  0.74372096488E+01  0.51100000000E-03 0.  1.
        -12    1    3    3    0    0  0.11151477027E+02 -0.14691710734E+02 -0.34278661030E+02  0.38925934879E+02  0.00000000000E+00 0.  1.
</event>
<event>
 7    1  0.2944069E-013  0.7246136E+02  0.7816164E-02  0.1226709E+00
        -11   -1    0    0    0    0  0.00000000000E+00  0.00000000000E+00  0.45593999997E+02  0.45594000000E+02  0.51100000000E-03 0. -1.
         11   -1    0    0    0    0 -0.00000000000E+00 -0.00000000000E+00 -0.45593999997E+02  0.45594000000E+02  0.51100000000E-03 0.  1.
    9900012    2    1    2    0    0 -0.95589929623E+00  0.12797473034E+02 -0.13638109832E+02  0.72461358568E+02  0.69999724187E+02 0.  0.
         12    1    1    2    0    0  0.95589929623E+00 -0.12797473034E+02  0.13638109832E+02  0.18726641432E+02  0.00000000000E+00 0. -1.
         11    1    3    3    0    0 -0.82053701214E+01 -0.46473074538E+01 -0.10228943135E+01  0.94853507282E+01  0.51100000000E-03 0. -1.
        -11    1    3    3    0    0 -0.19320072980E+02  0.12968191008E+01 -0.23119993171E+02  0.30157603423E+02  0.51100000000E-03 0.  1.
         12    1    3    3    0    0  0.26569543805E+02  0.16147961387E+02  0.10504777653E+02  0.32818404417E+02  0.00000000000E+00 0. -1.
</event>
<event>
 7    1  0.2153242E-013  0.7246157E+02  0.7816164E-02  0.1226708E+00
        -11   -1    0    0    0    0  0.00000000000E+00  0.00000000000E+00  0.45593999997E+02  0.45594000000E+02  0.51100000000E-03 0.  1.
         11   -1    0    0    0    0 -0.00000000000E+00 -0.00000000000E+00 -0.45593999997E+02  0.45594000000E+02  0.51100000000E-03 0. -1.
    9900012    2    1    2    0    0 -0.85380074540E+01 -0.22274583486E+01  0.16517260208E+02  0.72461574107E+02  0.70000004966E+02 0.  0.
         12    1    1    2    0    0  0.85380074540E+01  0.22274583486E+01 -0.16517260208E+02  0.18726425893E+02  0.00000000000E+00 0. -1.
         11    1    3    3    0    0 -0.15692551331E+02 -0.58352945959E+01 -0.21093423178E+02  0.26930267952E+02  0.51100000000E-03 0. -1.
        -11    1    3    3    0    0  0.10528602046E+02  0.56185153233E+01  0.54289725841E+01  0.13110793991E+02  0.51100000000E-03 0.  1.
        -12    1    3    3    0    0 -0.33740581692E+01 -0.20106790760E+01  0.32181710802E+02  0.32420512164E+02  0.00000000000E+00 0.  1.
</event>
<event>
 7    1  0.2153242E-013  0.7246157E+02  0.7816164E-02  0.1226708E+00
        -11   -1    0    0    0    0  0.00000000000E+00  0.00000000000E+00  0.45593999997E+02  0.45594000000E+02  0.51100000000E-03 0.  1.
         11   -1    0    0    0    0 -0.00000000000E+00 -0.00000000000E+00 -0.45593999997E+02  0.45594000000E+02  0.51100000000E-03 0. -1.
    9900012    2    1    2    0    0 -0.30486272368E+01 -0.18196456605E+02  0.32053076495E+01  0.72461570599E+02  0.70000000396E+02 0.  0.
         12    1    1    2    0    0  0.30486272368E+01  0.18196456605E+02 -0.32053076495E+01  0.18726429401E+02  0.00000000000E+00 0. -1.
         11    1    3    3    0    0  0.33534826576E+01  0.12909355986E+02 -0.90327126104E+01  0.16108606870E+02  0.51100000000E-03 0. -1.
        -11    1    3    3    0    0 -0.21551106289E+02 -0.14863382591E+02  0.19871654527E+02  0.32867202166E+02  0.51100000000E-03 0.  1.
         12    1    3    3    0    0  0.15148996395E+02 -0.16242430000E+02 -0.76336342670E+01  0.23485761563E+02  0.00000000000E+00 0. -1.
</event>
<event>
 7    1  0.2153242E-013  0.7246156E+02  0.7816164E-02  0.1226708E+00
        -11   -1    0    0    0    0  0.00000000000E+00  0.00000000000E+00  0.45593999997E+02  0.45594000000E+02  0.51100000000E-03 0. -1.
         11   -1    0    0    0    0 -0.00000000000E+00 -0.00000000000E+00 -0.45593999997E+02  0.45594000000E+02  0.51100000000E-03 0.  1.
    9900012    2    1    2    0    0 -0.10853967877E+02 -0.12846199651E+02 -0.82368771992E+01  0.72461558530E+02  0.69999984674E+02 0.  0.
         12    1    1    2    0    0  0.10853967877E+02  0.12846199651E+02  0.82368771992E+01  0.18726441470E+02  0.00000000000E+00 0. -1.
         11    1    3    3    0    0  0.58134412550E+01 -0.12210064181E+02 -0.34948487336E+01  0.13967667467E+02  0.51100000000E-03 0. -1.
        -11    1    3    3    0    0  0.16599033748E+02  0.14118288189E+02  0.26740153309E-01  0.21791161007E+02  0.51100000000E-03 0.  1.
         12    1    3    3    0    0 -0.33266442880E+02 -0.14754423659E+02 -0.47687686189E+01  0.36702730055E+02  0.00000000000E+00 0. -1.
</event>
<event>
 7    1  0.2153242E-013  0.7246154E+02  0.7816164E-02  0.1226708E+00
        -11   -1    0    0    0    0  0.00000000000E+00  0.00000000000E+00  0.45593999997E+02  0.45594000000E+02  0.51100000000E-03 0. -1.
         11   -1    0    0    0    0 -0.00000000000E+00 -0.00000000000E+00 -0.45593999997E+02  0.45594000000E+02  0.51100000000E-03 0.  1.
    9900012    2    1    2    0    0 -0.64221122465E+01 -0.17587243975E+02 -0.35457866030E+00  0.72461537377E+02  0.69999957119E+02 0.  0.
         12    1    1    2    0    0  0.64221122465E+01  0.17587243975E+02  0.35457866030E+00  0.18726462623E+02  0.00000000000E+00 0. -1.
         11    1    3    3    0    0 -0.10807340243E+02  0.36100114030E+01 -0.41475095062E+01  0.12125700838E+02  0.51100000000E-03 0. -1.
        -11    1    3    3    0    0  0.26975160376E+01  0.70545510275E+01 -0.21245342228E+02  0.22547901224E+02  0.51100000000E-03 0.  1.
         12    1    3    3    0    0  0.16877119586E+01 -0.28251806406E+02  0.25038273074E+02  0.37787935315E+02  0.00000000000E+00 0. -1.
</event>
<event>
 7    1  0.2153242E-013  0.7246158E+02  0.7816164E-02  0.1226708E+00
        -11   -1    0    0    0    0  0.00000000000E+00  0.00000000000E+00  0.45593999997E+02  0.45594000000E+02  0.51100000000E-03 0.  1.
         11   -1    0    0    0    0 -0.00000000000E+00 -0.00000000000E+00 -0.45593999997E+02  0.45594000000E+02  0.51100000000E-03 0. -1.
    9900012    2    1    2    0    0 -0.16313458472E+02 -0.52264348206E+01  0.75653336547E+01  0.72461579585E+02  0.70000012103E+02 0.  0.
         12    1    1    2    0    0  0.16313458472E+02  0.52264348206E+01 -0.75653336547E+01  0.18726420415E+02  0.00000000000E+00 0. -1.
         11    1    3    3    0    0 -0.23533086401E+02  0.90123493659E+01 -0.94809901904E+01  0.26924297055E+02  0.51100000000E-03 0. -1.
        -11    1    3    3    0    0  0.37762801975E+01  0.64699641834E+01 -0.92409804847E+01  0.11896068647E+02  0.51100000000E-03 0.  1.
        -12    1    3    3    0    0  0.34433477314E+01 -0.20708748370E+02  0.26287304330E+02  0.33641213884E+02  0.00000000000E+00 0.  1.
</event>
<event>
 7    1  0.2153242E-013  0.7246167E+02  0.7816164E-02  0.1226708E+00
        -11   -1    0    0    0    0  0.00000000000E+00  0.00000000000E+00  0.45593999997E+02  0.45594000000E+02  0.51100000000E-03 0. -1.
         11   -1    0    0    0    0 -0.00000000000E+00 -0.00000000000E+00 -0.45593999997E+02  0.45594000000E+02  0.51100000000E-03 0.  1.
    9900012    2    1    2    0    0 -0.13035360971E+02  0.53503689684E+01 -0.12334033582E+02  0.72461669122E+02  0.70000128741E+02 0.  0.
         12    1    1    2    0    0  0.13035360971E+02 -0.53503689684E+01  0.12334033582E+02  0.18726330878E+02  0.00000000000E+00 0. -1.
         11    1    3    3    0    0 -0.29307670728E+02  0.37931964007E+01  0.15664920048E+02  0.33447236400E+02  0.51100000000E-03 0. -1.
        -11    1    3    3    0    0  0.19311752297E+01  0.10192518900E+02 -0.95152865388E+01  0.14076844727E+02  0.51100000000E-03 0.  1.
        -12    1    3    3    0    0  0.14341134528E+02 -0.86353463322E+01 -0.18483667092E+02  0.24937587995E+02  0.00000000000E+00 0.  1.
</event>
<event>
 7    1  0.2153242E-013  0.7246161E+02  0.7816164E-02  0.1226708E+00
        -11   -1    0    0    0    0  0.00000000000E+00  0.00000000000E+00  0.45593999997E+02  0.45594000000E+02  0.51100000000E-03 0. -1.
         11   -1    0    0    0    0 -0.00000000000E+00 -0.00000000000E+00 -0.45593999997E+02  0.45594000000E+02  0.51100000000E-03 0.  1.
    9900012    2    1    2    0    0  0.68426445481E+01  0.10107457496E+02 -0.14201946816E+02  0.72461607534E+02  0.70000048512E+02 0.  0.
         12    1    1    2    0    0 -0.68426445481E+01 -0.10107457496E+02  0.14201946816E+02  0.18726392466E+02  0.00000000000E+00 0. -1.
         11    1    3    3    0    0  0.20276129602E+02  0.73244472601E+01 -0.24320879712E+02  0.32500371529E+02  0.51100000000E-03 0. -1.
        -11    1    3    3    0    0 -0.12985840614E+01  0.14386444502E+02 -0.69402223045E+01  0.16025691619E+02  0.51100000000E-03 0.  1.
         12    1    3    3    0    0 -0.12134900992E+02 -0.11603434266E+02  0.17059155201E+02  0.23935544386E+02  0.00000000000E+00 0. -1.
</event>
<event>
 7    1  0.2153242E-013  0.7246149E+02  0.7816164E-02  0.1226708E+00
        -11   -1    0    0    0    0  0.00000000000E+00  0.00000000000E+00  0.45593999997E+02  0.45594000000E+02  0.51100000000E-03 0. -1.
         11   -1    0    0    0    0 -0.00000000000E+00 -0.00000000000E+00 -0.45593999997E+02  0.45594000000E+02  0.51100000000E-03 0.  1.
    9900012    2    1    2    0    0  0.13347930627E+02 -0.73750840424E+01  0.10868445746E+02  0.72461488590E+02  0.69999893565E+02 0.  0.
         12    1    1    2    0    0 -0.13347930627E+02  0.73750840424E+01 -0.10868445746E+02  0.18726511410E+02  0.00000000000E+00 0. -1.
         11    1    3    3    0    0  0.23579280219E+02  0.22987083186E+01 -0.51479453988E+01  0.24243924140E+02  0.51100000000E-03 0. -1.
        -11    1    3    3    0    0 -0.34443018962E+01  0.32024336462E+00 -0.14757430250E+02  0.15157424557E+02  0.51100000000E-03 0.  1.
         12    1    3    3    0    0 -0.67870476964E+01 -0.99940357256E+01  0.30773821395E+02  0.33060139893E+02  0.00000000000E+00 0. -1.
</event>
<event>
 7    1  0.2153242E-013  0.7246160E+02  0.7816164E-02  0.1226708E+00
        -11   -1    0    0    0    0  0.00000000000E+00  0.00000000000E+00  0.45593999997E+02  0.45594000000E+02  0.51100000000E-03 0. -1.
         11   -1    0    0    0    0 -0.00000000000E+00 -0.00000000000E+00 -0.45593999997E+02  0.45594000000E+02  0.51100000000E-03 0.  1.
    9900012    2    1    2    0    0  0.12524526000E+02  0.12003239938E+02 -0.70524228787E+01  0.72461596474E+02  0.70000034104E+02 0.  0.
         12    1    1    2    0    0 -0.12524526000E+02 -0.12003239938E+02  0.70524228787E+01  0.18726403526E+02  0.00000000000E+00 0. -1.
         11    1    3    3    0    0  0.56123087403E+01 -0.62842182097E+01  0.11443960732E+02  0.14211039561E+02  0.51100000000E-03 0. -1.
        -11    1    3    3    0    0  0.18848572109E+02  0.19620485126E+02  0.86637345528E+01  0.28553325617E+02  0.51100000000E-03 0.  1.
         12    1    3    3    0    0 -0.11936354849E+02 -0.13330269783E+01 -0.27160118164E+02  0.29697231296E+02  0.00000000000E+00 0. -1.
</event>
<event>
 7    1  0.2153242E-013  0.7246157E+02  0.7816164E-02  0.1226708E+00
        -11   -1    0    0    0    0  0.00000000000E+00  0.00000000000E+00  0.45593999997E+02  0.45594000000E+02  0.51100000000E-03 0.  1.
         11   -1    0    0    0    0 -0.00000000000E+00 -0.00000000000E+00 -0.45593999997E+02  0.45594000000E+02  0.51100000000E-03 0. -1.
    9900012    2    1    2    0    0 -0.11259081142E+01 -0.47384490898E+00  0.18686547232E+02  0.72461568265E+02  0.69999997357E+02 0.  0.
         12    1    1    2    0    0  0.11259081142E+01  0.47384490898E+00 -0.18686547232E+02  0.18726431735E+02  0.00000000000E+00 0. -1.
         11    1    3    3    0    0 -0.15195036058E+02  0.47515892912E+01 -0.72139148322E+01  0.17478766807E+02  0.51100000000E-03 0. -1.
        -11    1    3    3    0    0  0.10266881698E+02 -0.24458792977E+02  0.63087638402E+01  0.27266131283E+02  0.51100000000E-03 0.  1.
         12    1    3    3    0    0  0.38022462466E+01  0.19233358777E+02  0.19591698224E+02  0.27716670176E+02  0.00000000000E+00 0. -1.
</event>
<event>
 7    1  0.3230349E-013  0.7246160E+02  0.7816164E-02  0.1226708E+00
        -11   -1    0    0    0    0  0.00000000000E+00  0.00000000000E+00  0.45593999997E+02  0.45594000000E+02  0.51100000000E-03 0. -1.
         11   -1    0    0    0    0 -0.00000000000E+00 -0.00000000000E+00 -0.45593999997E+02  0.45594000000E+02  0.51100000000E-03 0.  1.
    9900012    2    1    2    0    0  0.61944530466E+01 -0.24525446066E+00 -0.17670507679E+02  0.72461595115E+02  0.70000032334E+02 0.  0.
         12    1    1    2    0    0 -0.61944530466E+01  0.24525446066E+00  0.17670507679E+02  0.18726404885E+02  0.00000000000E+00 0. -1.
         11    1    3    3    0    0  0.41207685653E+01 -0.46389518449E+01 -0.10135611710E+02  0.11884074755E+02  0.51100000000E-03 0. -1.
        -11    1    3    3    0    0  0.76636480419E+01 -0.32515546655E+01 -0.32671742600E+02  0.33715676974E+02  0.51100000000E-03 0.  1.
         12    1    3    3    0    0 -0.55899635606E+01  0.76452520497E+01  0.25136846631E+02  0.26861843386E+02  0.00000000000E+00 0. -1.
</event>
<event>
 7    1  0.2153242E-013  0.7246158E+02  0.7816164E-02  0.1226708E+00
        -11   -1    0    0    0    0  0.00000000000E+00  0.00000000000E+00  0.45593999997E+02  0.45594000000E+02  0.51100000000E-03 0. -1.
         11   -1    0    0    0    0 -0.00000000000E+00 -0.00000000000E+00 -0.45593999997E+02  0.45594000000E+02  0.51100000000E-03 0.  1.
    9900012    2    1    2    0    0  0.31160878929E+01 -0.10114588624E+02 -0.15448749625E+02  0.72461580915E+02  0.70000013835E+02 0.  0.
         12    1    1    2    0    0 -0.31160878929E+01  0.10114588624E+02  0.15448749625E+02  0.18726419085E+02  0.00000000000E+00 0. -1.
         11    1    3    3    0    0  0.91300962509E+00 -0.98807084664E+01  0.11376821193E+02  0.15096160011E+02  0.51100000000E-03 0. -1.
        -11    1    3    3    0    0 -0.13122120907E+02 -0.10788441762E+02  0.73050866238E+01  0.18491750150E+02  0.51100000000E-03 0.  1.
        -12    1    3    3    0    0  0.15325199175E+02  0.10554561605E+02 -0.34130657442E+02  0.38873670753E+02  0.00000000000E+00 0.  1.
</event>
<event>
 7    1  0.2737835E-013  0.7246157E+02  0.7816164E-02  0.1226708E+00
        -11   -1    0    0    0    0  0.00000000000E+00  0.00000000000E+00  0.45593999997E+02  0.45594000000E+02  0.51100000000E-03 0. -1.
         11   -1    0    0    0    0 -0.00000000000E+00 -0.00000000000E+00 -0.45593999997E+02  0.45594000000E+02  0.51100000000E-03 0.  1.
    9900012    2    1    2    0    0 -0.73554367017E+01 -0.29289144819E+01 -0.16970504237E+02  0.72461574736E+02  0.70000005786E+02 0.  0.
         12    1    1    2    0    0  0.73554367017E+01  0.29289144819E+01  0.16970504237E+02  0.18726425264E+02  0.00000000000E+00 0. -1.
         11    1    3    3    0    0 -0.64456628071E+01 -0.40577042224E+01  0.12808544984E+01  0.77234785613E+01  0.51100000000E-03 0. -1.
        -11    1    3    3    0    0 -0.47214759848E+01 -0.30032812081E+02 -0.12243919158E+02  0.32774619656E+02  0.51100000000E-03 0.  1.
         12    1    3    3    0    0  0.38117020902E+01  0.31161601821E+02 -0.60074395770E+01  0.31963476519E+02  0.00000000000E+00 0. -1.
</event>
<event>
 7    1  0.2153242E-013  0.7246157E+02  0.7816164E-02  0.1226708E+00
        -11   -1    0    0    0    0  0.00000000000E+00  0.00000000000E+00  0.45593999997E+02  0.45594000000E+02  0.51100000000E-03 0. -1.
         11   -1    0    0    0    0 -0.00000000000E+00 -0.00000000000E+00 -0.45593999997E+02  0.45594000000E+02  0.51100000000E-03 0.  1.
    9900012    2    1    2    0    0 -0.18616863832E+02 -0.20101688698E+01  0.22574926618E+00  0.72461565194E+02  0.69999993356E+02 0.  0.
         12    1    1    2    0    0  0.18616863832E+02  0.20101688698E+01 -0.22574926618E+00  0.18726434806E+02  0.00000000000E+00 0. -1.
         11    1    3    3    0    0 -0.93352499360E+01 -0.52476282779E+01  0.27189829007E+02  0.29222787266E+02  0.51100000000E-03 0. -1.
        -11    1    3    3    0    0 -0.31864673806E+01 -0.14430565535E+02 -0.89289431392E+01  0.17266175658E+02  0.51100000000E-03 0.  1.
        -12    1    3    3    0    0 -0.60951465150E+01  0.17668024943E+02 -0.18035136601E+02  0.25972602270E+02  0.00000000000E+00 0.  1.
</event>
<event>
 7    1  0.2153242E-013  0.7246160E+02  0.7816164E-02  0.1226708E+00
        -11   -1    0    0    0    0  0.00000000000E+00  0.00000000000E+00  0.45593999997E+02  0.45594000000E+02  0.51100000000E-03 0.  1.
         11   -1    0    0    0    0 -0.00000000000E+00 -0.00000000000E+00 -0.45593999997E+02  0.45594000000E+02  0.51100000000E-03 0. -1.
    9900012    2    1    2    0    0 -0.12885699828E+02  0.53528817988E+01  0.12489332428E+02  0.72461600770E+02  0.70000039700E+02 0.  0.
         12    1    1    2    0    0  0.12885699828E+02 -0.53528817988E+01 -0.12489332428E+02  0.18726399230E+02  0.00000000000E+00 0. -1.
         11    1    3    3    0    0  0.17090409596E+01 -0.27429917646E+01 -0.21079507090E+02  0.21325816379E+02  0.51100000000E-03 0. -1.
        -11    1    3    3    0    0 -0.90710546871E+01  0.17931717503E+02  0.54244119411E+01  0.20814772901E+02  0.51100000000E-03 0.  1.
        -12    1    3    3    0    0 -0.55236861007E+01 -0.98358439396E+01  0.28144427577E+02  0.30321011490E+02  0.00000000000E+00 0.  1.
</event>
<event>
 7    1  0.2153242E-013  0.7246157E+02  0.7816164E-02  0.1226708E+00
        -11   -1    0    0    0    0  0.00000000000E+00  0.00000000000E+00  0.45593999997E+02  0.45594000000E+02  0.51100000000E-03 0.  1.
         11   -1    0    0    0    0 -0.00000000000E+00 -0.00000000000E+00 -0.45593999997E+02  0.45594000000E+02  0.51100000000E-03 0. -1.
    9900012    2    1    2    0    0  0.68460087761E+01 -0.16991358460E+02  0.38865026181E+01  0.72461574791E+02  0.70000005858E+02 0.  0.
         12    1    1    2    0    0 -0.68460087761E+01  0.16991358460E+02 -0.38865026181E+01  0.18726425209E+02  0.00000000000E+00 0. -1.
         11    1    3    3    0    0 -0.16481987484E+02 -0.77344663621E+01 -0.12086534308E+02  0.21853196406E+02  0.51100000000E-03 0. -1.
        -11    1    3    3    0    0 -0.10324803463E+02 -0.52932421150E+01 -0.27083702722E+01  0.11914497406E+02  0.51100000000E-03 0.  1.
        -12    1    3    3    0    0  0.33652799723E+02 -0.39636499832E+01  0.18681407198E+02  0.38693880980E+02  0.00000000000E+00 0.  1.
</event>
<event>
 7    1  0.2153242E-013  0.7246158E+02  0.7816164E-02  0.1226708E+00
        -11   -1    0    0    0    0  0.00000000000E+00  0.00000000000E+00  0.45593999997E+02  0.45594000000E+02  0.51100000000E-03 0. -1.
         11   -1    0    0    0    0 -0.00000000000E+00 -0.00000000000E+00 -0.45593999997E+02  0.45594000000E+02  0.51100000000E-03 0.  1.
    9900012    2    1    2    0    0  0.57296570648E+01  0.17635547613E+02  0.26147910569E+01  0.72461584380E+02  0.70000018349E+02 0.  0.
         12    1    1    2    0    0 -0.57296570648E+01 -0.17635547613E+02 -0.26147910569E+01  0.18726415620E+02  0.00000000000E+00 0. -1.
         11    1    3    3    0    0  0.46724288842E+01  0.88647890500E+01 -0.43069775215E+01  0.10907159677E+02  0.51100000000E-03 0. -1.
        -11    1    3    3    0    0 -0.12881281266E+02 -0.23060670816E+02  0.30608024647E+01  0.26591172549E+02  0.51100000000E-03 0.  1.
         12    1    3    3    0    0  0.13938509446E+02  0.31831429379E+02  0.38609661136E+01  0.34963252155E+02  0.00000000000E+00 0. -1.
</event>
<event>
 7    1  0.2153242E-013  0.7246160E+02  0.7816164E-02  0.1226708E+00
        -11   -1    0    0    0    0  0.00000000000E+00  0.00000000000E+00  0.45593999997E+02  0.45594000000E+02  0.51100000000E-03 0.  1.
         11   -1    0    0    0    0 -0.00000000000E+00 -0.00000000000E+00 -0.45593999997E+02  0.45594000000E+02  0.51100000000E-03 0. -1.
    9900012    2    1    2    0    0 -0.11267006765E+02  0.14475193889E+02 -0.37684726682E+01  0.72461599764E+02  0.70000038389E+02 0.  0.
         12    1    1    2    0    0  0.11267006765E+02 -0.14475193889E+02  0.37684726682E+01  0.18726400236E+02  0.00000000000E+00 0. -1.
         11    1    3    3    0    0 -0.14128901385E+02  0.14775457509E+02  0.96444788206E+01  0.22604335224E+02  0.51100000000E-03 0. -1.
        -11    1    3    3    0    0 -0.77425933984E+00  0.54914116227E+01  0.17416683674E+02  0.18278291758E+02  0.51100000000E-03 0.  1.
         12    1    3    3    0    0  0.36361539595E+01 -0.57916752428E+01 -0.30829635162E+02  0.31578972782E+02  0.00000000000E+00 0. -1.
</event>
<event>
 7    1  0.2153242E-013  0.7246183E+02  0.7816164E-02  0.1226707E+00
        -11   -1    0    0    0    0  0.00000000000E+00  0.00000000000E+00  0.45593999997E+02  0.45594000000E+02  0.51100000000E-03 0. -1.
         11   -1    0    0    0    0 -0.00000000000E+00 -0.00000000000E+00 -0.45593999997E+02  0.45594000000E+02  0.51100000000E-03 0.  1.
    9900012    2    1    2    0    0  0.31318553787E+01  0.15570257596E+02 -0.99210858555E+01  0.72461831565E+02  0.70000340353E+02 0.  0.
         12    1    1    2    0    0 -0.31318553787E+01 -0.15570257596E+02  0.99210858555E+01  0.18726168435E+02  0.00000000000E+00 0. -1.
         11    1    3    3    0    0  0.14825734520E+01 -0.13470387109E+02 -0.12932814364E+02  0.18732512926E+02  0.51100000000E-03 0. -1.
        -11    1    3    3    0    0 -0.19687813094E+02  0.19054732247E+02 -0.67671968307E+01  0.28222114709E+02  0.51100000000E-03 0.  1.
        -12    1    3    3    0    0  0.21337095020E+02  0.99859124573E+01  0.97789253390E+01  0.25507203930E+02  0.00000000000E+00 0.  1.
</event>
<event>
 7    1  0.3107588E-013  0.7246154E+02  0.7816164E-02  0.1226708E+00
        -11   -1    0    0    0    0  0.00000000000E+00  0.00000000000E+00  0.45593999997E+02  0.45594000000E+02  0.51100000000E-03 0. -1.
         11   -1    0    0    0    0 -0.00000000000E+00 -0.00000000000E+00 -0.45593999997E+02  0.45594000000E+02  0.51100000000E-03 0.  1.
    9900012    2    1    2    0    0  0.14309654449E+02 -0.11933653194E+02 -0.18713981438E+01  0.72461536905E+02  0.69999956505E+02 0.  0.
         12    1    1    2    0    0 -0.14309654449E+02  0.11933653194E+02  0.18713981438E+01  0.18726463095E+02  0.00000000000E+00 0. -1.
         11    1    3    3    0    0 -0.14108999399E+02 -0.66430632018E+01 -0.69296171849E+01  0.17064986005E+02  0.51100000000E-03 0. -1.
        -11    1    3    3    0    0  0.16614366156E+02 -0.81528153628E+01 -0.20183820396E+02  0.27384159054E+02  0.51100000000E-03 0.  1.
         12    1    3    3    0    0  0.11804287693E+02  0.28622253706E+01  0.25242039437E+02  0.28012391846E+02  0.00000000000E+00 0. -1.
</event>
<event>
 7    1  0.2153242E-013  0.7246161E+02  0.7816164E-02  0.1226708E+00
        -11   -1    0    0    0    0  0.00000000000E+00  0.00000000000E+00  0.45593999997E+02  0.45594000000E+02  0.51100000000E-03 0.  1.
         11   -1    0    0    0    0 -0.00000000000E+00 -0.00000000000E+00 -0.45593999997E+02  0.45594000000E+02  0.51100000000E-03 0. -1.
    9900012    2    1    2    0    0  0.10057568600E+02 -0.10077781373E+02  0.12163931485E+02  0.72461612396E+02  0.70000054845E+02 0.  0.
         12    1    1    2    0    0 -0.10057568600E+02  0.10077781373E+02 -0.12163931485E+02  0.18726387604E+02  0.00000000000E+00 0. -1.
         11    1    3    3    0    0 -0.11995799673E+02 -0.10805633133E+02 -0.65918865306E+01  0.17438861359E+02  0.51100000000E-03 0. -1.
        -11    1    3    3    0    0 -0.11383023254E+02  0.66957155670E+01  0.16286972695E+02  0.20968340545E+02  0.51100000000E-03 0.  1.
        -12    1    3    3    0    0  0.33436391527E+02 -0.59678638066E+01  0.24688453204E+01  0.34054410492E+02  0.00000000000E+00 0.  1.
</event>
<event>
 7    1  0.2153242E-013  0.7246170E+02  0.7816164E-02  0.1226708E+00
        -11   -1    0    0    0    0  0.00000000000E+00  0.00000000000E+00  0.45593999997E+02  0.45594000000E+02  0.51100000000E-03 0. -1.
         11   -1    0    0    0    0 -0.00000000000E+00 -0.00000000000E+00 -0.45593999997E+02  0.45594000000E+02  0.51100000000E-03 0.  1.
    9900012    2    1    2    0    0 -0.61603225554E+01  0.41862714993E+01 -0.17181385318E+02  0.72461696454E+02  0.70000164347E+02 0.  0.
         12    1    1    2    0    0  0.61603225554E+01 -0.41862714993E+01  0.17181385318E+02  0.18726303546E+02  0.00000000000E+00 0. -1.
         11    1    3    3    0    0  0.17045067495E+02  0.88561719319E+01 -0.17019531399E+01  0.19283743203E+02  0.51100000000E-03 0. -1.
        -11    1    3    3    0    0 -0.82697919900E+01  0.19278663982E+02  0.20935649110E-01  0.20977530433E+02  0.51100000000E-03 0.  1.
        -12    1    3    3    0    0 -0.14935598060E+02 -0.23948564415E+02 -0.15500367827E+02  0.32200422819E+02  0.00000000000E+00 0.  1.
</event>
<event>
 7    1  0.2153242E-013  0.7246168E+02  0.7816164E-02  0.1226708E+00
        -11   -1    0    0    0    0  0.00000000000E+00  0.00000000000E+00  0.45593999997E+02  0.45594000000E+02  0.51100000000E-03 0. -1.
         11   -1    0    0    0    0 -0.00000000000E+00 -0.00000000000E+00 -0.45593999997E+02  0.45594000000E+02  0.51100000000E-03 0.  1.
    9900012    2    1    2    0    0 -0.26785623456E+01 -0.10641375224E+02 -0.15174363991E+02  0.72461684681E+02  0.70000149009E+02 0.  0.
         12    1    1    2    0    0  0.26785623456E+01  0.10641375224E+02  0.15174363991E+02  0.18726315319E+02  0.00000000000E+00 0. -1.
         11    1    3    3    0    0  0.12509411110E+02 -0.20699934185E+00 -0.43476537717E+01  0.13245010707E+02  0.51100000000E-03 0. -1.
        -11    1    3    3    0    0  0.19770358945E+02 -0.99813615406E+01  0.13688104956E+01  0.22189373886E+02  0.51100000000E-03 0.  1.
         12    1    3    3    0    0 -0.34958332401E+02 -0.45301434184E+00 -0.12195520715E+02  0.37027300087E+02  0.00000000000E+00 0. -1.
</event>
<event>
 7    1  0.2153242E-013  0.7246168E+02  0.7816164E-02  0.1226708E+00
        -11   -1    0    0    0    0  0.00000000000E+00  0.00000000000E+00  0.45593999997E+02  0.45594000000E+02  0.51100000000E-03 0.  1.
         11   -1    0    0    0    0 -0.00000000000E+00 -0.00000000000E+00 -0.45593999997E+02  0.45594000000E+02  0.51100000000E-03 0. -1.
    9900012    2    1    2    0    0 -0.17135093162E+02 -0.14775434925E+01 -0.74081260134E+01  0.72461684733E+02  0.70000149077E+02 0.  0.
         12    1    1    2    0    0  0.17135093162E+02  0.14775434925E+01  0.74081260134E+01  0.18726315267E+02  0.00000000000E+00 0. -1.
         11    1    3    3    0    0 -0.23853839845E+00 -0.77544028102E+00  0.31348891304E+01  0.32381689761E+01  0.51100000000E-03 0. -1.
        -11    1    3    3    0    0 -0.11334174593E+02 -0.80898929894E+01  0.27096168292E+02  0.30464934247E+02  0.51100000000E-03 0.  1.
         12    1    3    3    0    0 -0.55623801711E+01  0.73877897779E+01 -0.37639183436E+02  0.38758581510E+02  0.00000000000E+00 0. -1.
</event>
<event>
 7    1  0.2153242E-013  0.7246145E+02  0.7816164E-02  0.1226708E+00
        -11   -1    0    0    0    0  0.00000000000E+00  0.00000000000E+00  0.45593999997E+02  0.45594000000E+02  0.51100000000E-03 0.  1.
         11   -1    0    0    0    0 -0.00000000000E+00 -0.00000000000E+00 -0.45593999997E+02  0.45594000000E+02  0.51100000000E-03 0. -1.
    9900012    2    1    2    0    0 -0.16362028271E+02  0.47318626624E+01  0.77831299389E+01  0.72461451865E+02  0.69999845724E+02 0.  0.
         12    1    1    2    0    0  0.16362028271E+02 -0.47318626624E+01 -0.77831299389E+01  0.18726548135E+02  0.00000000000E+00 0. -1.
         11    1    3    3    0    0  0.62617530583E+01  0.11435761783E+02  0.21785951156E+01  0.13218641226E+02  0.51100000000E-03 0.  1.
        -11    1    3    3    0    0 -0.77985070956E+01  0.12352269534E+02 -0.19531198660E+02  0.24389813384E+02  0.51100000000E-03 0. -1.
         12    1    3    3    0    0 -0.14825274234E+02 -0.19056168655E+02  0.25135733483E+02  0.34852997255E+02  0.00000000000E+00 0. -1.
</event>
<event>
 7    1  0.2153242E-013  0.7246154E+02  0.7816164E-02  0.1226708E+00
        -11   -1    0    0    0    0  0.00000000000E+00  0.00000000000E+00  0.45593999997E+02  0.45594000000E+02  0.51100000000E-03 0. -1.
         11   -1    0    0    0    0 -0.00000000000E+00 -0.00000000000E+00 -0.45593999997E+02  0.45594000000E+02  0.51100000000E-03 0.  1.
    9900012    2    1    2    0    0 -0.15753471774E+02 -0.32883106904E+00 -0.10119295769E+02  0.72461544124E+02  0.69999965909E+02 0.  0.
         12    1    1    2    0    0  0.15753471774E+02  0.32883106904E+00  0.10119295769E+02  0.18726455876E+02  0.00000000000E+00 0. -1.
         11    1    3    3    0    0  0.15641231467E+02 -0.94587968005E+01 -0.15743424134E+02  0.24124103350E+02  0.51100000000E-03 0. -1.
        -11    1    3    3    0    0  0.38981876498E+01  0.84069805718E+01 -0.61539983736E+01  0.11124067850E+02  0.51100000000E-03 0.  1.
         12    1    3    3    0    0 -0.35292890891E+02  0.72298515963E+00  0.11778126739E+02  0.37213372925E+02  0.00000000000E+00 0. -1.
</event>
<event>
 7    1  0.2153242E-013  0.7246160E+02  0.7816164E-02  0.1226708E+00
        -11   -1    0    0    0    0  0.00000000000E+00  0.00000000000E+00  0.45593999997E+02  0.45594000000E+02  0.51100000000E-03 0.  1.
         11   -1    0    0    0    0 -0.00000000000E+00 -0.00000000000E+00 -0.45593999997E+02  0.45594000000E+02  0.51100000000E-03 0. -1.
    9900012    2    1    2    0    0  0.89888747425E+01 -0.82665899792E+01  0.14196541625E+02  0.72461596898E+02  0.70000034656E+02 0.  0.
         12    1    1    2    0    0 -0.89888747425E+01  0.82665899792E+01 -0.14196541625E+02  0.18726403102E+02  0.00000000000E+00 0. -1.
         11    1    3    3    0    0  0.47989134431E+01  0.78456148641E+01  0.63670478748E+01  0.11185818778E+02  0.51100000000E-03 0. -1.
        -11    1    3    3    0    0  0.14317260395E+02 -0.62916094070E+01  0.30671740432E+02  0.34428534031E+02  0.51100000000E-03 0.  1.
         12    1    3    3    0    0 -0.10127299096E+02 -0.98205954363E+01 -0.22842246682E+02  0.26847244089E+02  0.00000000000E+00 0. -1.
</event>
<event>
 7    1  0.2153242E-013  0.7246159E+02  0.7816164E-02  0.1226708E+00
        -11   -1    0    0    0    0  0.00000000000E+00  0.00000000000E+00  0.45593999997E+02  0.45594000000E+02  0.51100000000E-03 0. -1.
         11   -1    0    0    0    0 -0.00000000000E+00 -0.00000000000E+00 -0.45593999997E+02  0.45594000000E+02  0.51100000000E-03 0.  1.
    9900012    2    1    2    0    0  0.43277928998E+01 -0.88424752581E+01 -0.15929820883E+02  0.72461592084E+02  0.70000028386E+02 0.  0.
         12    1    1    2    0    0 -0.43277928998E+01  0.88424752581E+01  0.15929820883E+02  0.18726407916E+02  0.00000000000E+00 0. -1.
         11    1    3    3    0    0  0.89209927671E+01  0.95545551926E+01  0.41880983694E+01  0.13726390825E+02  0.51100000000E-03 0. -1.
        -11    1    3    3    0    0  0.21118334095E+02 -0.13354402528E+02  0.11139139148E+01  0.25011295574E+02  0.51100000000E-03 0.  1.
        -12    1    3    3    0    0 -0.25711533962E+02 -0.50426279232E+01 -0.21231833167E+02  0.33723905685E+02  0.00000000000E+00 0.  1.
</event>
<event>
 7    1  0.2153242E-013  0.7246159E+02  0.7816164E-02  0.1226708E+00
        -11   -1    0    0    0    0  0.00000000000E+00  0.00000000000E+00  0.45593999997E+02  0.45594000000E+02  0.51100000000E-03 0. -1.
         11   -1    0    0    0    0 -0.00000000000E+00 -0.00000000000E+00 -0.45593999997E+02  0.45594000000E+02  0.51100000000E-03 0.  1.
    9900012    2    1    2    0    0 -0.11772254042E+02  0.10557342549E+02 -0.10031698975E+02  0.72461590006E+02  0.70000025678E+02 0.  0.
         12    1    1    2    0    0  0.11772254042E+02 -0.10557342549E+02  0.10031698975E+02  0.18726409994E+02  0.00000000000E+00 0. -1.
         11    1    3    3    0    0 -0.11027460172E+01 -0.95534467260E-01  0.74673574480E+01  0.75489471538E+01  0.51100000000E-03 0. -1.
        -11    1    3    3    0    0  0.12621694208E+01 -0.24680122337E+02 -0.29743029094E+01  0.24890720927E+02  0.51100000000E-03 0.  1.
         12    1    3    3    0    0 -0.11931677445E+02  0.35332999353E+02 -0.14524753514E+02  0.40021921925E+02  0.00000000000E+00 0. -1.
</event>
<event>
 7    1  0.2153242E-013  0.7246151E+02  0.7816164E-02  0.1226708E+00
        -11   -1    0    0    0    0  0.00000000000E+00  0.00000000000E+00  0.45593999997E+02  0.45594000000E+02  0.51100000000E-03 0. -1.
         11   -1    0    0    0    0 -0.00000000000E+00 -0.00000000000E+00 -0.45593999997E+02  0.45594000000E+02  0.51100000000E-03 0.  1.
    9900012    2    1    2    0    0 -0.92494075328E+01  0.81916434093E+01 -0.14072207740E+02  0.72461505610E+02  0.69999915737E+02 0.  0.
         12    1    1    2    0    0  0.92494075328E+01 -0.81916434093E+01  0.14072207740E+02  0.18726494390E+02  0.00000000000E+00 0. -1.
         11    1    3    3    0    0  0.42980513937E+01  0.29749976482E+02 -0.63822528698E+01  0.30728935849E+02  0.51100000000E-03 0. -1.
        -11    1    3    3    0    0  0.52738452639E+01  0.55854729174E+01 -0.34845481680E+01  0.84352254134E+01  0.51100000000E-03 0.  1.
         12    1    3    3    0    0 -0.18821304190E+02 -0.27143805990E+02 -0.42054067021E+01  0.33297344348E+02  0.00000000000E+00 0. -1.
</event>
<event>
 7    1  0.2153242E-013  0.7246161E+02  0.7816164E-02  0.1226708E+00
        -11   -1    0    0    0    0  0.00000000000E+00  0.00000000000E+00  0.45593999997E+02  0.45594000000E+02  0.51100000000E-03 0.  1.
         11   -1    0    0    0    0 -0.00000000000E+00 -0.00000000000E+00 -0.45593999997E+02  0.45594000000E+02  0.51100000000E-03 0. -1.
    9900012    2    1    2    0    0 -0.15693233304E+02 -0.20613329491E+00  0.10215565153E+02  0.72461605956E+02  0.70000046456E+02 0.  0.
         12    1    1    2    0    0  0.15693233304E+02  0.20613329491E+00 -0.10215565153E+02  0.18726394044E+02  0.00000000000E+00 0. -1.
         11    1    3    3    0    0 -0.37370124367E+02  0.11808039928E+02  0.12365459382E+02  0.41095749028E+02  0.51100000000E-03 0. -1.
        -11    1    3    3    0    0  0.12916853798E+01  0.35431824473E+01 -0.41949782413E+01  0.56409605283E+01  0.51100000000E-03 0.  1.
        -12    1    3    3    0    0  0.20385205683E+02 -0.15557355670E+02  0.20450840125E+01  0.25724896400E+02  0.00000000000E+00 0.  1.
</event>
<event>
 7    1  0.2153242E-013  0.7246156E+02  0.7816164E-02  0.1226708E+00
        -11   -1    0    0    0    0  0.00000000000E+00  0.00000000000E+00  0.45593999997E+02  0.45594000000E+02  0.51100000000E-03 0. -1.
         11   -1    0    0    0    0 -0.00000000000E+00 -0.00000000000E+00 -0.45593999997E+02  0.45594000000E+02  0.51100000000E-03 0.  1.
    9900012    2    1    2    0    0  0.11954497476E+02  0.33503326063E+01 -0.14019450426E+02  0.72461555363E+02  0.69999980550E+02 0.  0.
         12    1    1    2    0    0 -0.11954497476E+02 -0.33503326063E+01  0.14019450426E+02  0.18726444637E+02  0.00000000000E+00 0. -1.
         11    1    3    3    0    0  0.39179669707E+01  0.11511210410E+02  0.50793319043E+01  0.13177937742E+02  0.51100000000E-03 0. -1.
        -11    1    3    3    0    0  0.29043996815E+02  0.46517225823E+01 -0.23292792025E+01  0.29506233508E+02  0.51100000000E-03 0.  1.
         12    1    3    3    0    0 -0.21007466310E+02 -0.12812600386E+02 -0.16769503128E+02  0.29777384112E+02  0.00000000000E+00 0. -1.
</event>
<event>
 7    1  0.2153242E-013  0.7246156E+02  0.7816164E-02  0.1226708E+00
        -11   -1    0    0    0    0  0.00000000000E+00  0.00000000000E+00  0.45593999997E+02  0.45594000000E+02  0.51100000000E-03 0.  1.
         11   -1    0    0    0    0 -0.00000000000E+00 -0.00000000000E+00 -0.45593999997E+02  0.45594000000E+02  0.51100000000E-03 0. -1.
    9900012    2    1    2    0    0 -0.11107747746E+02  0.14758692200E+02  0.30787313447E+01  0.72461557675E+02  0.69999983561E+02 0.  0.
         12    1    1    2    0    0  0.11107747746E+02 -0.14758692200E+02 -0.30787313447E+01  0.18726442325E+02  0.00000000000E+00 0. -1.
         11    1    3    3    0    0 -0.71704606680E+01  0.22171560208E+02 -0.15223936016E+02  0.27834543580E+02  0.51100000000E-03 0. -1.
        -11    1    3    3    0    0 -0.10719827671E+02  0.14121331203E+02  0.49936313622E+01  0.18419094839E+02  0.51100000000E-03 0.  1.
        -12    1    3    3    0    0  0.67825405925E+01 -0.21534199211E+02  0.13309035999E+02  0.26207919256E+02  0.00000000000E+00 0.  1.
</event>
<event>
 7    1  0.2153242E-013  0.7246161E+02  0.7816164E-02  0.1226708E+00
        -11   -1    0    0    0    0  0.00000000000E+00  0.00000000000E+00  0.45593999997E+02  0.45594000000E+02  0.51100000000E-03 0. -1.
         11   -1    0    0    0    0 -0.00000000000E+00 -0.00000000000E+00 -0.45593999997E+02  0.45594000000E+02  0.51100000000E-03 0.  1.
    9900012    2    1    2    0    0 -0.51968846628E+01  0.15960715800E+02  0.83021364764E+01  0.72461614093E+02  0.70000057056E+02 0.  0.
         12    1    1    2    0    0  0.51968846628E+01 -0.15960715800E+02 -0.83021364764E+01  0.18726385907E+02  0.00000000000E+00 0. -1.
         11    1    3    3    0    0  0.40331834851E+01  0.65402571968E+01  0.14367349412E+02  0.16293012693E+02  0.51100000000E-03 0. -1.
        -11    1    3    3    0    0 -0.63675578932E+01 -0.21192166932E+02  0.63334040784E+01  0.23016640508E+02  0.51100000000E-03 0.  1.
         12    1    3    3    0    0 -0.28625102547E+01  0.30612625535E+02 -0.12398617014E+02  0.33151960892E+02  0.00000000000E+00 0. -1.
</event>
<event>
 7    1  0.2153242E-013  0.7246158E+02  0.7816164E-02  0.1226708E+00
        -11   -1    0    0    0    0  0.00000000000E+00  0.00000000000E+00  0.45593999997E+02  0.45594000000E+02  0.51100000000E-03 0.  1.
         11   -1    0    0    0    0 -0.00000000000E+00 -0.00000000000E+00 -0.45593999997E+02  0.45594000000E+02  0.51100000000E-03 0. -1.
    9900012    2    1    2    0    0  0.73792361411E+01  0.11517380614E+02  0.12789669192E+02  0.72461579619E+02  0.70000012148E+02 0.  0.
         12    1    1    2    0    0 -0.73792361411E+01 -0.11517380614E+02 -0.12789669192E+02  0.18726420381E+02  0.00000000000E+00 0. -1.
         11    1    3    3    0    0  0.38446706215E+01 -0.16657064934E+02 -0.12861260339E+02  0.21392786686E+02  0.51100000000E-03 0. -1.
        -11    1    3    3    0    0  0.23269334387E+01 -0.36693621666E+01 -0.51579673183E+01  0.67441430186E+01  0.51100000000E-03 0.  1.
        -12    1    3    3    0    0  0.12076320809E+01  0.31843807715E+02  0.30808896849E+02  0.44324649915E+02  0.00000000000E+00 0.  1.
</event>
<event>
 7    1  0.2153242E-013  0.7246157E+02  0.7816164E-02  0.1226708E+00
        -11   -1    0    0    0    0  0.00000000000E+00  0.00000000000E+00  0.45593999997E+02  0.45594000000E+02  0.51100000000E-03 0. -1.
         11   -1    0    0    0    0 -0.00000000000E+00 -0.00000000000E+00 -0.45593999997E+02  0.45594000000E+02  0.51100000000E-03 0.  1.
    9900012    2    1    2    0    0 -0.23290124994E+00 -0.18326625026E+02 -0.38418510705E+01  0.72461568213E+02  0.69999997289E+02 0.  0.
         12    1    1    2    0    0  0.23290124994E+00  0.18326625026E+02  0.38418510705E+01  0.18726431787E+02  0.00000000000E+00 0. -1.
         11    1    3    3    0    0  0.23478982517E+02 -0.84688318130E+01  0.20094825334E+02  0.32043497589E+02  0.51100000000E-03 0. -1.
        -11    1    3    3    0    0  0.93587009561E-01 -0.80580647443E+01 -0.27965003776E+01  0.85300398930E+01  0.51100000000E-03 0.  1.
        -12    1    3    3    0    0 -0.23805470776E+02 -0.17997284682E+01 -0.21140176027E+02  0.31888030731E+02  0.00000000000E+00 0.  1.
</event>
<event>
 7    1  0.2730581E-013  0.7246157E+02  0.7816164E-02  0.1226708E+00
        -11   -1    0    0    0    0  0.00000000000E+00  0.00000000000E+00  0.45593999997E+02  0.45594000000E+02  0.51100000000E-03 0. -1.
         11   -1    0    0    0    0 -0.00000000000E+00 -0.00000000000E+00 -0.45593999997E+02  0.45594000000E+02  0.51100000000E-03 0.  1.
    9900012    2    1    2    0    0 -0.94262986927E+01 -0.10506439281E+02 -0.12306043834E+02  0.72461572464E+02  0.70000002827E+02 0.  0.
         12    1    1    2    0    0  0.94262986927E+01  0.10506439281E+02  0.12306043834E+02  0.18726427536E+02  0.00000000000E+00 0. -1.
         11    1    3    3    0    0  0.10695520434E+02 -0.78982208540E+01  0.90183250648E+00  0.13326265499E+02  0.51100000000E-03 0. -1.
        -11    1    3    3    0    0  0.99678273181E+00  0.11577752882E+02 -0.27571071893E+02  0.29919925521E+02  0.51100000000E-03 0.  1.
         12    1    3    3    0    0 -0.21118601858E+02 -0.14185971310E+02  0.14363195553E+02  0.29215381444E+02  0.00000000000E+00 0. -1.
</event>
<event>
 7    1  0.2153242E-013  0.7246141E+02  0.7816164E-02  0.1226708E+00
        -11   -1    0    0    0    0  0.00000000000E+00  0.00000000000E+00  0.45593999997E+02  0.45594000000E+02  0.51100000000E-03 0. -1.
         11   -1    0    0    0    0 -0.00000000000E+00 -0.00000000000E+00 -0.45593999997E+02  0.45594000000E+02  0.51100000000E-03 0.  1.
    9900012    2    1    2    0    0 -0.45824945890E+01 -0.14203800853E+02 -0.11310964106E+02  0.72461411300E+02  0.69999792880E+02 0.  0.
         12    1    1    2    0    0  0.45824945890E+01  0.14203800853E+02  0.11310964106E+02  0.18726588700E+02  0.00000000000E+00 0. -1.
         11    1    3    3    0    0  0.13180933590E+02 -0.82542519876E+01  0.15042950996E+02  0.21637006750E+02  0.51100000000E-03 0. -1.
        -11    1    3    3    0    0 -0.86406746515E+01  0.13774911804E+02  0.51268364255E+00  0.16268752208E+02  0.51100000000E-03 0.  1.
        -12    1    3    3    0    0 -0.91227535275E+01 -0.19724460669E+02 -0.26866598745E+02  0.34555652341E+02  0.00000000000E+00 0.  1.
</event>
<event>
 7    1  0.2153242E-013  0.7246150E+02  0.7816164E-02  0.1226708E+00
        -11   -1    0    0    0    0  0.00000000000E+00  0.00000000000E+00  0.45593999997E+02  0.45594000000E+02  0.51100000000E-03 0.  1.
         11   -1    0    0    0    0 -0.00000000000E+00 -0.00000000000E+00 -0.45593999997E+02  0.45594000000E+02  0.51100000000E-03 0. -1.
    9900012    2    1    2    0    0  0.28399572630E+01  0.46695514523E+01  0.17911213553E+02  0.72461504360E+02  0.69999914108E+02 0.  0.
         12    1    1    2    0    0 -0.28399572630E+01 -0.46695514523E+01 -0.17911213553E+02  0.18726495640E+02  0.00000000000E+00 0. -1.
         11    1    3    3    0    0 -0.13994709106E+02 -0.64395788664E+01  0.18856022418E+02  0.24348914568E+02  0.51100000000E-03 0. -1.
        -11    1    3    3    0    0  0.21970186774E+02 -0.90837725010E+01  0.84843813369E+01  0.25242598057E+02  0.51100000000E-03 0.  1.
         12    1    3    3    0    0 -0.51355204048E+01  0.20192902820E+02 -0.94291902024E+01  0.22869991736E+02  0.00000000000E+00 0. -1.
</event>
<event>
 7    1  0.2153242E-013  0.7246154E+02  0.7816164E-02  0.1226708E+00
        -11   -1    0    0    0    0  0.00000000000E+00  0.00000000000E+00  0.45593999997E+02  0.45594000000E+02  0.51100000000E-03 0.  1.
         11   -1    0    0    0    0 -0.00000000000E+00 -0.00000000000E+00 -0.45593999997E+02  0.45594000000E+02  0.51100000000E-03 0. -1.
    9900012    2    1    2    0    0  0.14602112130E+02 -0.11691470217E+02  0.87642284871E+00  0.72461540871E+02  0.69999961671E+02 0.  0.
         12    1    1    2    0    0 -0.14602112130E+02  0.11691470217E+02 -0.87642284871E+00  0.18726459129E+02  0.00000000000E+00 0. -1.
         11    1    3    3    0    0  0.10839002835E+02 -0.14467139483E+02 -0.29384744496E+01  0.18314386139E+02  0.51100000000E-03 0. -1.
        -11    1    3    3    0    0  0.12134850619E+02 -0.23265745470E+02 -0.14940587599E+01  0.26282726717E+02  0.51100000000E-03 0.  1.
         12    1    3    3    0    0 -0.83717413240E+01  0.26041414736E+02  0.53089560581E+01  0.27864428016E+02  0.00000000000E+00 0. -1.
</event>
<event>
 7    1  0.2153242E-013  0.7246158E+02  0.7816164E-02  0.1226708E+00
        -11   -1    0    0    0    0  0.00000000000E+00  0.00000000000E+00  0.45593999997E+02  0.45594000000E+02  0.51100000000E-03 0.  1.
         11   -1    0    0    0    0 -0.00000000000E+00 -0.00000000000E+00 -0.45593999997E+02  0.45594000000E+02  0.51100000000E-03 0. -1.
    9900012    2    1    2    0    0 -0.11133698416E+02 -0.14781069792E+02  0.28704470350E+01  0.72461582009E+02  0.70000015260E+02 0.  0.
         12    1    1    2    0    0  0.11133698416E+02  0.14781069792E+02 -0.28704470350E+01  0.18726417991E+02  0.00000000000E+00 0. -1.
         11    1    3    3    0    0 -0.37819596479E+02 -0.15536504828E+02  0.28879511280E+01  0.40988353493E+02  0.51100000000E-03 0. -1.
        -11    1    3    3    0    0  0.38955046796E-01 -0.14426957471E+01 -0.41723286743E+01  0.44148856544E+01  0.51100000000E-03 0.  1.
        -12    1    3    3    0    0  0.26646943017E+02  0.21981307829E+01  0.41548245812E+01  0.27058342861E+02  0.00000000000E+00 0.  1.
</event>
<event>
 7    1  0.2153242E-013  0.7246155E+02  0.7816164E-02  0.1226708E+00
        -11   -1    0    0    0    0  0.00000000000E+00  0.00000000000E+00  0.45593999997E+02  0.45594000000E+02  0.51100000000E-03 0.  1.
         11   -1    0    0    0    0 -0.00000000000E+00 -0.00000000000E+00 -0.45593999997E+02  0.45594000000E+02  0.51100000000E-03 0. -1.
    9900012    2    1    2    0    0 -0.82682561643E+01  0.57089065164E+01  0.15802671547E+02  0.72461545407E+02  0.69999967579E+02 0.  0.
         12    1    1    2    0    0  0.82682561643E+01 -0.57089065164E+01 -0.15802671547E+02  0.18726454593E+02  0.00000000000E+00 0. -1.
         11    1    3    3    0    0 -0.26232160972E+02 -0.15343524555E+02  0.14609616318E+02  0.33719295726E+02  0.51100000000E-03 0. -1.
        -11    1    3    3    0    0 -0.28743712053E+01  0.10606272358E+02  0.89532286765E+01  0.14174460383E+02  0.51100000000E-03 0.  1.
        -12    1    3    3    0    0  0.20838276013E+02  0.10446158713E+02 -0.77601734471E+01  0.24567789298E+02  0.00000000000E+00 0.  1.
</event>
<event>
 7    1  0.2561311E-013  0.7246143E+02  0.7816164E-02  0.1226708E+00
        -11   -1    0    0    0    0  0.00000000000E+00  0.00000000000E+00  0.45593999997E+02  0.45594000000E+02  0.51100000000E-03 0. -1.
         11   -1    0    0    0    0 -0.00000000000E+00 -0.00000000000E+00 -0.45593999997E+02  0.45594000000E+02  0.51100000000E-03 0.  1.
    9900012    2    1    2    0    0 -0.12479178972E+01 -0.62196776216E+01 -0.17619385751E+02  0.72461429491E+02  0.69999816578E+02 0.  0.
         12    1    1    2    0    0  0.12479178972E+01  0.62196776216E+01  0.17619385751E+02  0.18726570509E+02  0.00000000000E+00 0. -1.
         11    1    3    3    0    0  0.11416719774E+02 -0.59726723217E+01 -0.20803628583E+01  0.13051521557E+02  0.51100000000E-03 0. -1.
        -11    1    3    3    0    0 -0.93099404502E+01 -0.24444772961E+02 -0.21957126865E+02  0.34151681317E+02  0.51100000000E-03 0.  1.
         12    1    3    3    0    0 -0.33546972212E+01  0.24197767662E+02  0.64181039732E+01  0.25258226617E+02  0.00000000000E+00 0. -1.
</event>
<event>
 7    1  0.2153242E-013  0.7246158E+02  0.7816164E-02  0.1226708E+00
        -11   -1    0    0    0    0  0.00000000000E+00  0.00000000000E+00  0.45593999997E+02  0.45594000000E+02  0.51100000000E-03 0.  1.
         11   -1    0    0    0    0 -0.00000000000E+00 -0.00000000000E+00 -0.45593999997E+02  0.45594000000E+02  0.51100000000E-03 0. -1.
    9900012    2    1    2    0    0  0.73215995332E+01 -0.17200243702E+02  0.11065782251E+01  0.72461582336E+02  0.70000015687E+02 0.  0.
         12    1    1    2    0    0 -0.73215995332E+01  0.17200243702E+02 -0.11065782251E+01  0.18726417664E+02  0.00000000000E+00 0. -1.
         11    1    3    3    0    0  0.49984712044E+01 -0.11520442321E+02  0.76208041186E+01  0.14689518758E+02  0.51100000000E-03 0. -1.
        -11    1    3    3    0    0  0.17958111653E+02  0.18469948251E+02  0.59172407523E+01  0.26431922006E+02  0.51100000000E-03 0.  1.
         12    1    3    3    0    0 -0.15634983324E+02 -0.24149749632E+02 -0.12431466646E+02  0.31340141573E+02  0.00000000000E+00 0. -1.
</event>
<event>
 7    1  0.2153242E-013  0.7246161E+02  0.7816164E-02  0.1226708E+00
        -11   -1    0    0    0    0  0.00000000000E+00  0.00000000000E+00  0.45593999997E+02  0.45594000000E+02  0.51100000000E-03 0. -1.
         11   -1    0    0    0    0 -0.00000000000E+00 -0.00000000000E+00 -0.45593999997E+02  0.45594000000E+02  0.51100000000E-03 0.  1.
    9900012    2    1    2    0    0  0.14726696888E+01  0.11356831228E+02 -0.14816593490E+02  0.72461606482E+02  0.70000047141E+02 0.  0.
         12    1    1    2    0    0 -0.14726696888E+01 -0.11356831228E+02  0.14816593490E+02  0.18726393518E+02  0.00000000000E+00 0. -1.
         11    1    3    3    0    0  0.23789019439E+02  0.35815785294E+01  0.55923744363E+01  0.24698578961E+02  0.51100000000E-03 0. -1.
        -11    1    3    3    0    0 -0.22656712933E+01 -0.80339921653E+01  0.65657176557E+01  0.10620119826E+02  0.51100000000E-03 0.  1.
        -12    1    3    3    0    0 -0.20050678457E+02  0.15809244864E+02 -0.26974685582E+02  0.37142907694E+02  0.00000000000E+00 0.  1.
</event>
<event>
 7    1  0.2153242E-013  0.7246169E+02  0.7816164E-02  0.1226708E+00
        -11   -1    0    0    0    0  0.00000000000E+00  0.00000000000E+00  0.45593999997E+02  0.45594000000E+02  0.51100000000E-03 0.  1.
         11   -1    0    0    0    0 -0.00000000000E+00 -0.00000000000E+00 -0.45593999997E+02  0.45594000000E+02  0.51100000000E-03 0. -1.
    9900012    2    1    2    0    0 -0.18709927921E+02  0.75331430557E-01  0.77950445443E+00  0.72461689503E+02  0.70000155291E+02 0.  0.
         12    1    1    2    0    0  0.18709927921E+02 -0.75331430557E-01 -0.77950445443E+00  0.18726310497E+02  0.00000000000E+00 0. -1.
         11    1    3    3    0    0  0.10023008525E+01 -0.87562601193E+01  0.41434825207E+01  0.97388472591E+01  0.51100000000E-03 0. -1.
        -11    1    3    3    0    0 -0.35854237023E+02 -0.57144225611E+00  0.12744052556E+02  0.38056060418E+02  0.51100000000E-03 0.  1.
         12    1    3    3    0    0  0.16142008249E+02  0.94030338060E+01 -0.16108030623E+02  0.24666781825E+02  0.00000000000E+00 0. -1.
</event>
<event>
 7    1  0.2153242E-013  0.7246144E+02  0.7816164E-02  0.1226708E+00
        -11   -1    0    0    0    0  0.00000000000E+00  0.00000000000E+00  0.45593999997E+02  0.45594000000E+02  0.51100000000E-03 0. -1.
         11   -1    0    0    0    0 -0.00000000000E+00 -0.00000000000E+00 -0.45593999997E+02  0.45594000000E+02  0.51100000000E-03 0.  1.
    9900012    2    1    2    0    0  0.14480052657E+02 -0.79321766554E+01 -0.88370082558E+01  0.72461439548E+02  0.69999829679E+02 0.  0.
         12    1    1    2    0    0 -0.14480052657E+02  0.79321766554E+01  0.88370082558E+01  0.18726560452E+02  0.00000000000E+00 0. -1.
         11    1    3    3    0    0 -0.94897343461E+01 -0.85607622037E+01 -0.84993779858E+00  0.12808750993E+02  0.51100000000E-03 0. -1.
        -11    1    3    3    0    0  0.65946509030E+01 -0.11707942849E+01  0.23068688647E+02  0.24021335848E+02  0.51100000000E-03 0.  1.
        -12    1    3    3    0    0  0.17375136100E+02  0.17993798332E+01 -0.31055759104E+02  0.35631352708E+02  0.00000000000E+00 0.  1.
</event>
<event>
 7    1  0.2153242E-013  0.7246150E+02  0.7816164E-02  0.1226708E+00
        -11   -1    0    0    0    0  0.00000000000E+00  0.00000000000E+00  0.45593999997E+02  0.45594000000E+02  0.51100000000E-03 0.  1.
         11   -1    0    0    0    0 -0.00000000000E+00 -0.00000000000E+00 -0.45593999997E+02  0.45594000000E+02  0.51100000000E-03 0. -1.
    9900012    2    1    2    0    0 -0.44409911292E+01 -0.14110387926E+02  0.11482867488E+02  0.72461502853E+02  0.69999912145E+02 0.  0.
         12    1    1    2    0    0  0.44409911292E+01  0.14110387926E+02 -0.11482867488E+02  0.18726497147E+02  0.00000000000E+00 0. -1.
         11    1    3    3    0    0  0.14411676939E+02  0.33156897473E+01 -0.79667825148E+01  0.16797614551E+02  0.51100000000E-03 0. -1.
        -11    1    3    3    0    0 -0.38127753752E+01 -0.24031189421E+02 -0.62879421108E+01  0.25131126861E+02  0.51100000000E-03 0.  1.
         12    1    3    3    0    0 -0.15039892693E+02  0.66051117473E+01  0.25737592114E+02  0.30532761441E+02  0.00000000000E+00 0. -1.
</event>
<event>
 7    1  0.2153242E-013  0.7246157E+02  0.7816164E-02  0.1226708E+00
        -11   -1    0    0    0    0  0.00000000000E+00  0.00000000000E+00  0.45593999997E+02  0.45594000000E+02  0.51100000000E-03 0. -1.
         11   -1    0    0    0    0 -0.00000000000E+00 -0.00000000000E+00 -0.45593999997E+02  0.45594000000E+02  0.51100000000E-03 0.  1.
    9900012    2    1    2    0    0  0.34874222204E+01 -0.14260009291E+02 -0.11626226402E+02  0.72461571642E+02  0.70000001755E+02 0.  0.
         12    1    1    2    0    0 -0.34874222204E+01  0.14260009291E+02  0.11626226402E+02  0.18726428358E+02  0.00000000000E+00 0. -1.
         11    1    3    3    0    0 -0.31591672561E+01  0.17473501501E+02 -0.10125347643E+02  0.20440798850E+02  0.51100000000E-03 0. -1.
        -11    1    3    3    0    0  0.14230303765E+02 -0.57190376604E+01 -0.15255901877E+02  0.21632186189E+02  0.51100000000E-03 0.  1.
         12    1    3    3    0    0 -0.75837142882E+01 -0.26014473132E+02  0.13755023118E+02  0.30388586602E+02  0.00000000000E+00 0. -1.
</event>
<event>
 7    1  0.2153242E-013  0.7246157E+02  0.7816164E-02  0.1226708E+00
        -11   -1    0    0    0    0  0.00000000000E+00  0.00000000000E+00  0.45593999997E+02  0.45594000000E+02  0.51100000000E-03 0.  1.
         11   -1    0    0    0    0 -0.00000000000E+00 -0.00000000000E+00 -0.45593999997E+02  0.45594000000E+02  0.51100000000E-03 0. -1.
    9900012    2    1    2    0    0 -0.79606195014E+01  0.14351371469E+02  0.90191941552E+01  0.72461569772E+02  0.69999999319E+02 0.  0.
         12    1    1    2    0    0  0.79606195014E+01 -0.14351371469E+02 -0.90191941552E+01  0.18726430228E+02  0.00000000000E+00 0. -1.
         11    1    3    3    0    0 -0.16222994836E+02 -0.38943350365E+01  0.17912946897E+02  0.24479074199E+02  0.51100000000E-03 0. -1.
        -11    1    3    3    0    0 -0.15454891619E+02 -0.12478246394E+01  0.14830401498E+01  0.15575947793E+02  0.51100000000E-03 0.  1.
         12    1    3    3    0    0  0.23717266954E+02  0.19493531145E+02 -0.10376792892E+02  0.32406547780E+02  0.00000000000E+00 0. -1.
</event>
<event>
 7    1  0.2153242E-013  0.7246161E+02  0.7816164E-02  0.1226708E+00
        -11   -1    0    0    0    0  0.00000000000E+00  0.00000000000E+00  0.45593999997E+02  0.45594000000E+02  0.51100000000E-03 0.  1.
         11   -1    0    0    0    0 -0.00000000000E+00 -0.00000000000E+00 -0.45593999997E+02  0.45594000000E+02  0.51100000000E-03 0. -1.
    9900012    2    1    2    0    0  0.77060374105E+01  0.16958730230E+02 -0.19225238623E+01  0.72461611091E+02  0.70000053145E+02 0.  0.
         12    1    1    2    0    0 -0.77060374105E+01 -0.16958730230E+02  0.19225238623E+01  0.18726388909E+02  0.00000000000E+00 0. -1.
         11    1    3    3    0    0  0.24919071193E+01 -0.58058874916E+01  0.68453609718E+01  0.93154118401E+01  0.51100000000E-03 0.  1.
        -11    1    3    3    0    0  0.16144143435E+02  0.12207015321E+02  0.21345611397E+02  0.29415637277E+02  0.51100000000E-03 0. -1.
         12    1    3    3    0    0 -0.10930013144E+02  0.10557602401E+02 -0.30113496231E+02  0.33730561973E+02  0.00000000000E+00 0. -1.
</event>
<event>
 7    1  0.2153242E-013  0.7246159E+02  0.7816164E-02  0.1226708E+00
        -11   -1    0    0    0    0  0.00000000000E+00  0.00000000000E+00  0.45593999997E+02  0.45594000000E+02  0.51100000000E-03 0. -1.
         11   -1    0    0    0    0 -0.00000000000E+00 -0.00000000000E+00 -0.45593999997E+02  0.45594000000E+02  0.51100000000E-03 0.  1.
    9900012    2    1    2    0    0 -0.17246412471E+02 -0.71257066997E+01 -0.15697496128E+01  0.72461586757E+02  0.70000021446E+02 0.  0.
         12    1    1    2    0    0  0.17246412471E+02  0.71257066997E+01  0.15697496128E+01  0.18726413243E+02  0.00000000000E+00 0. -1.
         11    1    3    3    0    0  0.10165497478E+02 -0.93025795604E+01 -0.30304037187E+01  0.14108815415E+02  0.51100000000E-03 0. -1.
        -11    1    3    3    0    0  0.99640937830E+01 -0.14340780407E+02 -0.25610078874E-01  0.17462582963E+02  0.51100000000E-03 0.  1.
         12    1    3    3    0    0 -0.37376003732E+02  0.16517653268E+02  0.14862641848E+01  0.40890188379E+02  0.00000000000E+00 0. -1.
</event>
<event>
 7    1  0.2153242E-013  0.7246161E+02  0.7816164E-02  0.1226708E+00
        -11   -1    0    0    0    0  0.00000000000E+00  0.00000000000E+00  0.45593999997E+02  0.45594000000E+02  0.51100000000E-03 0.  1.
         11   -1    0    0    0    0 -0.00000000000E+00 -0.00000000000E+00 -0.45593999997E+02  0.45594000000E+02  0.51100000000E-03 0. -1.
    9900012    2    1    2    0    0 -0.31250072784E+01  0.43980042096E+01  0.17932360048E+02  0.72461610908E+02  0.70000052907E+02 0.  0.
         12    1    1    2    0    0  0.31250072784E+01 -0.43980042096E+01 -0.17932360048E+02  0.18726389092E+02  0.00000000000E+00 0. -1.
         11    1    3    3    0    0  0.18936379944E+02  0.35428932347E+01  0.63237988518E+01  0.20276316481E+02  0.51100000000E-03 0. -1.
        -11    1    3    3    0    0  0.12461742096E+02  0.81011227790E+01  0.75680394795E+01  0.16679281404E+02  0.51100000000E-03 0.  1.
        -12    1    3    3    0    0 -0.34523129319E+02 -0.72460118041E+01  0.40405217169E+01  0.35506013023E+02  0.00000000000E+00 0.  1.
</event>
<event>
 7    1  0.2153242E-013  0.7246134E+02  0.7816164E-02  0.1226709E+00
        -11   -1    0    0    0    0  0.00000000000E+00  0.00000000000E+00  0.45593999997E+02  0.45594000000E+02  0.51100000000E-03 0. -1.
         11   -1    0    0    0    0 -0.00000000000E+00 -0.00000000000E+00 -0.45593999997E+02  0.45594000000E+02  0.51100000000E-03 0.  1.
    9900012    2    1    2    0    0 -0.77670440229E+01 -0.96453100492E+01 -0.14047380977E+02  0.72461337427E+02  0.69999696647E+02 0.  0.
         12    1    1    2    0    0  0.77670440229E+01  0.96453100492E+01  0.14047380977E+02  0.18726662573E+02  0.00000000000E+00 0. -1.
         11    1    3    3    0    0 -0.20113758038E+01 -0.19909213673E+02 -0.38493828753E+01  0.20377442688E+02  0.51100000000E-03 0. -1.
        -11    1    3    3    0    0 -0.21466608080E+01 -0.19030601537E+02  0.36251504477E+01  0.19491374080E+02  0.51100000000E-03 0.  1.
         12    1    3    3    0    0 -0.36090074111E+01  0.29294505161E+02 -0.13823148549E+02  0.32592520660E+02  0.00000000000E+00 0. -1.
</event>
<event>
 7    1  0.2153242E-013  0.7246157E+02  0.7816164E-02  0.1226708E+00
        -11   -1    0    0    0    0  0.00000000000E+00  0.00000000000E+00  0.45593999997E+02  0.45594000000E+02  0.51100000000E-03 0. -1.
         11   -1    0    0    0    0 -0.00000000000E+00 -0.00000000000E+00 -0.45593999997E+02  0.45594000000E+02  0.51100000000E-03 0.  1.
    9900012    2    1    2    0    0  0.11974713284E+02 -0.14275106418E+02 -0.18726075564E+01  0.72461572671E+02  0.70000003095E+02 0.  0.
         12    1    1    2    0    0 -0.11974713284E+02  0.14275106418E+02  0.18726075564E+01  0.18726427329E+02  0.00000000000E+00 0. -1.
         11    1    3    3    0    0  0.73087889740E+01  0.30539504128E+01  0.82353559729E+01  0.11426552308E+02  0.51100000000E-03 0. -1.
        -11    1    3    3    0    0  0.10890506147E+02 -0.36436044688E+02  0.10626106145E+01  0.38043627827E+02  0.51100000000E-03 0.  1.
        -12    1    3    3    0    0 -0.62245818375E+01  0.19106987857E+02 -0.11170574144E+02  0.22991392536E+02  0.00000000000E+00 0.  1.
</event>
<event>
 7    1  0.2153242E-013  0.7246150E+02  0.7816164E-02  0.1226708E+00
        -11   -1    0    0    0    0  0.00000000000E+00  0.00000000000E+00  0.45593999997E+02  0.45594000000E+02  0.51100000000E-03 0.  1.
         11   -1    0    0    0    0 -0.00000000000E+00 -0.00000000000E+00 -0.45593999997E+02  0.45594000000E+02  0.51100000000E-03 0. -1.
    9900012    2    1    2    0    0 -0.13895434689E+02 -0.11315530193E+02  0.54366723412E+01  0.72461501799E+02  0.69999910772E+02 0.  0.
         12    1    1    2    0    0  0.13895434689E+02  0.11315530193E+02 -0.54366723412E+01  0.18726498201E+02  0.00000000000E+00 0. -1.
         11    1    3    3    0    0 -0.71780205107E+01 -0.54419990601E+01  0.58302272332E+01  0.10729905968E+02  0.51100000000E-03 0. -1.
        -11    1    3    3    0    0 -0.10927276260E+02  0.23604357936E+02  0.13002770061E+02  0.29079943424E+02  0.51100000000E-03 0.  1.
         12    1    3    3    0    0  0.42098620811E+01 -0.29477889068E+02 -0.13396324953E+02  0.32651652407E+02  0.00000000000E+00 0. -1.
</event>
<event>
 7    1  0.2153242E-013  0.7246152E+02  0.7816164E-02  0.1226708E+00
        -11   -1    0    0    0    0  0.00000000000E+00  0.00000000000E+00  0.45593999997E+02  0.45594000000E+02  0.51100000000E-03 0.  1.
         11   -1    0    0    0    0 -0.00000000000E+00 -0.00000000000E+00 -0.45593999997E+02  0.45594000000E+02  0.51100000000E-03 0. -1.
    9900012    2    1    2    0    0  0.48152301078E-01  0.10987523794E+02  0.15164206524E+02  0.72461517221E+02  0.69999930862E+02 0.  0.
         12    1    1    2    0    0 -0.48152301078E-01 -0.10987523794E+02 -0.15164206524E+02  0.18726482779E+02  0.00000000000E+00 0. -1.
         11    1    3    3    0    0  0.15136353042E+02  0.84696298884E+01 -0.23207167655E+02  0.28972684458E+02  0.51100000000E-03 0. -1.
        -11    1    3    3    0    0 -0.55953406261E+01 -0.13202709754E+01  0.26527369914E+01  0.63315058222E+01  0.51100000000E-03 0.  1.
        -12    1    3    3    0    0 -0.94928601148E+01  0.38381648810E+01  0.35718637188E+02  0.37157326941E+02  0.00000000000E+00 0.  1.
</event>
<event>
 7    1  0.2153242E-013  0.7246157E+02  0.7816164E-02  0.1226708E+00
        -11   -1    0    0    0    0  0.00000000000E+00  0.00000000000E+00  0.45593999997E+02  0.45594000000E+02  0.51100000000E-03 0.  1.
         11   -1    0    0    0    0 -0.00000000000E+00 -0.00000000000E+00 -0.45593999997E+02  0.45594000000E+02  0.51100000000E-03 0. -1.
    9900012    2    1    2    0    0 -0.12943716823E+02  0.12771794235E+02  0.44744456087E+01  0.72461569569E+02  0.69999999055E+02 0.  0.
         12    1    1    2    0    0  0.12943716823E+02 -0.12771794235E+02 -0.44744456087E+01  0.18726430431E+02  0.00000000000E+00 0. -1.
         11    1    3    3    0    0 -0.24759021237E+02  0.15674367048E+02 -0.14558038871E+02  0.32720504443E+02  0.51100000000E-03 0. -1.
        -11    1    3    3    0    0 -0.94369370087E+01  0.66899910883E+01  0.60807382956E+01  0.13068555366E+02  0.51100000000E-03 0.  1.
        -12    1    3    3    0    0  0.21252241423E+02 -0.95925639013E+01  0.12951746184E+02  0.26672509760E+02  0.00000000000E+00 0.  1.
</event>
<event>
 7    1  0.2153242E-013  0.7246163E+02  0.7816164E-02  0.1226708E+00
        -11   -1    0    0    0    0  0.00000000000E+00  0.00000000000E+00  0.45593999997E+02  0.45594000000E+02  0.51100000000E-03 0.  1.
         11   -1    0    0    0    0 -0.00000000000E+00 -0.00000000000E+00 -0.45593999997E+02  0.45594000000E+02  0.51100000000E-03 0. -1.
    9900012    2    1    2    0    0  0.89565190572E+01  0.75964806611E+01  0.14585992435E+02  0.72461630160E+02  0.70000077986E+02 0.  0.
         12    1    1    2    0    0 -0.89565190572E+01 -0.75964806611E+01 -0.14585992435E+02  0.18726369840E+02  0.00000000000E+00 0. -1.
         11    1    3    3    0    0 -0.81204804921E+00  0.97679892447E+01  0.22383656939E+01  0.10054019950E+02  0.51100000000E-03 0. -1.
        -11    1    3    3    0    0 -0.25150513011E+02  0.27083082407E+00 -0.39761954305E+00  0.25155113906E+02  0.51100000000E-03 0.  1.
         12    1    3    3    0    0  0.34919080117E+02 -0.24423394076E+01  0.12745246285E+02  0.37252496304E+02  0.00000000000E+00 0. -1.
</event>
<event>
 7    1  0.2153242E-013  0.7246154E+02  0.7816164E-02  0.1226708E+00
        -11   -1    0    0    0    0  0.00000000000E+00  0.00000000000E+00  0.45593999997E+02  0.45594000000E+02  0.51100000000E-03 0. -1.
         11   -1    0    0    0    0 -0.00000000000E+00 -0.00000000000E+00 -0.45593999997E+02  0.45594000000E+02  0.51100000000E-03 0.  1.
    9900012    2    1    2    0    0  0.71270047637E+01 -0.14634908528E+02 -0.92577288713E+01  0.72461540421E+02  0.69999961084E+02 0.  0.
         12    1    1    2    0    0 -0.71270047637E+01  0.14634908528E+02  0.92577288713E+01  0.18726459579E+02  0.00000000000E+00 0. -1.
         11    1    3    3    0    0 -0.78404463027E+01  0.13469902634E+01 -0.19142114875E+02  0.20729388393E+02  0.51100000000E-03 0. -1.
        -11    1    3    3    0    0 -0.13668761001E+02  0.20817693594E+01 -0.50599942034E+01  0.14723190298E+02  0.51100000000E-03 0.  1.
         12    1    3    3    0    0  0.28636212067E+02 -0.18063668150E+02  0.14944380207E+02  0.37008961730E+02  0.00000000000E+00 0. -1.
</event>
<event>
 7    1  0.2153242E-013  0.7246153E+02  0.7816164E-02  0.1226708E+00
        -11   -1    0    0    0    0  0.00000000000E+00  0.00000000000E+00  0.45593999997E+02  0.45594000000E+02  0.51100000000E-03 0.  1.
         11   -1    0    0    0    0 -0.00000000000E+00 -0.00000000000E+00 -0.45593999997E+02  0.45594000000E+02  0.51100000000E-03 0. -1.
    9900012    2    1    2    0    0  0.83604960767E+01 -0.12992051595E+02  0.10582496618E+02  0.72461533863E+02  0.69999952542E+02 0.  0.
         12    1    1    2    0    0 -0.83604960767E+01  0.12992051595E+02 -0.10582496618E+02  0.18726466137E+02  0.00000000000E+00 0. -1.
         11    1    3    3    0    0 -0.12966293063E+02  0.61873864840E+01  0.54007866293E+01  0.15348517967E+02  0.51100000000E-03 0. -1.
        -11    1    3    3    0    0  0.14413202293E+02  0.56417411588E+01 -0.17088695893E+02  0.23056304370E+02  0.51100000000E-03 0.  1.
         12    1    3    3    0    0  0.69135868470E+01 -0.24821179238E+02  0.22270405882E+02  0.34056711526E+02  0.00000000000E+00 0. -1.
</event>
<event>
 7    1  0.2153242E-013  0.7246163E+02  0.7816164E-02  0.1226708E+00
        -11   -1    0    0    0    0  0.00000000000E+00  0.00000000000E+00  0.45593999997E+02  0.45594000000E+02  0.51100000000E-03 0.  1.
         11   -1    0    0    0    0 -0.00000000000E+00 -0.00000000000E+00 -0.45593999997E+02  0.45594000000E+02  0.51100000000E-03 0. -1.
    9900012    2    1    2    0    0 -0.17417506047E+02 -0.58097992000E+01 -0.36815117007E+01  0.72461633239E+02  0.70000081998E+02 0.  0.
         12    1    1    2    0    0  0.17417506047E+02  0.58097992000E+01  0.36815117007E+01  0.18726366761E+02  0.00000000000E+00 0. -1.
         11    1    3    3    0    0 -0.67801992149E+01 -0.36118399904E+01  0.20044780734E+02  0.21466479088E+02  0.51100000000E-03 0. -1.
        -11    1    3    3    0    0 -0.24169322172E+02 -0.12504091245E+02 -0.95079186039E+01  0.28825491297E+02  0.51100000000E-03 0.  1.
         12    1    3    3    0    0  0.13532015339E+02  0.10306132035E+02 -0.14218373831E+02  0.22169662854E+02  0.00000000000E+00 0. -1.
</event>
<event>
 7    1  0.2153242E-013  0.7246125E+02  0.7816164E-02  0.1226709E+00
        -11   -1    0    0    0    0  0.00000000000E+00  0.00000000000E+00  0.45593999997E+02  0.45594000000E+02  0.51100000000E-03 0.  1.
         11   -1    0    0    0    0 -0.00000000000E+00 -0.00000000000E+00 -0.45593999997E+02  0.45594000000E+02  0.51100000000E-03 0. -1.
    9900012    2    1    2    0    0  0.88435227053E+01  0.10624819342E+02 -0.12633148838E+02  0.72461250964E+02  0.69999584012E+02 0.  0.
         12    1    1    2    0    0 -0.88435227053E+01 -0.10624819342E+02  0.12633148838E+02  0.18726749036E+02  0.00000000000E+00 0. -1.
         11    1    3    3    0    0  0.10923522667E+02 -0.12315683963E+02 -0.67150779369E+01  0.17778967655E+02  0.51100000000E-03 0. -1.
        -11    1    3    3    0    0  0.10918400106E+02  0.12685680951E+02 -0.24578200643E+02  0.29735936325E+02  0.51100000000E-03 0.  1.
        -12    1    3    3    0    0 -0.12998400067E+02  0.10254822354E+02  0.18660129742E+02  0.24946346983E+02  0.00000000000E+00 0.  1.
</event>
<event>
 7    1  0.2153242E-013  0.7246157E+02  0.7816164E-02  0.1226708E+00
        -11   -1    0    0    0    0  0.00000000000E+00  0.00000000000E+00  0.45593999997E+02  0.45594000000E+02  0.51100000000E-03 0. -1.
         11   -1    0    0    0    0 -0.00000000000E+00 -0.00000000000E+00 -0.45593999997E+02  0.45594000000E+02  0.51100000000E-03 0.  1.
    9900012    2    1    2    0    0 -0.19395474251E+01 -0.28289887320E+01 -0.18409625917E+02  0.72461565533E+02  0.69999993797E+02 0.  0.
         12    1    1    2    0    0  0.19395474251E+01  0.28289887320E+01  0.18409625917E+02  0.18726434467E+02  0.00000000000E+00 0. -1.
         11    1    3    3    0    0 -0.15365237758E+02 -0.95887795539E+01 -0.18228052626E+02  0.25696247342E+02  0.51100000000E-03 0. -1.
        -11    1    3    3    0    0 -0.13531609172E+01  0.18365814379E+02 -0.14255010061E+02  0.23288183578E+02  0.51100000000E-03 0.  1.
        -12    1    3    3    0    0  0.14778851250E+02 -0.11606023557E+02  0.14073436770E+02  0.23477134612E+02  0.00000000000E+00 0.  1.
</event>
<event>
 7    1  0.2361371E-013  0.7246158E+02  0.7816164E-02  0.1226708E+00
        -11   -1    0    0    0    0  0.00000000000E+00  0.00000000000E+00  0.45593999997E+02  0.45594000000E+02  0.51100000000E-03 0. -1.
         11   -1    0    0    0    0 -0.00000000000E+00 -0.00000000000E+00 -0.45593999997E+02  0.45594000000E+02  0.51100000000E-03 0.  1.
    9900012    2    1    2    0    0  0.41662323330E+01 -0.33839616818E+01 -0.17940739401E+02  0.72461579659E+02  0.70000012200E+02 0.  0.
         12    1    1    2    0    0 -0.41662323330E+01  0.33839616818E+01  0.17940739401E+02  0.18726420341E+02  0.00000000000E+00 0. -1.
         11    1    3    3    0    0 -0.56687484426E+01  0.17032703455E+02 -0.12110507351E+02  0.21654377951E+02  0.51100000000E-03 0. -1.
        -11    1    3    3    0    0  0.43653705039E-01 -0.57577659190E+01 -0.24477995049E+02  0.25146093452E+02  0.51100000000E-03 0.  1.
         12    1    3    3    0    0  0.97913270706E+01 -0.14658899218E+02  0.18647762999E+02  0.25661108256E+02  0.00000000000E+00 0. -1.
</event>
<event>
 7    1  0.2153242E-013  0.7246160E+02  0.7816164E-02  0.1226708E+00
        -11   -1    0    0    0    0  0.00000000000E+00  0.00000000000E+00  0.45593999997E+02  0.45594000000E+02  0.51100000000E-03 0. -1.
         11   -1    0    0    0    0 -0.00000000000E+00 -0.00000000000E+00 -0.45593999997E+02  0.45594000000E+02  0.51100000000E-03 0.  1.
    9900012    2    1    2    0    0 -0.11865407004E+02 -0.97146723457E+01 -0.10747813730E+02  0.72461595056E+02  0.70000032257E+02 0.  0.
         12    1    1    2    0    0  0.11865407004E+02  0.97146723457E+01  0.10747813730E+02  0.18726404944E+02  0.00000000000E+00 0. -1.
         11    1    3    3    0    0 -0.17009482434E+02 -0.99041163940E+01  0.16100820537E+02  0.25429322375E+02  0.51100000000E-03 0. -1.
        -11    1    3    3    0    0  0.54901813117E+01 -0.17441243703E+02 -0.50020845371E+01  0.18956790940E+02  0.51100000000E-03 0.  1.
        -12    1    3    3    0    0 -0.34610588087E+00  0.17630687752E+02 -0.21846549730E+02  0.28075481741E+02  0.00000000000E+00 0.  1.
</event>
<event>
 7    1  0.2153242E-013  0.7246155E+02  0.7816164E-02  0.1226708E+00
        -11   -1    0    0    0    0  0.00000000000E+00  0.00000000000E+00  0.45593999997E+02  0.45594000000E+02  0.51100000000E-03 0.  1.
         11   -1    0    0    0    0 -0.00000000000E+00 -0.00000000000E+00 -0.45593999997E+02  0.45594000000E+02  0.51100000000E-03 0. -1.
    9900012    2    1    2    0    0 -0.70465888397E+01  0.17054439387E+02  0.31893224952E+01  0.72461545583E+02  0.69999967808E+02 0.  0.
         12    1    1    2    0    0  0.70465888397E+01 -0.17054439387E+02 -0.31893224952E+01  0.18726454417E+02  0.00000000000E+00 0. -1.
         11    1    3    3    0    0 -0.50478525797E+00  0.97463242725E+01 -0.13127233102E+01  0.98472781890E+01  0.51100000000E-03 0. -1.
        -11    1    3    3    0    0  0.27006235983E+02  0.75076461363E+01  0.72514785238E+01  0.28953159992E+02  0.51100000000E-03 0.  1.
         12    1    3    3    0    0 -0.33548039564E+02 -0.19953102218E+00 -0.27494327184E+01  0.33661107402E+02  0.00000000000E+00 0. -1.
</event>
<event>
 7    1  0.2153242E-013  0.7246160E+02  0.7816164E-02  0.1226708E+00
        -11   -1    0    0    0    0  0.00000000000E+00  0.00000000000E+00  0.45593999997E+02  0.45594000000E+02  0.51100000000E-03 0. -1.
         11   -1    0    0    0    0 -0.00000000000E+00 -0.00000000000E+00 -0.45593999997E+02  0.45594000000E+02  0.51100000000E-03 0.  1.
    9900012    2    1    2    0    0 -0.16672152527E+02 -0.84425843868E+01 -0.12001334984E+01  0.72461595609E+02  0.70000032977E+02 0.  0.
         12    1    1    2    0    0  0.16672152527E+02  0.84425843868E+01  0.12001334984E+01  0.18726404391E+02  0.00000000000E+00 0. -1.
         11    1    3    3    0    0  0.39087015736E+01 -0.64697672342E+01 -0.67950570633E+01  0.10164085636E+02  0.51100000000E-03 0. -1.
        -11    1    3    3    0    0  0.11172170529E+02 -0.14409731064E+02 -0.13980798023E+02  0.22976519695E+02  0.51100000000E-03 0.  1.
         12    1    3    3    0    0 -0.31753024630E+02  0.12436913912E+02  0.19575721587E+02  0.39320990278E+02  0.00000000000E+00 0. -1.
</event>
<event>
 7    1  0.2153242E-013  0.7246159E+02  0.7816164E-02  0.1226708E+00
        -11   -1    0    0    0    0  0.00000000000E+00  0.00000000000E+00  0.45593999997E+02  0.45594000000E+02  0.51100000000E-03 0.  1.
         11   -1    0    0    0    0 -0.00000000000E+00 -0.00000000000E+00 -0.45593999997E+02  0.45594000000E+02  0.51100000000E-03 0. -1.
    9900012    2    1    2    0    0  0.12507268893E+02  0.11848616065E+02  0.73387397917E+01  0.72461586046E+02  0.70000020520E+02 0.  0.
         12    1    1    2    0    0 -0.12507268893E+02 -0.11848616065E+02 -0.73387397917E+01  0.18726413954E+02  0.00000000000E+00 0. -1.
         11    1    3    3    0    0 -0.23808868561E+01 -0.57350388910E+01  0.64551917815E+01  0.89570527798E+01  0.51100000000E-03 0. -1.
        -11    1    3    3    0    0  0.21634111562E+00 -0.15291261905E+02 -0.17368558837E+02  0.23141657902E+02  0.51100000000E-03 0.  1.
        -12    1    3    3    0    0  0.14671814634E+02  0.32874916861E+02  0.18252106847E+02  0.40362875364E+02  0.00000000000E+00 0.  1.
</event>
<event>
 7    1  0.2153242E-013  0.7246157E+02  0.7816164E-02  0.1226708E+00
        -11   -1    0    0    0    0  0.00000000000E+00  0.00000000000E+00  0.45593999997E+02  0.45594000000E+02  0.51100000000E-03 0. -1.
         11   -1    0    0    0    0 -0.00000000000E+00 -0.00000000000E+00 -0.45593999997E+02  0.45594000000E+02  0.51100000000E-03 0.  1.
    9900012    2    1    2    0    0 -0.74498948033E+01  0.24389629460E+01 -0.17006756011E+02  0.72461568871E+02  0.69999998146E+02 0.  0.
         12    1    1    2    0    0  0.74498948033E+01 -0.24389629460E+01  0.17006756011E+02  0.18726431129E+02  0.00000000000E+00 0. -1.
         11    1    3    3    0    0 -0.11236580851E+02  0.16496075838E+02  0.87361248517E+01  0.21787637434E+02  0.51100000000E-03 0. -1.
        -11    1    3    3    0    0 -0.65764954407E+01 -0.35032522945E+01  0.97214746862E+01  0.12248679082E+02  0.51100000000E-03 0.  1.
        -12    1    3    3    0    0  0.10363181489E+02 -0.10553860597E+02 -0.35464355548E+02  0.38425252355E+02  0.00000000000E+00 0.  1.
</event>
<event>
 7    1  0.2153242E-013  0.7246146E+02  0.7816164E-02  0.1226708E+00
        -11   -1    0    0    0    0  0.00000000000E+00  0.00000000000E+00  0.45593999997E+02  0.45594000000E+02  0.51100000000E-03 0.  1.
         11   -1    0    0    0    0 -0.00000000000E+00 -0.00000000000E+00 -0.45593999997E+02  0.45594000000E+02  0.51100000000E-03 0. -1.
    9900012    2    1    2    0    0  0.56267312890E+01  0.12811346266E+02  0.12445578608E+02  0.72461464682E+02  0.69999862420E+02 0.  0.
         12    1    1    2    0    0 -0.56267312890E+01 -0.12811346266E+02 -0.12445578608E+02  0.18726535318E+02  0.00000000000E+00 0. -1.
         11    1    3    3    0    0 -0.13618858565E+02 -0.14489618316E+02  0.73276232766E+01  0.21192366803E+02  0.51100000000E-03 0. -1.
        -11    1    3    3    0    0  0.15098268206E+02 -0.68686738480E+01  0.20127888055E+01  0.16708910864E+02  0.51100000000E-03 0.  1.
        -12    1    3    3    0    0  0.41473216488E+01  0.34169638430E+02  0.31051665263E+01  0.34560187014E+02  0.00000000000E+00 0.  1.
</event>
<event>
 7    1  0.2153242E-013  0.7246164E+02  0.7816164E-02  0.1226708E+00
        -11   -1    0    0    0    0  0.00000000000E+00  0.00000000000E+00  0.45593999997E+02  0.45594000000E+02  0.51100000000E-03 0.  1.
         11   -1    0    0    0    0 -0.00000000000E+00 -0.00000000000E+00 -0.45593999997E+02  0.45594000000E+02  0.51100000000E-03 0. -1.
    9900012    2    1    2    0    0  0.92119118267E+01  0.92785740127E+01 -0.13406168170E+02  0.72461638896E+02  0.70000089366E+02 0.  0.
         12    1    1    2    0    0 -0.92119118267E+01 -0.92785740127E+01  0.13406168170E+02  0.18726361104E+02  0.00000000000E+00 0. -1.
         11    1    3    3    0    0 -0.69579964495E+00  0.10173874575E+02  0.14795749425E+02  0.17969587150E+02  0.51100000000E-03 0. -1.
        -11    1    3    3    0    0  0.69376024589E+00 -0.13123576383E+02  0.78609392322E+01  0.15313521027E+02  0.51100000000E-03 0.  1.
         12    1    3    3    0    0  0.92139512258E+01  0.12228275820E+02 -0.36062856827E+02  0.39178530719E+02  0.00000000000E+00 0. -1.
</event>
<event>
 7    1  0.2153242E-013  0.7246152E+02  0.7816164E-02  0.1226708E+00
        -11   -1    0    0    0    0  0.00000000000E+00  0.00000000000E+00  0.45593999997E+02  0.45594000000E+02  0.51100000000E-03 0. -1.
         11   -1    0    0    0    0 -0.00000000000E+00 -0.00000000000E+00 -0.45593999997E+02  0.45594000000E+02  0.51100000000E-03 0.  1.
    9900012    2    1    2    0    0 -0.15561186441E+02 -0.10402623294E+02 -0.56216737595E+00  0.72461518029E+02  0.69999931915E+02 0.  0.
         12    1    1    2    0    0  0.15561186441E+02  0.10402623294E+02  0.56216737595E+00  0.18726481971E+02  0.00000000000E+00 0. -1.
         11    1    3    3    0    0 -0.17930562153E+01 -0.59820273433E+01 -0.10921296128E+02  0.12580715842E+02  0.51100000000E-03 0. -1.
        -11    1    3    3    0    0  0.21507058715E+02  0.26900769027E+01 -0.21566006609E+01  0.21781666947E+02  0.51100000000E-03 0.  1.
         12    1    3    3    0    0 -0.35275188941E+02 -0.71106728535E+01  0.12515729413E+02  0.38099135240E+02  0.00000000000E+00 0. -1.
</event>
<event>
 7    1  0.2153242E-013  0.7246153E+02  0.7816164E-02  0.1226708E+00
        -11   -1    0    0    0    0  0.00000000000E+00  0.00000000000E+00  0.45593999997E+02  0.45594000000E+02  0.51100000000E-03 0. -1.
         11   -1    0    0    0    0 -0.00000000000E+00 -0.00000000000E+00 -0.45593999997E+02  0.45594000000E+02  0.51100000000E-03 0.  1.
    9900012    2    1    2    0    0  0.70051369754E+00 -0.15548999068E+02  0.10412424323E+02  0.72461530185E+02  0.69999947750E+02 0.  0.
         12    1    1    2    0    0 -0.70051369754E+00  0.15548999068E+02 -0.10412424323E+02  0.18726469815E+02  0.00000000000E+00 0. -1.
         11    1    3    3    0    0 -0.50022911678E+01  0.21934711678E+02 -0.24755144883E+00  0.22499239438E+02  0.51100000000E-03 0. -1.
        -11    1    3    3    0    0  0.72969677519E+01 -0.78505288789E+01 -0.93064846734E+01  0.14194618674E+02  0.51100000000E-03 0.  1.
         12    1    3    3    0    0 -0.15941628865E+01 -0.29633181867E+02  0.19966460445E+02  0.35767672073E+02  0.00000000000E+00 0. -1.
</event>
<event>
 7    1  0.2153242E-013  0.7246145E+02  0.7816164E-02  0.1226708E+00
        -11   -1    0    0    0    0  0.00000000000E+00  0.00000000000E+00  0.45593999997E+02  0.45594000000E+02  0.51100000000E-03 0.  1.
         11   -1    0    0    0    0 -0.00000000000E+00 -0.00000000000E+00 -0.45593999997E+02  0.45594000000E+02  0.51100000000E-03 0. -1.
    9900012    2    1    2    0    0  0.17487898205E+02 -0.19560040890E+01  0.64055666137E+01  0.72461446145E+02  0.69999838272E+02 0.  0.
         12    1    1    2    0    0 -0.17487898205E+02  0.19560040890E+01 -0.64055666137E+01  0.18726553855E+02  0.00000000000E+00 0. -1.
         11    1    3    3    0    0  0.17127788698E+02 -0.18981492183E+02  0.11191678771E+02  0.27908992550E+02  0.51100000000E-03 0. -1.
        -11    1    3    3    0    0  0.10438504270E+02 -0.32649666256E+01 -0.15915139832E+02  0.19310982745E+02  0.51100000000E-03 0.  1.
         12    1    3    3    0    0 -0.10078394762E+02  0.20290454720E+02  0.11129027674E+02  0.25241470850E+02  0.00000000000E+00 0. -1.
</event>
<event>
 7    1  0.2153242E-013  0.7246157E+02  0.7816164E-02  0.1226708E+00
        -11   -1    0    0    0    0  0.00000000000E+00  0.00000000000E+00  0.45593999997E+02  0.45594000000E+02  0.51100000000E-03 0.  1.
         11   -1    0    0    0    0 -0.00000000000E+00 -0.00000000000E+00 -0.45593999997E+02  0.45594000000E+02  0.51100000000E-03 0. -1.
    9900012    2    1    2    0    0  0.77782520754E+01  0.16028728544E+02  0.57669738424E+01  0.72461565972E+02  0.69999994370E+02 0.  0.
         12    1    1    2    0    0 -0.77782520754E+01 -0.16028728544E+02 -0.57669738424E+01  0.18726434028E+02  0.00000000000E+00 0. -1.
         11    1    3    3    0    0  0.98944220068E+01  0.21233175590E+02 -0.63413055847E+01  0.24268487577E+02  0.51100000000E-03 0. -1.
        -11    1    3    3    0    0 -0.10775977205E+02 -0.14269816898E+02 -0.11641705534E+02  0.21337260064E+02  0.51100000000E-03 0.  1.
        -12    1    3    3    0    0  0.86598072740E+01  0.90653698518E+01  0.23749984961E+02  0.26855818331E+02  0.00000000000E+00 0.  1.
</event>
<event>
 7    1  0.2153242E-013  0.7246163E+02  0.7816164E-02  0.1226708E+00
        -11   -1    0    0    0    0  0.00000000000E+00  0.00000000000E+00  0.45593999997E+02  0.45594000000E+02  0.51100000000E-03 0. -1.
         11   -1    0    0    0    0 -0.00000000000E+00 -0.00000000000E+00 -0.45593999997E+02  0.45594000000E+02  0.51100000000E-03 0.  1.
    9900012    2    1    2    0    0  0.20175409167E+01  0.18356342257E+02 -0.31066611890E+01  0.72461625119E+02  0.70000071420E+02 0.  0.
         12    1    1    2    0    0 -0.20175409167E+01 -0.18356342257E+02  0.31066611890E+01  0.18726374881E+02  0.00000000000E+00 0. -1.
         11    1    3    3    0    0  0.12270665820E+02  0.19795345311E+02  0.58304874754E+00  0.23297314905E+02  0.51100000000E-03 0. -1.
        -11    1    3    3    0    0 -0.67953884246E+01  0.23166374343E+02 -0.27609362261E+01  0.24299814262E+02  0.51100000000E-03 0.  1.
         12    1    3    3    0    0 -0.34577364786E+01 -0.24605377397E+02 -0.92877371052E+00  0.24864495953E+02  0.00000000000E+00 0. -1.
</event>
<event>
 7    1  0.2153242E-013  0.7246156E+02  0.7816164E-02  0.1226708E+00
        -11   -1    0    0    0    0  0.00000000000E+00  0.00000000000E+00  0.45593999997E+02  0.45594000000E+02  0.51100000000E-03 0. -1.
         11   -1    0    0    0    0 -0.00000000000E+00 -0.00000000000E+00 -0.45593999997E+02  0.45594000000E+02  0.51100000000E-03 0.  1.
    9900012    2    1    2    0    0 -0.43086809180E+01 -0.45765954157E+01 -0.17640001456E+02  0.72461558581E+02  0.69999984741E+02 0.  0.
         12    1    1    2    0    0  0.43086809180E+01  0.45765954157E+01  0.17640001456E+02  0.18726441419E+02  0.00000000000E+00 0. -1.
         11    1    3    3    0    0 -0.24155496885E+02 -0.39692522578E+01  0.10544649375E+02  0.26653941996E+02  0.51100000000E-03 0. -1.
        -11    1    3    3    0    0 -0.17816978398E+01 -0.13052815149E+01  0.54117819034E+01  0.58451339297E+01  0.51100000000E-03 0.  1.
        -12    1    3    3    0    0  0.21628513806E+02  0.69793835702E+00 -0.33596432735E+02  0.39962482655E+02  0.00000000000E+00 0.  1.
</event>
<event>
 7    1  0.2153242E-013  0.7246156E+02  0.7816164E-02  0.1226708E+00
        -11   -1    0    0    0    0  0.00000000000E+00  0.00000000000E+00  0.45593999997E+02  0.45594000000E+02  0.51100000000E-03 0.  1.
         11   -1    0    0    0    0 -0.00000000000E+00 -0.00000000000E+00 -0.45593999997E+02  0.45594000000E+02  0.51100000000E-03 0. -1.
    9900012    2    1    2    0    0  0.13762292572E+02  0.82430067164E+01  0.96608421674E+01  0.72461555384E+02  0.69999980577E+02 0.  0.
         12    1    1    2    0    0 -0.13762292572E+02 -0.82430067164E+01 -0.96608421674E+01  0.18726444616E+02  0.00000000000E+00 0. -1.
         11    1    3    3    0    0 -0.14433527091E+02 -0.52534268970E-01 -0.10371596451E+02  0.17773561189E+02  0.51100000000E-03 0. -1.
        -11    1    3    3    0    0  0.14772168560E+02 -0.25614988562E+01 -0.11394404222E+02  0.18831109584E+02  0.51100000000E-03 0.  1.
        -12    1    3    3    0    0  0.13423651104E+02  0.10857039842E+02  0.31426842840E+02  0.35856884610E+02  0.00000000000E+00 0.  1.
</event>
<event>
 7    1  0.2153242E-013  0.7246157E+02  0.7816164E-02  0.1226708E+00
        -11   -1    0    0    0    0  0.00000000000E+00  0.00000000000E+00  0.45593999997E+02  0.45594000000E+02  0.51100000000E-03 0.  1.
         11   -1    0    0    0    0 -0.00000000000E+00 -0.00000000000E+00 -0.45593999997E+02  0.45594000000E+02  0.51100000000E-03 0. -1.
    9900012    2    1    2    0    0  0.41032473049E+01  0.15978684814E+02  0.88613929635E+01  0.72461567022E+02  0.69999995737E+02 0.  0.
         12    1    1    2    0    0 -0.41032473049E+01 -0.15978684814E+02 -0.88613929635E+01  0.18726432978E+02  0.00000000000E+00 0. -1.
         11    1    3    3    0    0 -0.13242518329E+02 -0.36479965435E+01 -0.63667525443E+01  0.15139607283E+02  0.51100000000E-03 0. -1.
        -11    1    3    3    0    0 -0.12910565672E+02 -0.68441641725E+01  0.88780282238E+00  0.14639449556E+02  0.51100000000E-03 0.  1.
        -12    1    3    3    0    0  0.30256331306E+02  0.26470845530E+02  0.14340342685E+02  0.42682510183E+02  0.00000000000E+00 0.  1.
</event>
<event>
 7    1  0.2153242E-013  0.7246151E+02  0.7816164E-02  0.1226708E+00
        -11   -1    0    0    0    0  0.00000000000E+00  0.00000000000E+00  0.45593999997E+02  0.45594000000E+02  0.51100000000E-03 0. -1.
         11   -1    0    0    0    0 -0.00000000000E+00 -0.00000000000E+00 -0.45593999997E+02  0.45594000000E+02  0.51100000000E-03 0.  1.
    9900012    2    1    2    0    0 -0.16537831537E+02  0.47167883469E+01 -0.74117041141E+01  0.72461512819E+02  0.69999925128E+02 0.  0.
         12    1    1    2    0    0  0.16537831537E+02 -0.47167883469E+01  0.74117041141E+01  0.18726487181E+02  0.00000000000E+00 0. -1.
         11    1    3    3    0    0 -0.62361092693E+01  0.29096310184E+02  0.97724015048E+01  0.31320666605E+02  0.51100000000E-03 0. -1.
        -11    1    3    3    0    0  0.28519788778E+01  0.40496642182E+01  0.80509496756E+00  0.50181412861E+01  0.51100000000E-03 0.  1.
        -12    1    3    3    0    0 -0.13153701146E+02 -0.28429186055E+02 -0.17989200587E+02  0.36122704928E+02  0.00000000000E+00 0.  1.
</event>
<event>
 7    1  0.2153242E-013  0.7246154E+02  0.7816164E-02  0.1226708E+00
        -11   -1    0    0    0    0  0.00000000000E+00  0.00000000000E+00  0.45593999997E+02  0.45594000000E+02  0.51100000000E-03 0.  1.
         11   -1    0    0    0    0 -0.00000000000E+00 -0.00000000000E+00 -0.45593999997E+02  0.45594000000E+02  0.51100000000E-03 0. -1.
    9900012    2    1    2    0    0  0.10060969661E+02  0.34204846510E+01  0.15419387360E+02  0.72461539247E+02  0.69999959555E+02 0.  0.
         12    1    1    2    0    0 -0.10060969661E+02 -0.34204846510E+01 -0.15419387360E+02  0.18726460753E+02  0.00000000000E+00 0. -1.
         11    1    3    3    0    0 -0.21303292351E+01 -0.52998087821E+01 -0.87706538062E+01  0.10466644363E+02  0.51100000000E-03 0. -1.
        -11    1    3    3    0    0 -0.15504781667E+02 -0.10615135265E+02  0.20826194380E+02  0.28050128767E+02  0.51100000000E-03 0.  1.
         12    1    3    3    0    0  0.27696080563E+02  0.19335428698E+02  0.33638467866E+01  0.33944766116E+02  0.00000000000E+00 0. -1.
</event>
<event>
 7    1  0.2153242E-013  0.7246155E+02  0.7816164E-02  0.1226708E+00
        -11   -1    0    0    0    0  0.00000000000E+00  0.00000000000E+00  0.45593999997E+02  0.45594000000E+02  0.51100000000E-03 0. -1.
         11   -1    0    0    0    0 -0.00000000000E+00 -0.00000000000E+00 -0.45593999997E+02  0.45594000000E+02  0.51100000000E-03 0.  1.
    9900012    2    1    2    0    0  0.13531658676E+02  0.39322928060E+01 -0.12333340223E+02  0.72461548273E+02  0.69999971313E+02 0.  0.
         12    1    1    2    0    0 -0.13531658676E+02 -0.39322928060E+01  0.12333340223E+02  0.18726451727E+02  0.00000000000E+00 0. -1.
         11    1    3    3    0    0 -0.86638112273E+01  0.15623088604E+02 -0.41946285413E+01  0.18350406845E+02  0.51100000000E-03 0. -1.
        -11    1    3    3    0    0  0.10248365125E+02  0.50768624158E+01  0.17699601612E+02  0.21073191909E+02  0.51100000000E-03 0.  1.
        -12    1    3    3    0    0  0.11947104778E+02 -0.16767658214E+02 -0.25838313293E+02  0.33037949519E+02  0.00000000000E+00 0.  1.
</event>
<event>
 7    1  0.2153242E-013  0.7246159E+02  0.7816164E-02  0.1226708E+00
        -11   -1    0    0    0    0  0.00000000000E+00  0.00000000000E+00  0.45593999997E+02  0.45594000000E+02  0.51100000000E-03 0.  1.
         11   -1    0    0    0    0 -0.00000000000E+00 -0.00000000000E+00 -0.45593999997E+02  0.45594000000E+02  0.51100000000E-03 0. -1.
    9900012    2    1    2    0    0 -0.69516664592E+01 -0.14925006281E+02  0.89217123231E+01  0.72461590045E+02  0.70000025729E+02 0.  0.
         12    1    1    2    0    0  0.69516664592E+01  0.14925006281E+02 -0.89217123231E+01  0.18726409955E+02  0.00000000000E+00 0. -1.
         11    1    3    3    0    0 -0.10735009926E+02 -0.55447221680E+00  0.93855546413E+01  0.14270126620E+02  0.51100000000E-03 0. -1.
        -11    1    3    3    0    0 -0.24120510223E+01  0.19962578425E+02  0.90193527331E+01  0.22037950256E+02  0.51100000000E-03 0.  1.
         12    1    3    3    0    0  0.61953944892E+01 -0.34333112489E+02 -0.94831950514E+01  0.36153513169E+02  0.00000000000E+00 0. -1.
</event>
<event>
 7    1  0.2153242E-013  0.7246100E+02  0.7816164E-02  0.1226710E+00
        -11   -1    0    0    0    0  0.00000000000E+00  0.00000000000E+00  0.45593999997E+02  0.45594000000E+02  0.51100000000E-03 0.  1.
         11   -1    0    0    0    0 -0.00000000000E+00 -0.00000000000E+00 -0.45593999997E+02  0.45594000000E+02  0.51100000000E-03 0. -1.
    9900012    2    1    2    0    0 -0.33349301813E+01  0.13946774974E+02  0.12044337553E+02  0.72461004550E+02  0.69999263009E+02 0.  0.
         12    1    1    2    0    0  0.33349301813E+01 -0.13946774974E+02 -0.12044337553E+02  0.18726995450E+02  0.00000000000E+00 0. -1.
         11    1    3    3    0    0 -0.84959134544E+01 -0.14640803964E+01 -0.11987969567E+02  0.14766024903E+02  0.51100000000E-03 0. -1.
        -11    1    3    3    0    0  0.24430332741E+02 -0.18266925014E+01  0.19793879592E+02  0.31495644666E+02  0.51100000000E-03 0.  1.
         12    1    3    3    0    0 -0.19269349468E+02  0.17237547872E+02  0.42384275283E+01  0.26199334981E+02  0.00000000000E+00 0. -1.
</event>
<event>
 7    1  0.2773846E-013  0.7246148E+02  0.7816164E-02  0.1226708E+00
        -11   -1    0    0    0    0  0.00000000000E+00  0.00000000000E+00  0.45593999997E+02  0.45594000000E+02  0.51100000000E-03 0. -1.
         11   -1    0    0    0    0 -0.00000000000E+00 -0.00000000000E+00 -0.45593999997E+02  0.45594000000E+02  0.51100000000E-03 0.  1.
    9900012    2    1    2    0    0 -0.90563603649E+01  0.67093228838E+01 -0.14954928159E+02  0.72461479958E+02  0.69999882321E+02 0.  0.
         12    1    1    2    0    0  0.90563603649E+01 -0.67093228838E+01  0.14954928159E+02  0.18726520042E+02  0.00000000000E+00 0. -1.
         11    1    3    3    0    0  0.34468384274E+01  0.78893540369E+00 -0.74916708156E+01  0.82842166851E+01  0.51100000000E-03 0. -1.
        -11    1    3    3    0    0 -0.12819914691E+02 -0.82244131158E+01 -0.32233602435E+02  0.35651035188E+02  0.51100000000E-03 0.  1.
         12    1    3    3    0    0  0.31671589902E+00  0.14144800596E+02  0.24770345091E+02  0.28526228085E+02  0.00000000000E+00 0. -1.
</event>
<event>
 7    1  0.2153242E-013  0.7246153E+02  0.7816164E-02  0.1226708E+00
        -11   -1    0    0    0    0  0.00000000000E+00  0.00000000000E+00  0.45593999997E+02  0.45594000000E+02  0.51100000000E-03 0. -1.
         11   -1    0    0    0    0 -0.00000000000E+00 -0.00000000000E+00 -0.45593999997E+02  0.45594000000E+02  0.51100000000E-03 0.  1.
    9900012    2    1    2    0    0 -0.44843916853E+01 -0.27698165799E+01 -0.17969386617E+02  0.72461534555E+02  0.69999953443E+02 0.  0.
         12    1    1    2    0    0  0.44843916853E+01  0.27698165799E+01  0.17969386617E+02  0.18726465445E+02  0.00000000000E+00 0. -1.
         11    1    3    3    0    0 -0.13612856816E+02 -0.27737435874E+01 -0.32079100507E+02  0.34958149462E+02  0.51100000000E-03 0. -1.
        -11    1    3    3    0    0 -0.11312502350E+02  0.30412570207E+01 -0.12133457619E+01  0.11776848555E+02  0.51100000000E-03 0.  1.
         12    1    3    3    0    0  0.20440967481E+02 -0.30373300131E+01  0.15323059651E+02  0.25726536538E+02  0.00000000000E+00 0. -1.
</event>
<event>
 7    1  0.2153242E-013  0.7246145E+02  0.7816164E-02  0.1226708E+00
        -11   -1    0    0    0    0  0.00000000000E+00  0.00000000000E+00  0.45593999997E+02  0.45594000000E+02  0.51100000000E-03 0. -1.
         11   -1    0    0    0    0 -0.00000000000E+00 -0.00000000000E+00 -0.45593999997E+02  0.45594000000E+02  0.51100000000E-03 0.  1.
    9900012    2    1    2    0    0  0.86486822644E+01  0.37868153280E+01 -0.16172322803E+02  0.72461449327E+02  0.69999842418E+02 0.  0.
         12    1    1    2    0    0 -0.86486822644E+01 -0.37868153280E+01  0.16172322803E+02  0.18726550673E+02  0.00000000000E+00 0. -1.
         11    1    3    3    0    0  0.92422171965E+01 -0.88688417439E+01 -0.96282850141E+01  0.16024319179E+02  0.51100000000E-03 0. -1.
        -11    1    3    3    0    0 -0.10595741301E+02  0.28719139094E+02 -0.16794878121E+02  0.34915993690E+02  0.51100000000E-03 0.  1.
         12    1    3    3    0    0  0.10002206369E+02 -0.16063482022E+02  0.10250840332E+02  0.21521136458E+02  0.00000000000E+00 0. -1.
</event>
<event>
 7    1  0.2153242E-013  0.7246156E+02  0.7816164E-02  0.1226708E+00
        -11   -1    0    0    0    0  0.00000000000E+00  0.00000000000E+00  0.45593999997E+02  0.45594000000E+02  0.51100000000E-03 0.  1.
         11   -1    0    0    0    0 -0.00000000000E+00 -0.00000000000E+00 -0.45593999997E+02  0.45594000000E+02  0.51100000000E-03 0. -1.
    9900012    2    1    2    0    0 -0.13667087735E+02 -0.64400986899E+01 -0.11064154293E+02  0.72461556971E+02  0.69999982644E+02 0.  0.
         12    1    1    2    0    0  0.13667087735E+02  0.64400986899E+01  0.11064154293E+02  0.18726443029E+02  0.00000000000E+00 0. -1.
         11    1    3    3    0    0 -0.49463620147E+00  0.23144024880E+02 -0.25677789507E+01  0.23291286818E+02  0.51100000000E-03 0. -1.
        -11    1    3    3    0    0  0.27528251429E+00  0.80978895093E+01  0.64947942890E+00  0.81285557609E+01  0.51100000000E-03 0.  1.
        -12    1    3    3    0    0 -0.13447734048E+02 -0.37682013080E+02 -0.91458547713E+01  0.41041714392E+02  0.00000000000E+00 0.  1.
</event>
<event>
 7    1  0.2153242E-013  0.7246153E+02  0.7816164E-02  0.1226708E+00
        -11   -1    0    0    0    0  0.00000000000E+00  0.00000000000E+00  0.45593999997E+02  0.45594000000E+02  0.51100000000E-03 0. -1.
         11   -1    0    0    0    0 -0.00000000000E+00 -0.00000000000E+00 -0.45593999997E+02  0.45594000000E+02  0.51100000000E-03 0.  1.
    9900012    2    1    2    0    0 -0.50721098678E+01 -0.87764059528E+01 -0.15745768435E+02  0.72461526131E+02  0.69999942469E+02 0.  0.
         12    1    1    2    0    0  0.50721098678E+01  0.87764059528E+01  0.15745768435E+02  0.18726473869E+02  0.00000000000E+00 0. -1.
         11    1    3    3    0    0  0.10516338774E+02 -0.10361149031E+02  0.22506702628E+02  0.26916508947E+02  0.51100000000E-03 0. -1.
        -11    1    3    3    0    0 -0.10289141887E+02  0.76694017152E+01 -0.10311989815E+02  0.16462785233E+02  0.51100000000E-03 0.  1.
        -12    1    3    3    0    0 -0.52993067554E+01 -0.60846586371E+01 -0.27940481249E+02  0.29082231950E+02  0.00000000000E+00 0.  1.
</event>
<event>
 7    1  0.2153242E-013  0.7246157E+02  0.7816164E-02  0.1226708E+00
        -11   -1    0    0    0    0  0.00000000000E+00  0.00000000000E+00  0.45593999997E+02  0.45594000000E+02  0.51100000000E-03 0. -1.
         11   -1    0    0    0    0 -0.00000000000E+00 -0.00000000000E+00 -0.45593999997E+02  0.45594000000E+02  0.51100000000E-03 0.  1.
    9900012    2    1    2    0    0  0.17977356287E+02 -0.37743852716E+01  0.36397599719E+01  0.72461570124E+02  0.69999999777E+02 0.  0.
         12    1    1    2    0    0 -0.17977356287E+02  0.37743852716E+01 -0.36397599719E+01  0.18726429876E+02  0.00000000000E+00 0. -1.
         11    1    3    3    0    0  0.74239576753E+00  0.99537970585E+01  0.14436462881E+02  0.17551087947E+02  0.51100000000E-03 0. -1.
        -11    1    3    3    0    0  0.28521224952E+02 -0.23327789053E+02 -0.14567705184E+02  0.39621509934E+02  0.51100000000E-03 0.  1.
         12    1    3    3    0    0 -0.11286264432E+02  0.95996067224E+01  0.37710022747E+01  0.15288972242E+02  0.00000000000E+00 0. -1.
</event>
<event>
 7    1  0.2153242E-013  0.7246156E+02  0.7816164E-02  0.1226708E+00
        -11   -1    0    0    0    0  0.00000000000E+00  0.00000000000E+00  0.45593999997E+02  0.45594000000E+02  0.51100000000E-03 0.  1.
         11   -1    0    0    0    0 -0.00000000000E+00 -0.00000000000E+00 -0.45593999997E+02  0.45594000000E+02  0.51100000000E-03 0. -1.
    9900012    2    1    2    0    0  0.36580768406E+01  0.18356833835E+02  0.56968525416E+00  0.72461563716E+02  0.69999991430E+02 0.  0.
         12    1    1    2    0    0 -0.36580768406E+01 -0.18356833835E+02 -0.56968525416E+00  0.18726436284E+02  0.00000000000E+00 0. -1.
         11    1    3    3    0    0  0.60695023057E+01  0.11939431968E+02  0.12520361838E+02  0.18334349041E+02  0.51100000000E-03 0. -1.
        -11    1    3    3    0    0 -0.60684892380E+01  0.26081957054E+02  0.57831780191E+01  0.27395988642E+02  0.51100000000E-03 0.  1.
         12    1    3    3    0    0  0.36570637728E+01 -0.19664555187E+02 -0.17733854603E+02  0.26731226033E+02  0.00000000000E+00 0. -1.
</event>
<event>
 7    1  0.2153242E-013  0.7246158E+02  0.7816164E-02  0.1226708E+00
        -11   -1    0    0    0    0  0.00000000000E+00  0.00000000000E+00  0.45593999997E+02  0.45594000000E+02  0.51100000000E-03 0. -1.
         11   -1    0    0    0    0 -0.00000000000E+00 -0.00000000000E+00 -0.45593999997E+02  0.45594000000E+02  0.51100000000E-03 0.  1.
    9900012    2    1    2    0    0 -0.50914451864E+01 -0.31475437984E+01 -0.17743984825E+02  0.72461578999E+02  0.70000011339E+02 0.  0.
         12    1    1    2    0    0  0.50914451864E+01  0.31475437984E+01  0.17743984825E+02  0.18726421001E+02  0.00000000000E+00 0. -1.
         11    1    3    3    0    0 -0.62330529019E+00 -0.84957215264E+01 -0.23543638199E+01  0.88379196080E+01  0.51100000000E-03 0. -1.
        -11    1    3    3    0    0  0.10094686876E+02 -0.16670830252E+02 -0.28201116397E+02  0.34280056166E+02  0.51100000000E-03 0.  1.
        -12    1    3    3    0    0 -0.14562826772E+02  0.22019007980E+02  0.12811495393E+02  0.29343603225E+02  0.00000000000E+00 0.  1.
</event>
<event>
 7    1  0.2153242E-013  0.7246151E+02  0.7816164E-02  0.1226708E+00
        -11   -1    0    0    0    0  0.00000000000E+00  0.00000000000E+00  0.45593999997E+02  0.45594000000E+02  0.51100000000E-03 0.  1.
         11   -1    0    0    0    0 -0.00000000000E+00 -0.00000000000E+00 -0.45593999997E+02  0.45594000000E+02  0.51100000000E-03 0. -1.
    9900012    2    1    2    0    0  0.15598954272E+02  0.85375006528E+01  0.58707040208E+01  0.72461509205E+02  0.69999920420E+02 0.  0.
         12    1    1    2    0    0 -0.15598954272E+02 -0.85375006528E+01 -0.58707040208E+01  0.18726490795E+02  0.00000000000E+00 0. -1.
         11    1    3    3    0    0  0.15170908458E+02  0.61999261118E+01  0.15040350014E+02  0.22244272882E+02  0.51100000000E-03 0. -1.
        -11    1    3    3    0    0  0.16786715947E+02  0.18049018742E+02  0.23817353421E+01  0.24763553326E+02  0.51100000000E-03 0.  1.
         12    1    3    3    0    0 -0.16358670132E+02 -0.15711444201E+02 -0.11551381336E+02  0.25453682998E+02  0.00000000000E+00 0. -1.
</event>
<event>
 7    1  0.2153242E-013  0.7246164E+02  0.7816164E-02  0.1226708E+00
        -11   -1    0    0    0    0  0.00000000000E+00  0.00000000000E+00  0.45593999997E+02  0.45594000000E+02  0.51100000000E-03 0. -1.
         11   -1    0    0    0    0 -0.00000000000E+00 -0.00000000000E+00 -0.45593999997E+02  0.45594000000E+02  0.51100000000E-03 0.  1.
    9900012    2    1    2    0    0 -0.13691387772E+02  0.57452796514E+01  0.11411142321E+02  0.72461641399E+02  0.70000092627E+02 0.  0.
         12    1    1    2    0    0  0.13691387772E+02 -0.57452796514E+01 -0.11411142321E+02  0.18726358601E+02  0.00000000000E+00 0. -1.
         11    1    3    3    0    0 -0.50071409187E+01  0.24930558695E+01  0.76141436396E+01  0.94478553849E+01  0.51100000000E-03 0. -1.
        -11    1    3    3    0    0 -0.31835638263E+02  0.16327334843E+02 -0.18736231698E+01  0.35827366506E+02  0.51100000000E-03 0.  1.
         12    1    3    3    0    0  0.23151391410E+02 -0.13075111062E+02  0.56706218508E+01  0.27186419508E+02  0.00000000000E+00 0. -1.
</event>
<event>
 7    1  0.2153242E-013  0.7246162E+02  0.7816164E-02  0.1226708E+00
        -11   -1    0    0    0    0  0.00000000000E+00  0.00000000000E+00  0.45593999997E+02  0.45594000000E+02  0.51100000000E-03 0. -1.
         11   -1    0    0    0    0 -0.00000000000E+00 -0.00000000000E+00 -0.45593999997E+02  0.45594000000E+02  0.51100000000E-03 0.  1.
    9900012    2    1    2    0    0  0.96015117596E+01  0.15410729241E+01 -0.16003543561E+02  0.72461619134E+02  0.70000063623E+02 0.  0.
         12    1    1    2    0    0 -0.96015117596E+01 -0.15410729241E+01  0.16003543561E+02  0.18726380866E+02  0.00000000000E+00 0. -1.
         11    1    3    3    0    0 -0.16751136875E+02 -0.13369050273E+02 -0.14641682918E+02  0.25955942879E+02  0.51100000000E-03 0. -1.
        -11    1    3    3    0    0 -0.78194724606E+01  0.86401995056E+01 -0.15983315511E+01  0.11762306792E+02  0.51100000000E-03 0.  1.
         12    1    3    3    0    0  0.34172121095E+02  0.62699236916E+01  0.23647090851E+00  0.34743369464E+02  0.00000000000E+00 0. -1.
</event>
<event>
 7    1  0.2153242E-013  0.7246143E+02  0.7816164E-02  0.1226708E+00
        -11   -1    0    0    0    0  0.00000000000E+00  0.00000000000E+00  0.45593999997E+02  0.45594000000E+02  0.51100000000E-03 0.  1.
         11   -1    0    0    0    0 -0.00000000000E+00 -0.00000000000E+00 -0.45593999997E+02  0.45594000000E+02  0.51100000000E-03 0. -1.
    9900012    2    1    2    0    0  0.45644336122E+01 -0.15388064651E+01  0.18096475561E+02  0.72461430446E+02  0.69999817821E+02 0.  0.
         12    1    1    2    0    0 -0.45644336122E+01  0.15388064651E+01 -0.18096475561E+02  0.18726569554E+02  0.00000000000E+00 0. -1.
         11    1    3    3    0    0  0.97920946584E+01 -0.12304898608E+01  0.66286498890E+01  0.11888575302E+02  0.51100000000E-03 0. -1.
        -11    1    3    3    0    0  0.61667198484E+01 -0.27486234763E+02  0.13081718627E+02  0.31058861821E+02  0.51100000000E-03 0.  1.
         12    1    3    3    0    0 -0.11394380895E+02  0.27177918158E+02 -0.16138929551E+01  0.29513993323E+02  0.00000000000E+00 0. -1.
</event>
<event>
 7    1  0.2153242E-013  0.7246150E+02  0.7816164E-02  0.1226708E+00
        -11   -1    0    0    0    0  0.00000000000E+00  0.00000000000E+00  0.45593999997E+02  0.45594000000E+02  0.51100000000E-03 0. -1.
         11   -1    0    0    0    0 -0.00000000000E+00 -0.00000000000E+00 -0.45593999997E+02  0.45594000000E+02  0.51100000000E-03 0.  1.
    9900012    2    1    2    0    0 -0.10665473614E+02 -0.25582174053E+01 -0.15178437018E+02  0.72461501288E+02  0.69999910106E+02 0.  0.
         12    1    1    2    0    0  0.10665473614E+02  0.25582174053E+01  0.15178437018E+02  0.18726498712E+02  0.00000000000E+00 0. -1.
         11    1    3    3    0    0 -0.80448282880E+01  0.12158193531E+02  0.18977339232E+02  0.23930740412E+02  0.51100000000E-03 0. -1.
        -11    1    3    3    0    0 -0.10320478764E+01 -0.12680016228E+02  0.14743999811E+01  0.12807099200E+02  0.51100000000E-03 0.  1.
        -12    1    3    3    0    0 -0.15885974499E+01 -0.20363947081E+01 -0.35630176230E+02  0.35723661675E+02  0.00000000000E+00 0.  1.
</event>
<event>
 7    1  0.2153242E-013  0.7246158E+02  0.7816164E-02  0.1226708E+00
        -11   -1    0    0    0    0  0.00000000000E+00  0.00000000000E+00  0.45593999997E+02  0.45594000000E+02  0.51100000000E-03 0. -1.
         11   -1    0    0    0    0 -0.00000000000E+00 -0.00000000000E+00 -0.45593999997E+02  0.45594000000E+02  0.51100000000E-03 0.  1.
    9900012    2    1    2    0    0  0.11306805733E+02 -0.32622930817E+01 -0.14566823882E+02  0.72461580960E+02  0.70000013894E+02 0.  0.
         12    1    1    2    0    0 -0.11306805733E+02  0.32622930817E+01  0.14566823882E+02  0.18726419040E+02  0.00000000000E+00 0. -1.
         11    1    3    3    0    0  0.21542521868E+02  0.19051982370E+02  0.60119627423E+01  0.29380299129E+02  0.51100000000E-03 0. -1.
        -11    1    3    3    0    0 -0.73313318346E+00  0.53730844328E+01 -0.11029275560E+02  0.12290339305E+02  0.51100000000E-03 0.  1.
         12    1    3    3    0    0 -0.95025829513E+01 -0.27687359884E+02 -0.95495110642E+01  0.30790942526E+02  0.00000000000E+00 0. -1.
</event>
<event>
 7    1  0.2153242E-013  0.7246136E+02  0.7816164E-02  0.1226709E+00
        -11   -1    0    0    0    0  0.00000000000E+00  0.00000000000E+00  0.45593999997E+02  0.45594000000E+02  0.51100000000E-03 0. -1.
         11   -1    0    0    0    0 -0.00000000000E+00 -0.00000000000E+00 -0.45593999997E+02  0.45594000000E+02  0.51100000000E-03 0.  1.
    9900012    2    1    2    0    0 -0.47224395518E+01 -0.10487432280E+02 -0.14778339294E+02  0.72461361662E+02  0.69999728218E+02 0.  0.
         12    1    1    2    0    0  0.47224395518E+01  0.10487432280E+02  0.14778339294E+02  0.18726638338E+02  0.00000000000E+00 0. -1.
         11    1    3    3    0    0 -0.71495090425E+01 -0.30941743843E+02 -0.22460084197E+02  0.38896817016E+02  0.51100000000E-03 0. -1.
        -11    1    3    3    0    0 -0.72245527189E+00 -0.41450821176E+01 -0.43047990516E+01  0.60195467037E+01  0.51100000000E-03 0.  1.
        -12    1    3    3    0    0  0.31495247626E+01  0.24599393680E+02  0.11986543955E+02  0.27544997943E+02  0.00000000000E+00 0.  1.
</event>
<event>
 7    1  0.2153242E-013  0.7246157E+02  0.7816164E-02  0.1226708E+00
        -11   -1    0    0    0    0  0.00000000000E+00  0.00000000000E+00  0.45593999997E+02  0.45594000000E+02  0.51100000000E-03 0.  1.
         11   -1    0    0    0    0 -0.00000000000E+00 -0.00000000000E+00 -0.45593999997E+02  0.45594000000E+02  0.51100000000E-03 0. -1.
    9900012    2    1    2    0    0  0.13105757938E+02 -0.31915810360E+01  0.12989695329E+02  0.72461567735E+02  0.69999996666E+02 0.  0.
         12    1    1    2    0    0 -0.13105757938E+02  0.31915810360E+01 -0.12989695329E+02  0.18726432265E+02  0.00000000000E+00 0. -1.
         11    1    3    3    0    0  0.89840328542E+01  0.69337686438E+01 -0.91012020828E+01  0.14547229068E+02  0.51100000000E-03 0. -1.
        -11    1    3    3    0    0  0.46473641110E+01 -0.19723655119E+02 -0.11276369230E+02  0.23190020865E+02  0.51100000000E-03 0.  1.
         12    1    3    3    0    0 -0.52563902745E+00  0.95983054394E+01  0.33367266642E+02  0.34724317803E+02  0.00000000000E+00 0. -1.
</event>
<event>
 7    1  0.2153242E-013  0.7246160E+02  0.7816164E-02  0.1226708E+00
        -11   -1    0    0    0    0  0.00000000000E+00  0.00000000000E+00  0.45593999997E+02  0.45594000000E+02  0.51100000000E-03 0. -1.
         11   -1    0    0    0    0 -0.00000000000E+00 -0.00000000000E+00 -0.45593999997E+02  0.45594000000E+02  0.51100000000E-03 0.  1.
    9900012    2    1    2    0    0  0.13460301099E+02  0.11748203497E+02 -0.56105248871E+01  0.72461602039E+02  0.70000041353E+02 0.  0.
         12    1    1    2    0    0 -0.13460301099E+02 -0.11748203497E+02  0.56105248871E+01  0.18726397961E+02  0.00000000000E+00 0. -1.
         11    1    3    3    0    0  0.29161584292E+01  0.35727795516E+01 -0.59050768694E+00  0.46494551614E+01  0.51100000000E-03 0. -1.
        -11    1    3    3    0    0  0.19462274100E+02  0.34223292145E+02 -0.78151199110E+01  0.40138384844E+02  0.51100000000E-03 0.  1.
         12    1    3    3    0    0 -0.89181314301E+01 -0.26047868200E+02  0.27951027108E+01  0.27673762034E+02  0.00000000000E+00 0. -1.
</event>
<event>
 7    1  0.2153242E-013  0.7246160E+02  0.7816164E-02  0.1226708E+00
        -11   -1    0    0    0    0  0.00000000000E+00  0.00000000000E+00  0.45593999997E+02  0.45594000000E+02  0.51100000000E-03 0. -1.
         11   -1    0    0    0    0 -0.00000000000E+00 -0.00000000000E+00 -0.45593999997E+02  0.45594000000E+02  0.51100000000E-03 0.  1.
    9900012    2    1    2    0    0  0.13585372774E+02  0.60947746570E+01 -0.11356477127E+02  0.72461596067E+02  0.70000033573E+02 0.  0.
         12    1    1    2    0    0 -0.13585372774E+02 -0.60947746570E+01  0.11356477127E+02  0.18726403933E+02  0.00000000000E+00 0. -1.
         11    1    3    3    0    0  0.62102378125E+01  0.14732361439E+02  0.29975566348E+01  0.16266372469E+02  0.51100000000E-03 0. -1.
        -11    1    3    3    0    0  0.25229506144E+02 -0.81840968518E+01  0.78862544438E+01  0.27671292542E+02  0.51100000000E-03 0.  1.
        -12    1    3    3    0    0 -0.17854371182E+02 -0.45348992980E+00 -0.22240288206E+02  0.28523931056E+02  0.00000000000E+00 0.  1.
</event>
<event>
 7    1  0.2153242E-013  0.7246157E+02  0.7816164E-02  0.1226708E+00
        -11   -1    0    0    0    0  0.00000000000E+00  0.00000000000E+00  0.45593999997E+02  0.45594000000E+02  0.51100000000E-03 0.  1.
         11   -1    0    0    0    0 -0.00000000000E+00 -0.00000000000E+00 -0.45593999997E+02  0.45594000000E+02  0.51100000000E-03 0. -1.
    9900012    2    1    2    0    0  0.13379157120E+02  0.13006996792E+02 -0.15796502543E+01  0.72461571998E+02  0.70000002219E+02 0.  0.
         12    1    1    2    0    0 -0.13379157120E+02 -0.13006996792E+02  0.15796502543E+01  0.18726428002E+02  0.00000000000E+00 0. -1.
         11    1    3    3    0    0 -0.88270173351E+01 -0.19431332559E+02 -0.12834877873E+02  0.24904357256E+02  0.51100000000E-03 0. -1.
        -11    1    3    3    0    0 -0.26310874133E+01 -0.16531503627E+01 -0.15557290941E+01  0.34750281112E+01  0.51100000000E-03 0.  1.
        -12    1    3    3    0    0  0.24837261868E+02  0.34091479714E+02  0.12810956713E+02  0.44082186630E+02  0.00000000000E+00 0.  1.
</event>
<event>
 7    1  0.2153242E-013  0.7246161E+02  0.7816164E-02  0.1226708E+00
        -11   -1    0    0    0    0  0.00000000000E+00  0.00000000000E+00  0.45593999997E+02  0.45594000000E+02  0.51100000000E-03 0.  1.
         11   -1    0    0    0    0 -0.00000000000E+00 -0.00000000000E+00 -0.45593999997E+02  0.45594000000E+02  0.51100000000E-03 0. -1.
    9900012    2    1    2    0    0  0.85492489143E+01  0.45099865838E+01  0.16038959116E+02  0.72461605646E+02  0.70000046052E+02 0.  0.
         12    1    1    2    0    0 -0.85492489143E+01 -0.45099865838E+01 -0.16038959116E+02  0.18726394354E+02  0.00000000000E+00 0. -1.
         11    1    3    3    0    0  0.79415918538E+01 -0.39755541563E+01 -0.30083070677E+01  0.93767704300E+01  0.51100000000E-03 0. -1.
        -11    1    3    3    0    0  0.54200115847E+00 -0.19922763455E+02  0.27023483433E+02  0.33577952976E+02  0.51100000000E-03 0.  1.
         12    1    3    3    0    0  0.65655901977E-01  0.28408304195E+02 -0.79762172488E+01  0.29506882240E+02  0.00000000000E+00 0. -1.
</event>
<event>
 7    1  0.2153242E-013  0.7246158E+02  0.7816164E-02  0.1226708E+00
        -11   -1    0    0    0    0  0.00000000000E+00  0.00000000000E+00  0.45593999997E+02  0.45594000000E+02  0.51100000000E-03 0. -1.
         11   -1    0    0    0    0 -0.00000000000E+00 -0.00000000000E+00 -0.45593999997E+02  0.45594000000E+02  0.51100000000E-03 0.  1.
    9900012    2    1    2    0    0  0.43261314209E+01 -0.53558967832E+01 -0.17414867916E+02  0.72461583686E+02  0.70000017445E+02 0.  0.
         12    1    1    2    0    0 -0.43261314209E+01  0.53558967832E+01  0.17414867916E+02  0.18726416314E+02  0.00000000000E+00 0. -1.
         11    1    3    3    0    0  0.34113465964E+01  0.14761290018E+01 -0.92627337087E+01  0.99807053083E+01  0.51100000000E-03 0. -1.
        -11    1    3    3    0    0 -0.24950300470E+02  0.13602529727E+02 -0.79824956316E+01  0.29517224553E+02  0.51100000000E-03 0.  1.
         12    1    3    3    0    0  0.25865085294E+02 -0.20434555512E+02 -0.16963857578E+00  0.32963653825E+02  0.00000000000E+00 0. -1.
</event>
<event>
 7    1  0.2153242E-013  0.7246171E+02  0.7816164E-02  0.1226708E+00
        -11   -1    0    0    0    0  0.00000000000E+00  0.00000000000E+00  0.45593999997E+02  0.45594000000E+02  0.51100000000E-03 0.  1.
         11   -1    0    0    0    0 -0.00000000000E+00 -0.00000000000E+00 -0.45593999997E+02  0.45594000000E+02  0.51100000000E-03 0. -1.
    9900012    2    1    2    0    0  0.13387699491E+02 -0.12858817821E+02  0.24686816378E+01  0.72461706121E+02  0.70000176939E+02 0.  0.
         12    1    1    2    0    0 -0.13387699491E+02  0.12858817821E+02 -0.24686816378E+01  0.18726293879E+02  0.00000000000E+00 0. -1.
         11    1    3    3    0    0  0.27157140558E+02 -0.14036203829E+01 -0.30448691943E+00  0.27195094153E+02  0.51100000000E-03 0. -1.
        -11    1    3    3    0    0  0.13143049990E+02  0.45033381951E+01  0.80084396047E+00  0.13916219646E+02  0.51100000000E-03 0.  1.
         12    1    3    3    0    0 -0.26912491057E+02 -0.15958535633E+02  0.19723245968E+01  0.31350392322E+02  0.00000000000E+00 0. -1.
</event>
<event>
 7    1  0.2153242E-013  0.7246162E+02  0.7816164E-02  0.1226708E+00
        -11   -1    0    0    0    0  0.00000000000E+00  0.00000000000E+00  0.45593999997E+02  0.45594000000E+02  0.51100000000E-03 0.  1.
         11   -1    0    0    0    0 -0.00000000000E+00 -0.00000000000E+00 -0.45593999997E+02  0.45594000000E+02  0.51100000000E-03 0. -1.
    9900012    2    1    2    0    0  0.16351104377E+02  0.96834301238E+00  0.90763974590E+01  0.72461620388E+02  0.70000065256E+02 0.  0.
         12    1    1    2    0    0 -0.16351104377E+02 -0.96834301238E+00 -0.90763974590E+01  0.18726379612E+02  0.00000000000E+00 0. -1.
         11    1    3    3    0    0  0.16008657598E+02 -0.23869839418E+00  0.11115462796E+02  0.19490705693E+02  0.51100000000E-03 0. -1.
        -11    1    3    3    0    0  0.25117889765E+02  0.45106626994E+01  0.68828360414E+01  0.26431570072E+02  0.51100000000E-03 0.  1.
         12    1    3    3    0    0 -0.24775442986E+02 -0.33036212929E+01 -0.89219013784E+01  0.26539344622E+02  0.00000000000E+00 0. -1.
</event>
<event>
 7    1  0.2153242E-013  0.7246154E+02  0.7816164E-02  0.1226708E+00
        -11   -1    0    0    0    0  0.00000000000E+00  0.00000000000E+00  0.45593999997E+02  0.45594000000E+02  0.51100000000E-03 0.  1.
         11   -1    0    0    0    0 -0.00000000000E+00 -0.00000000000E+00 -0.45593999997E+02  0.45594000000E+02  0.51100000000E-03 0. -1.
    9900012    2    1    2    0    0  0.17009866932E+02  0.76116928645E+01 -0.18458027158E+01  0.72461536666E+02  0.69999956193E+02 0.  0.
         12    1    1    2    0    0 -0.17009866932E+02 -0.76116928645E+01  0.18458027158E+01  0.18726463334E+02  0.00000000000E+00 0. -1.
         11    1    3    3    0    0  0.15427840510E+02 -0.65486467315E+01  0.10665026099E+02  0.19865694520E+02  0.51100000000E-03 0. -1.
        -11    1    3    3    0    0 -0.66651816310E+01  0.19552081005E+02  0.13570234069E+02  0.24715577492E+02  0.51100000000E-03 0.  1.
         12    1    3    3    0    0  0.82472080532E+01 -0.53917414091E+01 -0.26081062883E+02  0.27880264655E+02  0.00000000000E+00 0. -1.
</event>
<event>
 7    1  0.2153242E-013  0.7246233E+02  0.7816164E-02  0.1226706E+00
        -11   -1    0    0    0    0  0.00000000000E+00  0.00000000000E+00  0.45593999997E+02  0.45594000000E+02  0.51100000000E-03 0.  1.
         11   -1    0    0    0    0 -0.00000000000E+00 -0.00000000000E+00 -0.45593999997E+02  0.45594000000E+02  0.51100000000E-03 0. -1.
    9900012    2    1    2    0    0 -0.15078554819E+02 -0.99659481092E+01 -0.48957087155E+01  0.72462325086E+02  0.70000983250E+02 0.  0.
         12    1    1    2    0    0  0.15078554819E+02  0.99659481092E+01  0.48957087155E+01  0.18725674914E+02  0.00000000000E+00 0. -1.
         11    1    3    3    0    0 -0.76326457370E+01  0.18621464901E+02  0.45259179014E+01  0.20627655444E+02  0.51100000000E-03 0. -1.
        -11    1    3    3    0    0 -0.19643272928E+02 -0.14999402629E+02  0.86104637105E+01  0.26172128995E+02  0.51100000000E-03 0.  1.
         12    1    3    3    0    0  0.12197363846E+02 -0.13588010381E+02 -0.18032090327E+02  0.25662540647E+02  0.00000000000E+00 0. -1.
</event>
<event>
 7    1  0.2153242E-013  0.7246158E+02  0.7816164E-02  0.1226708E+00
        -11   -1    0    0    0    0  0.00000000000E+00  0.00000000000E+00  0.45593999997E+02  0.45594000000E+02  0.51100000000E-03 0.  1.
         11   -1    0    0    0    0 -0.00000000000E+00 -0.00000000000E+00 -0.45593999997E+02  0.45594000000E+02  0.51100000000E-03 0. -1.
    9900012    2    1    2    0    0  0.15509666206E+02  0.87949880639E+01  0.57251526746E+01  0.72461576583E+02  0.70000008192E+02 0.  0.
         12    1    1    2    0    0 -0.15509666206E+02 -0.87949880639E+01 -0.57251526746E+01  0.18726423417E+02  0.00000000000E+00 0. -1.
         11    1    3    3    0    0 -0.69717780924E+01  0.15436513758E+02 -0.15765251900E+01  0.17011086935E+02  0.51100000000E-03 0. -1.
        -11    1    3    3    0    0 -0.15020380022E+02 -0.55628915088E+01  0.80482416691E+01  0.17925729334E+02  0.51100000000E-03 0.  1.
         12    1    3    3    0    0  0.37501824320E+02 -0.10786341856E+01 -0.74656380448E+00  0.37524760313E+02  0.00000000000E+00 0. -1.
</event>
<event>
 7    1  0.2153242E-013  0.7246155E+02  0.7816164E-02  0.1226708E+00
        -11   -1    0    0    0    0  0.00000000000E+00  0.00000000000E+00  0.45593999997E+02  0.45594000000E+02  0.51100000000E-03 0.  1.
         11   -1    0    0    0    0 -0.00000000000E+00 -0.00000000000E+00 -0.45593999997E+02  0.45594000000E+02  0.51100000000E-03 0. -1.
    9900012    2    1    2    0    0  0.16492832898E+02  0.76305053908E+01  0.45212573922E+01  0.72461550311E+02  0.69999973969E+02 0.  0.
         12    1    1    2    0    0 -0.16492832898E+02 -0.76305053908E+01 -0.45212573922E+01  0.18726449689E+02  0.00000000000E+00 0. -1.
         11    1    3    3    0    0 -0.89086946646E+01 -0.10058725666E+02 -0.47528701959E+01  0.14252458666E+02  0.51100000000E-03 0. -1.
        -11    1    3    3    0    0  0.74869557936E+01 -0.13369709513E+02 -0.92015078516E+01  0.17873762517E+02  0.51100000000E-03 0.  1.
        -12    1    3    3    0    0  0.17914571769E+02  0.31058940570E+02  0.18475635440E+02  0.40335329129E+02  0.00000000000E+00 0.  1.
</event>
<event>
 7    1  0.2153242E-013  0.7246146E+02  0.7816164E-02  0.1226708E+00
        -11   -1    0    0    0    0  0.00000000000E+00  0.00000000000E+00  0.45593999997E+02  0.45594000000E+02  0.51100000000E-03 0.  1.
         11   -1    0    0    0    0 -0.00000000000E+00 -0.00000000000E+00 -0.45593999997E+02  0.45594000000E+02  0.51100000000E-03 0. -1.
    9900012    2    1    2    0    0 -0.67331582124E+01  0.13289766491E+02  0.11345931174E+02  0.72461455548E+02  0.69999850522E+02 0.  0.
         12    1    1    2    0    0  0.67331582124E+01 -0.13289766491E+02 -0.11345931174E+02  0.18726544452E+02  0.00000000000E+00 0. -1.
         11    1    3    3    0    0 -0.28294855561E+02  0.20802698709E+02  0.18026953734E+01  0.35165335711E+02  0.51100000000E-03 0. -1.
        -11    1    3    3    0    0  0.22466132040E+01  0.56305692775E+01 -0.65515193811E+01  0.89259726495E+01  0.51100000000E-03 0.  1.
        -12    1    3    3    0    0  0.19315084145E+02 -0.13143501495E+02  0.16094755182E+02  0.28370147187E+02  0.00000000000E+00 0.  1.
</event>
<event>
 7    1  0.2153242E-013  0.7246145E+02  0.7816164E-02  0.1226708E+00
        -11   -1    0    0    0    0  0.00000000000E+00  0.00000000000E+00  0.45593999997E+02  0.45594000000E+02  0.51100000000E-03 0. -1.
         11   -1    0    0    0    0 -0.00000000000E+00 -0.00000000000E+00 -0.45593999997E+02  0.45594000000E+02  0.51100000000E-03 0.  1.
    9900012    2    1    2    0    0  0.46133219609E-01 -0.16852028417E+02 -0.81664252340E+01  0.72461454906E+02  0.69999849685E+02 0.  0.
         12    1    1    2    0    0 -0.46133219609E-01  0.16852028417E+02  0.81664252340E+01  0.18726545094E+02  0.00000000000E+00 0. -1.
         11    1    3    3    0    0  0.38757286719E+01 -0.27143168028E+01 -0.18667091055E+01  0.50865893868E+01  0.51100000000E-03 0. -1.
        -11    1    3    3    0    0  0.13927096569E+02 -0.35729162885E+02 -0.86828774177E+01  0.39318309472E+02  0.51100000000E-03 0.  1.
         12    1    3    3    0    0 -0.17756692021E+02  0.21591451270E+02  0.23831612892E+01  0.28056556047E+02  0.00000000000E+00 0. -1.
</event>
<event>
 7    1  0.2153242E-013  0.7246159E+02  0.7816164E-02  0.1226708E+00
        -11   -1    0    0    0    0  0.00000000000E+00  0.00000000000E+00  0.45593999997E+02  0.45594000000E+02  0.51100000000E-03 0. -1.
         11   -1    0    0    0    0 -0.00000000000E+00 -0.00000000000E+00 -0.45593999997E+02  0.45594000000E+02  0.51100000000E-03 0.  1.
    9900012    2    1    2    0    0 -0.10769802216E+02 -0.13060362136E+02 -0.80072990893E+01  0.72461587167E+02  0.70000021979E+02 0.  0.
         12    1    1    2    0    0  0.10769802216E+02  0.13060362136E+02  0.80072990893E+01  0.18726412833E+02  0.00000000000E+00 0. -1.
         11    1    3    3    0    0 -0.50416233891E+01 -0.40033963144E+01 -0.76973620868E+01  0.10034666502E+02  0.51100000000E-03 0. -1.
        -11    1    3    3    0    0 -0.22577326532E+02 -0.14624387079E+02 -0.21752115024E+02  0.34594260782E+02  0.51100000000E-03 0.  1.
         12    1    3    3    0    0  0.16849147705E+02  0.55674212576E+01  0.21442178022E+02  0.27832659883E+02  0.00000000000E+00 0. -1.
</event>
<event>
 7    1  0.2153242E-013  0.7246156E+02  0.7816164E-02  0.1226708E+00
        -11   -1    0    0    0    0  0.00000000000E+00  0.00000000000E+00  0.45593999997E+02  0.45594000000E+02  0.51100000000E-03 0.  1.
         11   -1    0    0    0    0 -0.00000000000E+00 -0.00000000000E+00 -0.45593999997E+02  0.45594000000E+02  0.51100000000E-03 0. -1.
    9900012    2    1    2    0    0  0.10321690480E+02 -0.10633965387E+02  0.11448191065E+02  0.72461558990E+02  0.69999985275E+02 0.  0.
         12    1    1    2    0    0 -0.10321690480E+02  0.10633965387E+02 -0.11448191065E+02  0.18726441010E+02  0.00000000000E+00 0. -1.
         11    1    3    3    0    0 -0.42605138449E+00 -0.54670672828E+01 -0.21897934044E+01  0.59047048929E+01  0.51100000000E-03 0. -1.
        -11    1    3    3    0    0 -0.20979293558E+02 -0.33055415806E+01 -0.13160305357E+02  0.24985015523E+02  0.51100000000E-03 0.  1.
         12    1    3    3    0    0  0.31727035423E+02 -0.18613565231E+01  0.26798289826E+02  0.41571838575E+02  0.00000000000E+00 0. -1.
</event>
<event>
 7    1  0.2153242E-013  0.7246163E+02  0.7816164E-02  0.1226708E+00
        -11   -1    0    0    0    0  0.00000000000E+00  0.00000000000E+00  0.45593999997E+02  0.45594000000E+02  0.51100000000E-03 0.  1.
         11   -1    0    0    0    0 -0.00000000000E+00 -0.00000000000E+00 -0.45593999997E+02  0.45594000000E+02  0.51100000000E-03 0. -1.
    9900012    2    1    2    0    0  0.13887819469E+02  0.11702746254E+02 -0.45662932713E+01  0.72461632661E+02  0.70000081244E+02 0.  0.
         12    1    1    2    0    0 -0.13887819469E+02 -0.11702746254E+02  0.45662932713E+01  0.18726367339E+02  0.00000000000E+00 0. -1.
         11    1    3    3    0    0  0.34332730466E+00 -0.24966562732E+02  0.52359891368E+01  0.25512011108E+02  0.51100000000E-03 0. -1.
        -11    1    3    3    0    0  0.17939025445E+01 -0.35498786058E+01 -0.32547880108E+00  0.39906968271E+01  0.51100000000E-03 0.  1.
        -12    1    3    3    0    0  0.11750589620E+02  0.40219187592E+02 -0.94768036070E+01  0.42958924725E+02  0.00000000000E+00 0.  1.
</event>
<event>
 7    1  0.2153242E-013  0.7246165E+02  0.7816164E-02  0.1226708E+00
        -11   -1    0    0    0    0  0.00000000000E+00  0.00000000000E+00  0.45593999997E+02  0.45594000000E+02  0.51100000000E-03 0.  1.
         11   -1    0    0    0    0 -0.00000000000E+00 -0.00000000000E+00 -0.45593999997E+02  0.45594000000E+02  0.51100000000E-03 0. -1.
    9900012    2    1    2    0    0 -0.12670348661E+02  0.29871998088E+00  0.13785836243E+02  0.72461648253E+02  0.70000101556E+02 0.  0.
         12    1    1    2    0    0  0.12670348661E+02 -0.29871998088E+00 -0.13785836243E+02  0.18726351747E+02  0.00000000000E+00 0. -1.
         11    1    3    3    0    0 -0.26619878082E+02 -0.11587809557E+02 -0.75564768776E+01  0.29999926374E+02  0.51100000000E-03 0. -1.
        -11    1    3    3    0    0 -0.85960802369E+01 -0.10385785538E+00 -0.83880203438E+00  0.86375326922E+01  0.51100000000E-03 0.  1.
        -12    1    3    3    0    0  0.22545609657E+02  0.11990387393E+02  0.22181115155E+02  0.33824189187E+02  0.00000000000E+00 0.  1.
</event>
<event>
 7    1  0.2153242E-013  0.7246160E+02  0.7816164E-02  0.1226708E+00
        -11   -1    0    0    0    0  0.00000000000E+00  0.00000000000E+00  0.45593999997E+02  0.45594000000E+02  0.51100000000E-03 0.  1.
         11   -1    0    0    0    0 -0.00000000000E+00 -0.00000000000E+00 -0.45593999997E+02  0.45594000000E+02  0.51100000000E-03 0. -1.
    9900012    2    1    2    0    0  0.98754885474E+01  0.93315130174E+01  0.12887034125E+02  0.72461599978E+02  0.70000038669E+02 0.  0.
         12    1    1    2    0    0 -0.98754885474E+01 -0.93315130174E+01 -0.12887034125E+02  0.18726400022E+02  0.00000000000E+00 0. -1.
         11    1    3    3    0    0 -0.21403546318E+01 -0.10511486302E+02  0.17274829678E+02  0.20334507688E+02  0.51100000000E-03 0. -1.
        -11    1    3    3    0    0  0.14607256420E+02  0.11075337410E+02  0.19371156869E+02  0.26669772357E+02  0.51100000000E-03 0.  1.
         12    1    3    3    0    0 -0.25914132408E+01  0.87676619098E+01 -0.23758952423E+02  0.25457319933E+02  0.00000000000E+00 0. -1.
</event>
<event>
 7    1  0.2153242E-013  0.7246154E+02  0.7816164E-02  0.1226708E+00
        -11   -1    0    0    0    0  0.00000000000E+00  0.00000000000E+00  0.45593999997E+02  0.45594000000E+02  0.51100000000E-03 0.  1.
         11   -1    0    0    0    0 -0.00000000000E+00 -0.00000000000E+00 -0.45593999997E+02  0.45594000000E+02  0.51100000000E-03 0. -1.
    9900012    2    1    2    0    0 -0.11714600278E+02  0.73075165836E+01  0.12651026105E+02  0.72461544922E+02  0.69999966948E+02 0.  0.
         12    1    1    2    0    0  0.11714600278E+02 -0.73075165836E+01 -0.12651026105E+02  0.18726455078E+02  0.00000000000E+00 0. -1.
         11    1    3    3    0    0  0.54849965258E+01 -0.13248398205E+02  0.19252299240E+01  0.14467610460E+02  0.51100000000E-03 0. -1.
        -11    1    3    3    0    0 -0.18037097310E+02 -0.13599905545E+02  0.68683921416E+01  0.23610784000E+02  0.51100000000E-03 0.  1.
         12    1    3    3    0    0  0.83750050666E+00  0.34155820334E+02  0.38574040394E+01  0.34383150462E+02  0.00000000000E+00 0. -1.
</event>
<event>
 7    1  0.2153242E-013  0.7246151E+02  0.7816164E-02  0.1226708E+00
        -11   -1    0    0    0    0  0.00000000000E+00  0.00000000000E+00  0.45593999997E+02  0.45594000000E+02  0.51100000000E-03 0. -1.
         11   -1    0    0    0    0 -0.00000000000E+00 -0.00000000000E+00 -0.45593999997E+02  0.45594000000E+02  0.51100000000E-03 0.  1.
    9900012    2    1    2    0    0 -0.24804613324E+01  0.16207419523E+02 -0.90470014481E+01  0.72461511509E+02  0.69999923421E+02 0.  0.
         12    1    1    2    0    0  0.24804613324E+01 -0.16207419523E+02  0.90470014481E+01  0.18726488491E+02  0.00000000000E+00 0. -1.
         11    1    3    3    0    0  0.13217685727E+02  0.36916048342E-01  0.99282348963E+01  0.16531135085E+02  0.51100000000E-03 0. -1.
        -11    1    3    3    0    0  0.98029695064E+01  0.17795301986E+02 -0.22294174654E+02  0.30162911127E+02  0.51100000000E-03 0.  1.
         12    1    3    3    0    0 -0.25501116566E+02 -0.16247985111E+01  0.33189383094E+01  0.25767465297E+02  0.00000000000E+00 0. -1.
</event>
<event>
 7    1  0.2153242E-013  0.7246156E+02  0.7816164E-02  0.1226708E+00
        -11   -1    0    0    0    0  0.00000000000E+00  0.00000000000E+00  0.45593999997E+02  0.45594000000E+02  0.51100000000E-03 0. -1.
         11   -1    0    0    0    0 -0.00000000000E+00 -0.00000000000E+00 -0.45593999997E+02  0.45594000000E+02  0.51100000000E-03 0.  1.
    9900012    2    1    2    0    0  0.41487330095E+01 -0.14439444440E+02 -0.11179007035E+02  0.72461555073E+02  0.69999980171E+02 0.  0.
         12    1    1    2    0    0 -0.41487330095E+01  0.14439444440E+02  0.11179007035E+02  0.18726444927E+02  0.00000000000E+00 0. -1.
         11    1    3    3    0    0  0.18626958156E+02  0.21966492770E+00  0.10289980292E+02  0.21281342004E+02  0.51100000000E-03 0. -1.
        -11    1    3    3    0    0  0.50728957503E+01 -0.10428683982E+02  0.90358325030E+01  0.14701632228E+02  0.51100000000E-03 0.  1.
        -12    1    3    3    0    0 -0.19551120897E+02 -0.42304253865E+01 -0.30504819830E+02  0.36478580840E+02  0.00000000000E+00 0.  1.
</event>
<event>
 7    1  0.2153242E-013  0.7246157E+02  0.7816164E-02  0.1226708E+00
        -11   -1    0    0    0    0  0.00000000000E+00  0.00000000000E+00  0.45593999997E+02  0.45594000000E+02  0.51100000000E-03 0. -1.
         11   -1    0    0    0    0 -0.00000000000E+00 -0.00000000000E+00 -0.45593999997E+02  0.45594000000E+02  0.51100000000E-03 0.  1.
    9900012    2    1    2    0    0 -0.91344734989E+01 -0.10954103218E+01 -0.16310747404E+02  0.72461574534E+02  0.70000005522E+02 0.  0.
         12    1    1    2    0    0  0.91344734989E+01  0.10954103218E+01  0.16310747404E+02  0.18726425466E+02  0.00000000000E+00 0. -1.
         11    1    3    3    0    0 -0.12177467032E+02 -0.26131227318E+02  0.42202682851E+01  0.29136616295E+02  0.51100000000E-03 0. -1.
        -11    1    3    3    0    0  0.11086018360E+02  0.62105187403E+01  0.20214263234E+01  0.12866876495E+02  0.51100000000E-03 0.  1.
        -12    1    3    3    0    0 -0.80430248269E+01  0.18825298256E+02 -0.22552442013E+02  0.30458081744E+02  0.00000000000E+00 0.  1.
</event>
<event>
 7    1  0.2153242E-013  0.7246158E+02  0.7816164E-02  0.1226708E+00
        -11   -1    0    0    0    0  0.00000000000E+00  0.00000000000E+00  0.45593999997E+02  0.45594000000E+02  0.51100000000E-03 0.  1.
         11   -1    0    0    0    0 -0.00000000000E+00 -0.00000000000E+00 -0.45593999997E+02  0.45594000000E+02  0.51100000000E-03 0. -1.
    9900012    2    1    2    0    0 -0.74282639752E+01 -0.14922584534E+02  0.85332366614E+01  0.72461581155E+02  0.70000014148E+02 0.  0.
         12    1    1    2    0    0  0.74282639752E+01  0.14922584534E+02 -0.85332366614E+01  0.18726418845E+02  0.00000000000E+00 0. -1.
         11    1    3    3    0    0 -0.13576165490E+01  0.44601565196E+01 -0.14874978054E+02  0.15588492270E+02  0.51100000000E-03 0. -1.
        -11    1    3    3    0    0  0.18827583061E+02  0.18615418121E+01  0.62939659715E+01  0.19938837222E+02  0.51100000000E-03 0.  1.
        -12    1    3    3    0    0 -0.24898230488E+02 -0.21244282865E+02  0.17114248744E+02  0.36934251663E+02  0.00000000000E+00 0.  1.
</event>
<event>
 7    1  0.2153242E-013  0.7246159E+02  0.7816164E-02  0.1226708E+00
        -11   -1    0    0    0    0  0.00000000000E+00  0.00000000000E+00  0.45593999997E+02  0.45594000000E+02  0.51100000000E-03 0.  1.
         11   -1    0    0    0    0 -0.00000000000E+00 -0.00000000000E+00 -0.45593999997E+02  0.45594000000E+02  0.51100000000E-03 0. -1.
    9900012    2    1    2    0    0  0.31306174790E+01  0.18438096571E+02 -0.95609280853E+00  0.72461593927E+02  0.70000030786E+02 0.  0.
         12    1    1    2    0    0 -0.31306174790E+01 -0.18438096571E+02  0.95609280853E+00  0.18726406073E+02  0.00000000000E+00 0. -1.
         11    1    3    3    0    0  0.10860963728E+02  0.92259076171E+01 -0.57369319929E+01  0.15361975570E+02  0.51100000000E-03 0. -1.
        -11    1    3    3    0    0  0.23492305224E+02 -0.18496872816E+01 -0.42440148933E+00  0.23568832484E+02  0.51100000000E-03 0.  1.
         12    1    3    3    0    0 -0.31222651473E+02  0.11061876235E+02  0.52052406737E+01  0.33530785873E+02  0.00000000000E+00 0. -1.
</event>
<event>
 7    1  0.2153242E-013  0.7246157E+02  0.7816164E-02  0.1226708E+00
        -11   -1    0    0    0    0  0.00000000000E+00  0.00000000000E+00  0.45593999997E+02  0.45594000000E+02  0.51100000000E-03 0.  1.
         11   -1    0    0    0    0 -0.00000000000E+00 -0.00000000000E+00 -0.45593999997E+02  0.45594000000E+02  0.51100000000E-03 0. -1.
    9900012    2    1    2    0    0 -0.13793790871E+02  0.12636192377E+02  0.85848386210E+00  0.72461574315E+02  0.70000005238E+02 0.  0.
         12    1    1    2    0    0  0.13793790871E+02 -0.12636192377E+02 -0.85848386210E+00  0.18726425685E+02  0.00000000000E+00 0. -1.
         11    1    3    3    0    0 -0.15729669719E+02 -0.12334801020E+02 -0.70618851594E+01  0.21200001131E+02  0.51100000000E-03 0. -1.
        -11    1    3    3    0    0  0.40149315763E+01  0.22828475265E+02 -0.15349827600E+02  0.27800650462E+02  0.51100000000E-03 0.  1.
         12    1    3    3    0    0 -0.20790527278E+01  0.21425181322E+01  0.23270196622E+02  0.23460922723E+02  0.00000000000E+00 0. -1.
</event>
<event>
 7    1  0.2619330E-013  0.7246158E+02  0.7816164E-02  0.1226708E+00
        -11   -1    0    0    0    0  0.00000000000E+00  0.00000000000E+00  0.45593999997E+02  0.45594000000E+02  0.51100000000E-03 0. -1.
         11   -1    0    0    0    0 -0.00000000000E+00 -0.00000000000E+00 -0.45593999997E+02  0.45594000000E+02  0.51100000000E-03 0.  1.
    9900012    2    1    2    0    0  0.89416577994E+01  0.80069127621E+01 -0.14374100524E+02  0.72461583844E+02  0.70000017651E+02 0.  0.
         12    1    1    2    0    0 -0.89416577994E+01 -0.80069127621E+01  0.14374100524E+02  0.18726416156E+02  0.00000000000E+00 0. -1.
         11    1    3    3    0    0  0.66610182368E+01 -0.13469103949E+02  0.46955871134E+01  0.15742759089E+02  0.51100000000E-03 0. -1.
        -11    1    3    3    0    0  0.22220184366E+02  0.13033004314E+01 -0.17495108136E+02  0.28311022487E+02  0.51100000000E-03 0.  1.
         12    1    3    3    0    0 -0.19939544804E+02  0.20172716280E+02 -0.15745795011E+01  0.28407802268E+02  0.00000000000E+00 0. -1.
</event>
<event>
 7    1  0.2153242E-013  0.7246151E+02  0.7816164E-02  0.1226708E+00
        -11   -1    0    0    0    0  0.00000000000E+00  0.00000000000E+00  0.45593999997E+02  0.45594000000E+02  0.51100000000E-03 0.  1.
         11   -1    0    0    0    0 -0.00000000000E+00 -0.00000000000E+00 -0.45593999997E+02  0.45594000000E+02  0.51100000000E-03 0. -1.
    9900012    2    1    2    0    0 -0.18260339576E+02 -0.18267681813E+01  0.37288575360E+01  0.72461509086E+02  0.69999920265E+02 0.  0.
         12    1    1    2    0    0  0.18260339576E+02  0.18267681813E+01 -0.37288575360E+01  0.18726490914E+02  0.00000000000E+00 0. -1.
         11    1    3    3    0    0  0.60088327806E+01 -0.53344511434E+01 -0.43245449025E+01  0.91249180413E+01  0.51100000000E-03 0. -1.
        -11    1    3    3    0    0  0.81460981334E+01 -0.79400540479E+01  0.23147387622E+02  0.25791566976E+02  0.51100000000E-03 0.  1.
         12    1    3    3    0    0 -0.32415270490E+02  0.11447737010E+02 -0.15093985184E+02  0.37545024069E+02  0.00000000000E+00 0. -1.
</event>
<event>
 7    1  0.2153242E-013  0.7246157E+02  0.7816164E-02  0.1226708E+00
        -11   -1    0    0    0    0  0.00000000000E+00  0.00000000000E+00  0.45593999997E+02  0.45594000000E+02  0.51100000000E-03 0.  1.
         11   -1    0    0    0    0 -0.00000000000E+00 -0.00000000000E+00 -0.45593999997E+02  0.45594000000E+02  0.51100000000E-03 0. -1.
    9900012    2    1    2    0    0  0.11479785235E+02  0.14710129492E+02  0.15830181466E+01  0.72461566139E+02  0.69999994587E+02 0.  0.
         12    1    1    2    0    0 -0.11479785235E+02 -0.14710129492E+02 -0.15830181466E+01  0.18726433861E+02  0.00000000000E+00 0. -1.
         11    1    3    3    0    0  0.27289386445E+01 -0.10521549836E+02  0.21759230860E+01  0.11085339806E+02  0.51100000000E-03 0. -1.
        -11    1    3    3    0    0 -0.96753263312E+01 -0.13484563289E+02 -0.70193686602E+01  0.18019903533E+02  0.51100000000E-03 0.  1.
        -12    1    3    3    0    0  0.18426172921E+02  0.38716242616E+02  0.64264637207E+01  0.43356322800E+02  0.00000000000E+00 0.  1.
</event>
<event>
 7    1  0.2153242E-013  0.7246150E+02  0.7816164E-02  0.1226708E+00
        -11   -1    0    0    0    0  0.00000000000E+00  0.00000000000E+00  0.45593999997E+02  0.45594000000E+02  0.51100000000E-03 0. -1.
         11   -1    0    0    0    0 -0.00000000000E+00 -0.00000000000E+00 -0.45593999997E+02  0.45594000000E+02  0.51100000000E-03 0.  1.
    9900012    2    1    2    0    0 -0.11382195964E+02 -0.13738392403E+02 -0.56906789059E+01  0.72461504407E+02  0.69999914170E+02 0.  0.
         12    1    1    2    0    0  0.11382195964E+02  0.13738392403E+02  0.56906789059E+01  0.18726495593E+02  0.00000000000E+00 0. -1.
         11    1    3    3    0    0 -0.66385778871E+01 -0.56723395550E+01 -0.94626517320E+01  0.12875866202E+02  0.51100000000E-03 0. -1.
        -11    1    3    3    0    0 -0.33930537683E+01 -0.28274953101E+02 -0.14810357760E+02  0.32098792562E+02  0.51100000000E-03 0.  1.
         12    1    3    3    0    0 -0.13505643083E+01  0.20208900253E+02  0.18582330586E+02  0.27486845643E+02  0.00000000000E+00 0. -1.
</event>
<event>
 7    1  0.2153242E-013  0.7246163E+02  0.7816164E-02  0.1226708E+00
        -11   -1    0    0    0    0  0.00000000000E+00  0.00000000000E+00  0.45593999997E+02  0.45594000000E+02  0.51100000000E-03 0. -1.
         11   -1    0    0    0    0 -0.00000000000E+00 -0.00000000000E+00 -0.45593999997E+02  0.45594000000E+02  0.51100000000E-03 0.  1.
    9900012    2    1    2    0    0 -0.17487960007E+01 -0.10430671772E+02 -0.15453791454E+02  0.72461631656E+02  0.70000079935E+02 0.  0.
         12    1    1    2    0    0  0.17487960007E+01  0.10430671772E+02  0.15453791454E+02  0.18726368344E+02  0.00000000000E+00 0. -1.
         11    1    3    3    0    0  0.19201094876E+02  0.81245205209E+01  0.88467303094E+01  0.22648499190E+02  0.51100000000E-03 0. -1.
        -11    1    3    3    0    0  0.67332984855E+01 -0.13444506141E+02 -0.11278483669E+02  0.18796176420E+02  0.51100000000E-03 0.  1.
        -12    1    3    3    0    0 -0.27683189362E+02 -0.51106861517E+01 -0.13022038094E+02  0.31016956046E+02  0.00000000000E+00 0.  1.
</event>
<event>
 7    1  0.2153242E-013  0.7246156E+02  0.7816164E-02  0.1226708E+00
        -11   -1    0    0    0    0  0.00000000000E+00  0.00000000000E+00  0.45593999997E+02  0.45594000000E+02  0.51100000000E-03 0.  1.
         11   -1    0    0    0    0 -0.00000000000E+00 -0.00000000000E+00 -0.45593999997E+02  0.45594000000E+02  0.51100000000E-03 0. -1.
    9900012    2    1    2    0    0 -0.14757755509E+02  0.52643723507E+01 -0.10255473658E+02  0.72461556027E+02  0.69999981414E+02 0.  0.
         12    1    1    2    0    0  0.14757755509E+02 -0.52643723507E+01  0.10255473658E+02  0.18726443973E+02  0.00000000000E+00 0. -1.
         11    1    3    3    0    0  0.22316223846E+02 -0.12685467594E+01  0.22798983219E+01  0.22468221876E+02  0.51100000000E-03 0. -1.
        -11    1    3    3    0    0 -0.36733731568E+01 -0.63843989088E+00  0.89096119764E+01  0.96582846135E+01  0.51100000000E-03 0.  1.
        -12    1    3    3    0    0 -0.33400606198E+02  0.71713590010E+01 -0.21444983957E+02  0.40335049538E+02  0.00000000000E+00 0.  1.
</event>
<event>
 7    1  0.2153242E-013  0.7246154E+02  0.7816164E-02  0.1226708E+00
        -11   -1    0    0    0    0  0.00000000000E+00  0.00000000000E+00  0.45593999997E+02  0.45594000000E+02  0.51100000000E-03 0.  1.
         11   -1    0    0    0    0 -0.00000000000E+00 -0.00000000000E+00 -0.45593999997E+02  0.45594000000E+02  0.51100000000E-03 0. -1.
    9900012    2    1    2    0    0 -0.19671731001E+01 -0.43190016324E+01  0.18115092389E+02  0.72461544986E+02  0.69999967032E+02 0.  0.
         12    1    1    2    0    0  0.19671731001E+01  0.43190016324E+01 -0.18115092389E+02  0.18726455014E+02  0.00000000000E+00 0. -1.
         11    1    3    3    0    0  0.31779730896E+02 -0.33177004508E+01  0.97814862894E+01  0.33416102502E+02  0.51100000000E-03 0. -1.
        -11    1    3    3    0    0 -0.11244209222E+02  0.70055743215E+01  0.73276654280E+01  0.15139517611E+02  0.51100000000E-03 0.  1.
        -12    1    3    3    0    0 -0.22502694774E+02 -0.80068755031E+01  0.10059406720E+01  0.23905924873E+02  0.00000000000E+00 0.  1.
</event>
<event>
 7    1  0.2423832E-013  0.7246166E+02  0.7816164E-02  0.1226708E+00
        -11   -1    0    0    0    0  0.00000000000E+00  0.00000000000E+00  0.45593999997E+02  0.45594000000E+02  0.51100000000E-03 0. -1.
         11   -1    0    0    0    0 -0.00000000000E+00 -0.00000000000E+00 -0.45593999997E+02  0.45594000000E+02  0.51100000000E-03 0.  1.
    9900012    2    1    2    0    0  0.90536892003E+01  0.32303839074E+01 -0.16070821581E+02  0.72461655599E+02  0.70000111126E+02 0.  0.
         12    1    1    2    0    0 -0.90536892003E+01 -0.32303839074E+01  0.16070821581E+02  0.18726344401E+02  0.00000000000E+00 0. -1.
         11    1    3    3    0    0  0.98940416353E+01  0.18045069119E+02  0.11831336936E+01  0.20613500066E+02  0.51100000000E-03 0. -1.
        -11    1    3    3    0    0 -0.13012843037E+02 -0.13563308049E+02 -0.29213358560E+02  0.34737842877E+02  0.51100000000E-03 0.  1.
         12    1    3    3    0    0  0.12172490602E+02 -0.12513771619E+01  0.11959403286E+02  0.17110312656E+02  0.00000000000E+00 0. -1.
</event>
<event>
 7    1  0.2153242E-013  0.7246156E+02  0.7816164E-02  0.1226708E+00
        -11   -1    0    0    0    0  0.00000000000E+00  0.00000000000E+00  0.45593999997E+02  0.45594000000E+02  0.51100000000E-03 0.  1.
         11   -1    0    0    0    0 -0.00000000000E+00 -0.00000000000E+00 -0.45593999997E+02  0.45594000000E+02  0.51100000000E-03 0. -1.
    9900012    2    1    2    0    0  0.52342989194E+00 -0.13657838814E+02  0.12801139491E+02  0.72461555805E+02  0.69999981125E+02 0.  0.
         12    1    1    2    0    0 -0.52342989194E+00  0.13657838814E+02 -0.12801139491E+02  0.18726444195E+02  0.00000000000E+00 0. -1.
         11    1    3    3    0    0 -0.13762607390E+02  0.28071232385E+01  0.21197803430E+02  0.25429041931E+02  0.51100000000E-03 0. -1.
        -11    1    3    3    0    0 -0.87186679203E+01 -0.14418823847E+02  0.80553451209E+01  0.18676355017E+02  0.51100000000E-03 0.  1.
         12    1    3    3    0    0  0.23004705202E+02 -0.20461382052E+01 -0.16452009059E+02  0.28356158856E+02  0.00000000000E+00 0. -1.
</event>
<event>
 7    1  0.2153242E-013  0.7246147E+02  0.7816164E-02  0.1226708E+00
        -11   -1    0    0    0    0  0.00000000000E+00  0.00000000000E+00  0.45593999997E+02  0.45594000000E+02  0.51100000000E-03 0.  1.
         11   -1    0    0    0    0 -0.00000000000E+00 -0.00000000000E+00 -0.45593999997E+02  0.45594000000E+02  0.51100000000E-03 0. -1.
    9900012    2    1    2    0    0 -0.11100109968E+02 -0.96045623588E+01  0.11628537799E+02  0.72461469335E+02  0.69999868481E+02 0.  0.
         12    1    1    2    0    0  0.11100109968E+02  0.96045623588E+01 -0.11628537799E+02  0.18726530665E+02  0.00000000000E+00 0. -1.
         11    1    3    3    0    0  0.14224054545E+02 -0.66422675792E+01  0.18610634460E+01  0.15808447226E+02  0.51100000000E-03 0. -1.
        -11    1    3    3    0    0  0.11059936944E+01 -0.19719952831E+02  0.15158193250E+02  0.24897200336E+02  0.51100000000E-03 0.  1.
         12    1    3    3    0    0 -0.26430158207E+02  0.16757658052E+02 -0.53907188968E+01  0.31755821773E+02  0.00000000000E+00 0. -1.
</event>
<event>
 7    1  0.2153242E-013  0.7246149E+02  0.7816164E-02  0.1226708E+00
        -11   -1    0    0    0    0  0.00000000000E+00  0.00000000000E+00  0.45593999997E+02  0.45594000000E+02  0.51100000000E-03 0.  1.
         11   -1    0    0    0    0 -0.00000000000E+00 -0.00000000000E+00 -0.45593999997E+02  0.45594000000E+02  0.51100000000E-03 0. -1.
    9900012    2    1    2    0    0 -0.84546085583E+01  0.16660407757E+02  0.12776617302E+01  0.72461494399E+02  0.69999901133E+02 0.  0.
         12    1    1    2    0    0  0.84546085583E+01 -0.16660407757E+02 -0.12776617302E+01  0.18726505601E+02  0.00000000000E+00 0. -1.
         11    1    3    3    0    0 -0.13038393708E+01  0.36875050470E+01 -0.16666962634E+01  0.42515370482E+01  0.51100000000E-03 0. -1.
        -11    1    3    3    0    0 -0.20057365815E+02  0.35574891811E+02 -0.46339630582E+01  0.41101635791E+02  0.51100000000E-03 0.  1.
         12    1    3    3    0    0  0.12906596628E+02 -0.22601989101E+02  0.75783210518E+01  0.27108321560E+02  0.00000000000E+00 0. -1.
</event>
<event>
 7    1  0.2153242E-013  0.7246158E+02  0.7816164E-02  0.1226708E+00
        -11   -1    0    0    0    0  0.00000000000E+00  0.00000000000E+00  0.45593999997E+02  0.45594000000E+02  0.51100000000E-03 0.  1.
         11   -1    0    0    0    0 -0.00000000000E+00 -0.00000000000E+00 -0.45593999997E+02  0.45594000000E+02  0.51100000000E-03 0. -1.
    9900012    2    1    2    0    0 -0.27117395205E+01  0.17755674165E+02  0.52972857461E+01  0.72461581961E+02  0.70000015198E+02 0.  0.
         12    1    1    2    0    0  0.27117395205E+01 -0.17755674165E+02 -0.52972857461E+01  0.18726418039E+02  0.00000000000E+00 0. -1.
         11    1    3    3    0    0 -0.10604658842E+02  0.76634120170E+01  0.10480222978E+02  0.16763703255E+02  0.51100000000E-03 0. -1.
        -11    1    3    3    0    0 -0.38176079402E+01 -0.28366864022E+01  0.22489071194E+02  0.22986501333E+02  0.51100000000E-03 0.  1.
         12    1    3    3    0    0  0.11710527262E+02  0.12928948550E+02 -0.27672008425E+02  0.32711377373E+02  0.00000000000E+00 0. -1.
</event>
<event>
 7    1  0.2153242E-013  0.7246156E+02  0.7816164E-02  0.1226708E+00
        -11   -1    0    0    0    0  0.00000000000E+00  0.00000000000E+00  0.45593999997E+02  0.45594000000E+02  0.51100000000E-03 0.  1.
         11   -1    0    0    0    0 -0.00000000000E+00 -0.00000000000E+00 -0.45593999997E+02  0.45594000000E+02  0.51100000000E-03 0. -1.
    9900012    2    1    2    0    0  0.13592050574E+02 -0.11503835538E+02 -0.57963237669E+01  0.72461563070E+02  0.69999990589E+02 0.  0.
         12    1    1    2    0    0 -0.13592050574E+02  0.11503835538E+02  0.57963237669E+01  0.18726436930E+02  0.00000000000E+00 0. -1.
         11    1    3    3    0    0  0.28225559815E+01 -0.77872218391E+01 -0.59375986073E+01  0.10191306281E+02  0.51100000000E-03 0. -1.
        -11    1    3    3    0    0 -0.52469869402E+01 -0.40642382401E+01  0.28736624231E+02  0.29493092020E+02  0.51100000000E-03 0.  1.
         12    1    3    3    0    0  0.16016481532E+02  0.34762454170E+00 -0.28595349391E+02  0.32777164769E+02  0.00000000000E+00 0. -1.
</event>
<event>
 7    1  0.2153242E-013  0.7246153E+02  0.7816164E-02  0.1226708E+00
        -11   -1    0    0    0    0  0.00000000000E+00  0.00000000000E+00  0.45593999997E+02  0.45594000000E+02  0.51100000000E-03 0. -1.
         11   -1    0    0    0    0 -0.00000000000E+00 -0.00000000000E+00 -0.45593999997E+02  0.45594000000E+02  0.51100000000E-03 0.  1.
    9900012    2    1    2    0    0  0.13574987251E+02  0.41903930074E+01 -0.12200037250E+02  0.72461532599E+02  0.69999950895E+02 0.  0.
         12    1    1    2    0    0 -0.13574987251E+02 -0.41903930074E+01  0.12200037250E+02  0.18726467401E+02  0.00000000000E+00 0. -1.
         11    1    3    3    0    0 -0.30165399853E+01 -0.16292662737E+02 -0.47691923575E+01  0.17242261120E+02  0.51100000000E-03 0. -1.
        -11    1    3    3    0    0  0.26200513738E+02 -0.48576649505E+01 -0.88569155472E+01  0.28080398540E+02  0.51100000000E-03 0.  1.
        -12    1    3    3    0    0 -0.96089865017E+01  0.25340720694E+02  0.14260706551E+01  0.27138872939E+02  0.00000000000E+00 0.  1.
</event>
<event>
 7    1  0.2153242E-013  0.7246162E+02  0.7816164E-02  0.1226708E+00
        -11   -1    0    0    0    0  0.00000000000E+00  0.00000000000E+00  0.45593999997E+02  0.45594000000E+02  0.51100000000E-03 0. -1.
         11   -1    0    0    0    0 -0.00000000000E+00 -0.00000000000E+00 -0.45593999997E+02  0.45594000000E+02  0.51100000000E-03 0.  1.
    9900012    2    1    2    0    0 -0.13489335665E+02 -0.12237004077E+02 -0.43555420842E+01  0.72461623087E+02  0.70000068772E+02 0.  0.
         12    1    1    2    0    0  0.13489335665E+02  0.12237004077E+02  0.43555420842E+01  0.18726376913E+02  0.00000000000E+00 0. -1.
         11    1    3    3    0    0  0.43772584173E+01  0.48346656391E+00 -0.30036749544E+02  0.30357873025E+02  0.51100000000E-03 0. -1.
        -11    1    3    3    0    0 -0.12116527448E+02  0.53413560061E+01  0.52788100522E+01  0.14255039712E+02  0.51100000000E-03 0.  1.
         12    1    3    3    0    0 -0.57500666344E+01 -0.18061826647E+02  0.20402397408E+02  0.27848710349E+02  0.00000000000E+00 0. -1.
</event>
<event>
 7    1  0.2153242E-013  0.7246153E+02  0.7816164E-02  0.1226708E+00
        -11   -1    0    0    0    0  0.00000000000E+00  0.00000000000E+00  0.45593999997E+02  0.45594000000E+02  0.51100000000E-03 0.  1.
         11   -1    0    0    0    0 -0.00000000000E+00 -0.00000000000E+00 -0.45593999997E+02  0.45594000000E+02  0.51100000000E-03 0. -1.
    9900012    2    1    2    0    0  0.89730050161E+01  0.75677464428E+01  0.14590924816E+02  0.72461529638E+02  0.69999947037E+02 0.  0.
         12    1    1    2    0    0 -0.89730050161E+01 -0.75677464428E+01 -0.14590924816E+02  0.18726470362E+02  0.00000000000E+00 0. -1.
         11    1    3    3    0    0 -0.42540005989E+01 -0.84452437051E+01 -0.26630112071E+01  0.98239651508E+01  0.51100000000E-03 0. -1.
        -11    1    3    3    0    0  0.25409046904E+01 -0.44776117108E+01  0.33816154566E+02  0.34205811102E+02  0.51100000000E-03 0.  1.
        -12    1    3    3    0    0  0.10686100925E+02  0.20490601859E+02 -0.16562218542E+02  0.28431753385E+02  0.00000000000E+00 0.  1.
</event>
<event>
 7    1  0.2153242E-013  0.7246172E+02  0.7816164E-02  0.1226708E+00
        -11   -1    0    0    0    0  0.00000000000E+00  0.00000000000E+00  0.45593999997E+02  0.45594000000E+02  0.51100000000E-03 0. -1.
         11   -1    0    0    0    0 -0.00000000000E+00 -0.00000000000E+00 -0.45593999997E+02  0.45594000000E+02  0.51100000000E-03 0.  1.
    9900012    2    1    2    0    0 -0.68719930162E+01 -0.13661404402E+02 -0.10808112073E+02  0.72461720475E+02  0.70000195638E+02 0.  0.
         12    1    1    2    0    0  0.68719930162E+01  0.13661404402E+02  0.10808112073E+02  0.18726279525E+02  0.00000000000E+00 0. -1.
         11    1    3    3    0    0  0.46749806364E+01 -0.64511729362E+01  0.23867045741E+01  0.83168164095E+01  0.51100000000E-03 0. -1.
        -11    1    3    3    0    0 -0.35513421029E+01  0.13308384201E+02  0.20015384336E+02  0.24296928431E+02  0.51100000000E-03 0.  1.
        -12    1    3    3    0    0 -0.79956315496E+01 -0.20518615667E+02 -0.33210200984E+02  0.39847975635E+02  0.00000000000E+00 0.  1.
</event>
<event>
 7    1  0.2153242E-013  0.7246162E+02  0.7816164E-02  0.1226708E+00
        -11   -1    0    0    0    0  0.00000000000E+00  0.00000000000E+00  0.45593999997E+02  0.45594000000E+02  0.51100000000E-03 0. -1.
         11   -1    0    0    0    0 -0.00000000000E+00 -0.00000000000E+00 -0.45593999997E+02  0.45594000000E+02  0.51100000000E-03 0.  1.
    9900012    2    1    2    0    0 -0.39896004021E+01  0.17918656799E+02  0.36989602323E+01  0.72461615414E+02  0.70000058777E+02 0.  0.
         12    1    1    2    0    0  0.39896004021E+01 -0.17918656799E+02 -0.36989602323E+01  0.18726384586E+02  0.00000000000E+00 0. -1.
         11    1    3    3    0    0 -0.31597067848E+01  0.23240328783E+02  0.10324261933E+02  0.25625905128E+02  0.51100000000E-03 0. -1.
        -11    1    3    3    0    0 -0.48431202706E+01  0.12780630646E+02  0.13680521901E+02  0.19337968182E+02  0.51100000000E-03 0.  1.
        -12    1    3    3    0    0  0.40132266534E+01 -0.18102302630E+02 -0.20305823601E+02  0.27497742104E+02  0.00000000000E+00 0.  1.
</event>
<event>
 7    1  0.2153242E-013  0.7246157E+02  0.7816164E-02  0.1226708E+00
        -11   -1    0    0    0    0  0.00000000000E+00  0.00000000000E+00  0.45593999997E+02  0.45594000000E+02  0.51100000000E-03 0. -1.
         11   -1    0    0    0    0 -0.00000000000E+00 -0.00000000000E+00 -0.45593999997E+02  0.45594000000E+02  0.51100000000E-03 0.  1.
    9900012    2    1    2    0    0  0.81481771851E+01 -0.13780503105E+02 -0.97151562831E+01  0.72461566307E+02  0.69999994805E+02 0.  0.
         12    1    1    2    0    0 -0.81481771851E+01  0.13780503105E+02  0.97151562831E+01  0.18726433693E+02  0.00000000000E+00 0. -1.
         11    1    3    3    0    0  0.11805124826E+02  0.18176083921E+02 -0.23500558684E+01  0.21800315633E+02  0.51100000000E-03 0. -1.
        -11    1    3    3    0    0  0.10770164911E+02 -0.23969297488E+02 -0.17251071237E+02  0.31434425927E+02  0.51100000000E-03 0.  1.
         12    1    3    3    0    0 -0.14427112551E+02 -0.79872895375E+01  0.98859708226E+01  0.19226824746E+02  0.00000000000E+00 0. -1.
</event>
<event>
 7    1  0.2153242E-013  0.7246158E+02  0.7816164E-02  0.1226708E+00
        -11   -1    0    0    0    0  0.00000000000E+00  0.00000000000E+00  0.45593999997E+02  0.45594000000E+02  0.51100000000E-03 0. -1.
         11   -1    0    0    0    0 -0.00000000000E+00 -0.00000000000E+00 -0.45593999997E+02  0.45594000000E+02  0.51100000000E-03 0.  1.
    9900012    2    1    2    0    0  0.10169838822E+01 -0.14923918191E+02 -0.11265929434E+02  0.72461581324E+02  0.70000014369E+02 0.  0.
         12    1    1    2    0    0 -0.10169838822E+01  0.14923918191E+02  0.11265929434E+02  0.18726418676E+02  0.00000000000E+00 0. -1.
         11    1    3    3    0    0  0.13266033201E+02  0.88422601613E+01  0.22519850802E+02  0.27591971333E+02  0.51100000000E-03 0. -1.
        -11    1    3    3    0    0 -0.22111685936E+01 -0.20753675731E+01 -0.12505808807E+02  0.12868242743E+02  0.51100000000E-03 0.  1.
        -12    1    3    3    0    0 -0.10037880725E+02 -0.21690810780E+02 -0.21279971429E+02  0.32001367248E+02  0.00000000000E+00 0.  1.
</event>
<event>
 7    1  0.2153242E-013  0.7246157E+02  0.7816164E-02  0.1226708E+00
        -11   -1    0    0    0    0  0.00000000000E+00  0.00000000000E+00  0.45593999997E+02  0.45594000000E+02  0.51100000000E-03 0. -1.
         11   -1    0    0    0    0 -0.00000000000E+00 -0.00000000000E+00 -0.45593999997E+02  0.45594000000E+02  0.51100000000E-03 0.  1.
    9900012    2    1    2    0    0  0.10957925924E+01 -0.14310006589E+02 -0.12029220751E+02  0.72461569431E+02  0.69999998875E+02 0.  0.
         12    1    1    2    0    0 -0.10957925924E+01  0.14310006589E+02  0.12029220751E+02  0.18726430569E+02  0.00000000000E+00 0. -1.
         11    1    3    3    0    0  0.13819549835E+02 -0.20529647264E+02  0.16539622544E+02  0.29765844329E+02  0.51100000000E-03 0.  1.
        -11    1    3    3    0    0 -0.17176548677E+01  0.14253360631E+02 -0.45137413082E+01  0.15049335148E+02  0.51100000000E-03 0. -1.
        -12    1    3    3    0    0 -0.11006102375E+02 -0.80337199561E+01 -0.24055101988E+02  0.27646389954E+02  0.00000000000E+00 0.  1.
</event>
<event>
 7    1  0.2153242E-013  0.7246181E+02  0.7816164E-02  0.1226707E+00
        -11   -1    0    0    0    0  0.00000000000E+00  0.00000000000E+00  0.45593999997E+02  0.45594000000E+02  0.51100000000E-03 0. -1.
         11   -1    0    0    0    0 -0.00000000000E+00 -0.00000000000E+00 -0.45593999997E+02  0.45594000000E+02  0.51100000000E-03 0.  1.
    9900012    2    1    2    0    0 -0.16885666589E+02  0.27734778427E+01 -0.76060667727E+01  0.72461810658E+02  0.70000313118E+02 0.  0.
         12    1    1    2    0    0  0.16885666589E+02 -0.27734778427E+01  0.76060667727E+01  0.18726189342E+02  0.00000000000E+00 0. -1.
         11    1    3    3    0    0 -0.32360613574E+01 -0.10046288420E+02 -0.18258972622E+02  0.21090047075E+02  0.51100000000E-03 0. -1.
        -11    1    3    3    0    0 -0.74446364406E+01 -0.42822603595E+01 -0.16550132484E+02  0.18645837364E+02  0.51100000000E-03 0.  1.
         12    1    3    3    0    0 -0.62049687912E+01  0.17102026623E+02  0.27203038334E+02  0.32725926219E+02  0.00000000000E+00 0. -1.
</event>
<event>
 7    1  0.2153242E-013  0.7246153E+02  0.7816164E-02  0.1226708E+00
        -11   -1    0    0    0    0  0.00000000000E+00  0.00000000000E+00  0.45593999997E+02  0.45594000000E+02  0.51100000000E-03 0. -1.
         11   -1    0    0    0    0 -0.00000000000E+00 -0.00000000000E+00 -0.45593999997E+02  0.45594000000E+02  0.51100000000E-03 0.  1.
    9900012    2    1    2    0    0 -0.14589629196E+02  0.10655517076E+02  0.49278037369E+01  0.72461532797E+02  0.69999951153E+02 0.  0.
         12    1    1    2    0    0  0.14589629196E+02 -0.10655517076E+02 -0.49278037369E+01  0.18726467203E+02  0.00000000000E+00 0. -1.
         11    1    3    3    0    0 -0.14107537126E+02 -0.23241743819E+01  0.47752987050E+01  0.15074079352E+02  0.51100000000E-03 0. -1.
        -11    1    3    3    0    0 -0.20722095403E+02  0.62197759712E+01 -0.18939668960E+02  0.28754163378E+02  0.51100000000E-03 0.  1.
         12    1    3    3    0    0  0.20240003334E+02  0.67599154872E+01  0.19092173992E+02  0.28633290067E+02  0.00000000000E+00 0. -1.
</event>
<event>
 7    1  0.2153242E-013  0.7246159E+02  0.7816164E-02  0.1226708E+00
        -11   -1    0    0    0    0  0.00000000000E+00  0.00000000000E+00  0.45593999997E+02  0.45594000000E+02  0.51100000000E-03 0. -1.
         11   -1    0    0    0    0 -0.00000000000E+00 -0.00000000000E+00 -0.45593999997E+02  0.45594000000E+02  0.51100000000E-03 0.  1.
    9900012    2    1    2    0    0  0.23222312033E+01 -0.16026104922E+02  0.94047576695E+01  0.72461594484E+02  0.70000031511E+02 0.  0.
         12    1    1    2    0    0 -0.23222312033E+01  0.16026104922E+02 -0.94047576695E+01  0.18726405516E+02  0.00000000000E+00 0. -1.
         11    1    3    3    0    0  0.19849528532E+02 -0.15360336814E+02  0.42819064502E+01  0.25461312870E+02  0.51100000000E-03 0.  1.
        -11    1    3    3    0    0  0.58693391978E+00  0.13812095462E+02  0.16203690127E+02  0.21299719399E+02  0.51100000000E-03 0. -1.
         12    1    3    3    0    0 -0.18114231248E+02 -0.14477863570E+02 -0.11080838908E+02  0.25700562215E+02  0.00000000000E+00 0. -1.
</event>
<event>
 7    1  0.2153242E-013  0.7246159E+02  0.7816164E-02  0.1226708E+00
        -11   -1    0    0    0    0  0.00000000000E+00  0.00000000000E+00  0.45593999997E+02  0.45594000000E+02  0.51100000000E-03 0.  1.
         11   -1    0    0    0    0 -0.00000000000E+00 -0.00000000000E+00 -0.45593999997E+02  0.45594000000E+02  0.51100000000E-03 0. -1.
    9900012    2    1    2    0    0  0.13306421223E+02 -0.11463908059E+01  0.13126434076E+02  0.72461592732E+02  0.70000029229E+02 0.  0.
         12    1    1    2    0    0 -0.13306421223E+02  0.11463908059E+01 -0.13126434076E+02  0.18726407268E+02  0.00000000000E+00 0. -1.
         11    1    3    3    0    0 -0.14654126528E+01 -0.16297480644E+02 -0.10472380684E+02  0.19427456525E+02  0.51100000000E-03 0. -1.
        -11    1    3    3    0    0 -0.36805306303E+01  0.40993068223E+01 -0.10995490243E+02  0.12298431937E+02  0.51100000000E-03 0.  1.
        -12    1    3    3    0    0  0.18452364506E+02  0.11051783016E+02  0.34594305003E+02  0.40735704270E+02  0.00000000000E+00 0.  1.
</event>
<event>
 7    1  0.2153242E-013  0.7246155E+02  0.7816164E-02  0.1226708E+00
        -11   -1    0    0    0    0  0.00000000000E+00  0.00000000000E+00  0.45593999997E+02  0.45594000000E+02  0.51100000000E-03 0. -1.
         11   -1    0    0    0    0 -0.00000000000E+00 -0.00000000000E+00 -0.45593999997E+02  0.45594000000E+02  0.51100000000E-03 0.  1.
    9900012    2    1    2    0    0 -0.72348362583E+01 -0.14757858441E+02 -0.89745560379E+01  0.72461550857E+02  0.69999974679E+02 0.  0.
         12    1    1    2    0    0  0.72348362583E+01  0.14757858441E+02  0.89745560379E+01  0.18726449143E+02  0.00000000000E+00 0. -1.
         11    1    3    3    0    0 -0.98750386533E+01 -0.20005990733E+02  0.20657777579E+02  0.30405588769E+02  0.51100000000E-03 0. -1.
        -11    1    3    3    0    0  0.62439875798E+01 -0.59547723964E+01  0.15144030125E+01  0.87601433741E+01  0.51100000000E-03 0.  1.
        -12    1    3    3    0    0 -0.36037851848E+01  0.11202904688E+02 -0.31146736630E+02  0.33295818713E+02  0.00000000000E+00 0.  1.
</event>
<event>
 7    1  0.2153242E-013  0.7246156E+02  0.7816164E-02  0.1226708E+00
        -11   -1    0    0    0    0  0.00000000000E+00  0.00000000000E+00  0.45593999997E+02  0.45594000000E+02  0.51100000000E-03 0. -1.
         11   -1    0    0    0    0 -0.00000000000E+00 -0.00000000000E+00 -0.45593999997E+02  0.45594000000E+02  0.51100000000E-03 0.  1.
    9900012    2    1    2    0    0 -0.13300514576E+02  0.67882426223E+01 -0.11300241504E+02  0.72461564570E+02  0.69999992543E+02 0.  0.
         12    1    1    2    0    0  0.13300514576E+02 -0.67882426223E+01  0.11300241504E+02  0.18726435430E+02  0.00000000000E+00 0. -1.
         11    1    3    3    0    0 -0.60780664771E+00  0.82148141812E+01  0.72819047734E+01  0.10994486725E+02  0.51100000000E-03 0. -1.
        -11    1    3    3    0    0 -0.25760945290E+02 -0.42260715840E+01  0.11517972589E+02  0.28533308187E+02  0.51100000000E-03 0.  1.
        -12    1    3    3    0    0  0.13068237362E+02  0.27995000251E+01 -0.30100118866E+02  0.32933769658E+02  0.00000000000E+00 0.  1.
</event>
<event>
 7    1  0.2153242E-013  0.7246155E+02  0.7816164E-02  0.1226708E+00
        -11   -1    0    0    0    0  0.00000000000E+00  0.00000000000E+00  0.45593999997E+02  0.45594000000E+02  0.51100000000E-03 0.  1.
         11   -1    0    0    0    0 -0.00000000000E+00 -0.00000000000E+00 -0.45593999997E+02  0.45594000000E+02  0.51100000000E-03 0. -1.
    9900012    2    1    2    0    0 -0.15620221807E+02 -0.10281518458E+02 -0.98938841050E+00  0.72461552378E+02  0.69999976661E+02 0.  0.
         12    1    1    2    0    0  0.15620221807E+02  0.10281518458E+02  0.98938841050E+00  0.18726447622E+02  0.00000000000E+00 0. -1.
         11    1    3    3    0    0 -0.76031578124E+01 -0.15728180399E+02 -0.94680092981E+01  0.19870250822E+02  0.51100000000E-03 0. -1.
        -11    1    3    3    0    0 -0.93881137261E+01 -0.22231813070E+02  0.27055330139E+01  0.24283947390E+02  0.51100000000E-03 0.  1.
        -12    1    3    3    0    0  0.13710497316E+01  0.27678475011E+02  0.57730878737E+01  0.28307354166E+02  0.00000000000E+00 0.  1.
</event>
<event>
 7    1  0.2153242E-013  0.7246159E+02  0.7816164E-02  0.1226708E+00
        -11   -1    0    0    0    0  0.00000000000E+00  0.00000000000E+00  0.45593999997E+02  0.45594000000E+02  0.51100000000E-03 0.  1.
         11   -1    0    0    0    0 -0.00000000000E+00 -0.00000000000E+00 -0.45593999997E+02  0.45594000000E+02  0.51100000000E-03 0. -1.
    9900012    2    1    2    0    0  0.25767720615E+01  0.48038888843E+01  0.17915391836E+02  0.72461591713E+02  0.70000027902E+02 0.  0.
         12    1    1    2    0    0 -0.25767720615E+01 -0.48038888843E+01 -0.17915391836E+02  0.18726408287E+02  0.00000000000E+00 0. -1.
         11    1    3    3    0    0  0.19254284925E+02  0.51365465332E+01  0.19851895779E+02  0.28128444048E+02  0.51100000000E-03 0. -1.
        -11    1    3    3    0    0  0.10454735758E+02  0.10257077772E+02 -0.38532652063E+01  0.15144530273E+02  0.51100000000E-03 0.  1.
         12    1    3    3    0    0 -0.27132248621E+02 -0.10589735421E+02  0.19167612635E+01  0.29188617392E+02  0.00000000000E+00 0. -1.
</event>
<event>
 7    1  0.2153242E-013  0.7246157E+02  0.7816164E-02  0.1226708E+00
        -11   -1    0    0    0    0  0.00000000000E+00  0.00000000000E+00  0.45593999997E+02  0.45594000000E+02  0.51100000000E-03 0.  1.
         11   -1    0    0    0    0 -0.00000000000E+00 -0.00000000000E+00 -0.45593999997E+02  0.45594000000E+02  0.51100000000E-03 0. -1.
    9900012    2    1    2    0    0  0.50982082553E+01 -0.11877775097E+02  0.13550131514E+02  0.72461565937E+02  0.69999994324E+02 0.  0.
         12    1    1    2    0    0 -0.50982082553E+01  0.11877775097E+02 -0.13550131514E+02  0.18726434063E+02  0.00000000000E+00 0. -1.
         11    1    3    3    0    0  0.11054814195E+02 -0.20242437162E+02  0.29343569707E+01  0.23250282369E+02  0.51100000000E-03 0. -1.
        -11    1    3    3    0    0 -0.63358270647E+00 -0.15361365037E+02  0.18120254129E+02  0.23763765964E+02  0.51100000000E-03 0.  1.
        -12    1    3    3    0    0 -0.53230232329E+01  0.23726027102E+02 -0.75044795856E+01  0.25447517604E+02  0.00000000000E+00 0.  1.
</event>
<event>
 7    1  0.2153242E-013  0.7246155E+02  0.7816164E-02  0.1226708E+00
        -11   -1    0    0    0    0  0.00000000000E+00  0.00000000000E+00  0.45593999997E+02  0.45594000000E+02  0.51100000000E-03 0. -1.
         11   -1    0    0    0    0 -0.00000000000E+00 -0.00000000000E+00 -0.45593999997E+02  0.45594000000E+02  0.51100000000E-03 0.  1.
    9900012    2    1    2    0    0 -0.10228248287E+02  0.87189211011E+01 -0.13040061850E+02  0.72461551825E+02  0.69999975941E+02 0.  0.
         12    1    1    2    0    0  0.10228248287E+02 -0.87189211011E+01  0.13040061850E+02  0.18726448175E+02  0.00000000000E+00 0. -1.
         11    1    3    3    0    0  0.22735511545E+01 -0.29067023198E+02 -0.22633504636E+01  0.29243522839E+02  0.51100000000E-03 0. -1.
        -11    1    3    3    0    0 -0.29671887003E+01  0.10491838579E+02 -0.91955697198E+01  0.14263288130E+02  0.51100000000E-03 0.  1.
        -12    1    3    3    0    0 -0.95346107410E+01  0.27294105721E+02 -0.15811416665E+01  0.28954740856E+02  0.00000000000E+00 0.  1.
</event>
<event>
 7    1  0.2153242E-013  0.7246157E+02  0.7816164E-02  0.1226708E+00
        -11   -1    0    0    0    0  0.00000000000E+00  0.00000000000E+00  0.45593999997E+02  0.45594000000E+02  0.51100000000E-03 0. -1.
         11   -1    0    0    0    0 -0.00000000000E+00 -0.00000000000E+00 -0.45593999997E+02  0.45594000000E+02  0.51100000000E-03 0.  1.
    9900012    2    1    2    0    0  0.67417672355E+01 -0.17330283509E+02 -0.22111108321E+01  0.72461570466E+02  0.70000000224E+02 0.  0.
         12    1    1    2    0    0 -0.67417672355E+01  0.17330283509E+02  0.22111108321E+01  0.18726429534E+02  0.00000000000E+00 0. -1.
         11    1    3    3    0    0  0.97421799365E+01 -0.20103423396E+02 -0.55114083044E+01  0.23009418157E+02  0.51100000000E-03 0. -1.
        -11    1    3    3    0    0  0.19563857822E+02 -0.82265809791E+01  0.10014358488E+02  0.23467180139E+02  0.51100000000E-03 0.  1.
         12    1    3    3    0    0 -0.22564270523E+02  0.10999720866E+02 -0.67140610153E+01  0.25984972170E+02  0.00000000000E+00 0. -1.
</event>
<event>
 7    1  0.2153242E-013  0.7246158E+02  0.7816164E-02  0.1226708E+00
        -11   -1    0    0    0    0  0.00000000000E+00  0.00000000000E+00  0.45593999997E+02  0.45594000000E+02  0.51100000000E-03 0. -1.
         11   -1    0    0    0    0 -0.00000000000E+00 -0.00000000000E+00 -0.45593999997E+02  0.45594000000E+02  0.51100000000E-03 0.  1.
    9900012    2    1    2    0    0 -0.15633522791E+02 -0.89681437827E+01 -0.50837140535E+01  0.72461580525E+02  0.70000013328E+02 0.  0.
         12    1    1    2    0    0  0.15633522791E+02  0.89681437827E+01  0.50837140535E+01  0.18726419475E+02  0.00000000000E+00 0. -1.
         11    1    3    3    0    0 -0.78887505961E+01 -0.20415719507E+02  0.82432359154E+01  0.23387708900E+02  0.51100000000E-03 0. -1.
        -11    1    3    3    0    0 -0.24372185492E+02 -0.27814194069E+01 -0.24997758848E+01  0.24657424832E+02  0.51100000000E-03 0.  1.
        -12    1    3    3    0    0  0.16627413297E+02  0.14228995131E+02 -0.10827174084E+02  0.24416446794E+02  0.00000000000E+00 0.  1.
</event>
<event>
 7    1  0.2153242E-013  0.7246158E+02  0.7816164E-02  0.1226708E+00
        -11   -1    0    0    0    0  0.00000000000E+00  0.00000000000E+00  0.45593999997E+02  0.45594000000E+02  0.51100000000E-03 0.  1.
         11   -1    0    0    0    0 -0.00000000000E+00 -0.00000000000E+00 -0.45593999997E+02  0.45594000000E+02  0.51100000000E-03 0. -1.
    9900012    2    1    2    0    0  0.34838029655E+01 -0.16671467225E+01  0.18323821764E+02  0.72461582688E+02  0.70000016146E+02 0.  0.
         12    1    1    2    0    0 -0.34838029655E+01  0.16671467225E+01 -0.18323821764E+02  0.18726417312E+02  0.00000000000E+00 0. -1.
         11    1    3    3    0    0  0.57771716940E+01 -0.91809098603E+01 -0.38359950867E+01  0.11505636758E+02  0.51100000000E-03 0. -1.
        -11    1    3    3    0    0  0.54403558872E+01 -0.84665549465E+01 -0.15980976657E+02  0.18885752302E+02  0.51100000000E-03 0.  1.
        -12    1    3    3    0    0 -0.77337246157E+01  0.15980318084E+02  0.38140793508E+02  0.42070193628E+02  0.00000000000E+00 0.  1.
</event>
<event>
 7    1  0.2153242E-013  0.7246138E+02  0.7816164E-02  0.1226709E+00
        -11   -1    0    0    0    0  0.00000000000E+00  0.00000000000E+00  0.45593999997E+02  0.45594000000E+02  0.51100000000E-03 0. -1.
         11   -1    0    0    0    0 -0.00000000000E+00 -0.00000000000E+00 -0.45593999997E+02  0.45594000000E+02  0.51100000000E-03 0.  1.
    9900012    2    1    2    0    0  0.15864874135E+02 -0.84252651785E+01 -0.52921722181E+01  0.72461376935E+02  0.69999748113E+02 0.  0.
         12    1    1    2    0    0 -0.15864874135E+02  0.84252651785E+01  0.52921722181E+01  0.18726623065E+02  0.00000000000E+00 0. -1.
         11    1    3    3    0    0  0.34641763917E+01  0.11720508186E+02 -0.53714467133E+01  0.13350028849E+02  0.51100000000E-03 0. -1.
        -11    1    3    3    0    0 -0.47656733372E+01  0.12825719698E+02 -0.13798983834E+02  0.19432516133E+02  0.51100000000E-03 0.  1.
        -12    1    3    3    0    0  0.17166371080E+02 -0.32971493063E+02  0.13878258330E+02  0.39678831953E+02  0.00000000000E+00 0.  1.
</event>
<event>
 7    1  0.2153242E-013  0.7246159E+02  0.7816164E-02  0.1226708E+00
        -11   -1    0    0    0    0  0.00000000000E+00  0.00000000000E+00  0.45593999997E+02  0.45594000000E+02  0.51100000000E-03 0.  1.
         11   -1    0    0    0    0 -0.00000000000E+00 -0.00000000000E+00 -0.45593999997E+02  0.45594000000E+02  0.51100000000E-03 0. -1.
    9900012    2    1    2    0    0  0.27034945343E+01 -0.62054487082E+01  0.17460296380E+02  0.72461590146E+02  0.70000025860E+02 0.  0.
         12    1    1    2    0    0 -0.27034945343E+01  0.62054487082E+01 -0.17460296380E+02  0.18726409854E+02  0.00000000000E+00 0. -1.
         11    1    3    3    0    0  0.28832724831E+02 -0.48867461188E+01  0.11038186263E+02  0.31257764876E+02  0.51100000000E-03 0. -1.
        -11    1    3    3    0    0 -0.68469503935E+01  0.48419514990E+01  0.16561682238E+02  0.18563796563E+02  0.51100000000E-03 0.  1.
        -12    1    3    3    0    0 -0.19282279903E+02 -0.61606540884E+01 -0.10139572122E+02  0.22640028707E+02  0.00000000000E+00 0.  1.
</event>
<event>
 7    1  0.2153242E-013  0.7246159E+02  0.7816164E-02  0.1226708E+00
        -11   -1    0    0    0    0  0.00000000000E+00  0.00000000000E+00  0.45593999997E+02  0.45594000000E+02  0.51100000000E-03 0.  1.
         11   -1    0    0    0    0 -0.00000000000E+00 -0.00000000000E+00 -0.45593999997E+02  0.45594000000E+02  0.51100000000E-03 0. -1.
    9900012    2    1    2    0    0  0.15620814983E+02  0.30070234152E+01  0.98806019880E+01  0.72461592278E+02  0.70000028637E+02 0.  0.
         12    1    1    2    0    0 -0.15620814983E+02 -0.30070234152E+01 -0.98806019880E+01  0.18726407722E+02  0.00000000000E+00 0. -1.
         11    1    3    3    0    0  0.36921979633E+02  0.84068263423E+01  0.12161018946E+02  0.39771820316E+02  0.51100000000E-03 0. -1.
        -11    1    3    3    0    0  0.52642298908E+01 -0.85654919112E+00  0.13330323713E+01  0.54975238448E+01  0.51100000000E-03 0.  1.
        -12    1    3    3    0    0 -0.26565394541E+02 -0.45432537360E+01 -0.36134493294E+01  0.27192248117E+02  0.00000000000E+00 0.  1.
</event>
<event>
 7    1  0.2153242E-013  0.7246159E+02  0.7816164E-02  0.1226708E+00
        -11   -1    0    0    0    0  0.00000000000E+00  0.00000000000E+00  0.45593999997E+02  0.45594000000E+02  0.51100000000E-03 0.  1.
         11   -1    0    0    0    0 -0.00000000000E+00 -0.00000000000E+00 -0.45593999997E+02  0.45594000000E+02  0.51100000000E-03 0. -1.
    9900012    2    1    2    0    0  0.14596523183E+02  0.13529713500E+01  0.11652865644E+02  0.72461593558E+02  0.70000030305E+02 0.  0.
         12    1    1    2    0    0 -0.14596523183E+02 -0.13529713500E+01 -0.11652865644E+02  0.18726406442E+02  0.00000000000E+00 0. -1.
         11    1    3    3    0    0 -0.22292730123E+02 -0.10773948944E+02  0.19042678341E+02  0.31235674970E+02  0.51100000000E-03 0. -1.
        -11    1    3    3    0    0  0.88286072896E+01 -0.21126201558E+01 -0.20986810269E+01  0.93172921447E+01  0.51100000000E-03 0.  1.
        -12    1    3    3    0    0  0.28060646017E+02  0.14239540450E+02 -0.52911316695E+01  0.31908626443E+02  0.00000000000E+00 0.  1.
</event>
<event>
 7    1  0.2153242E-013  0.7246157E+02  0.7816164E-02  0.1226708E+00
        -11   -1    0    0    0    0  0.00000000000E+00  0.00000000000E+00  0.45593999997E+02  0.45594000000E+02  0.51100000000E-03 0.  1.
         11   -1    0    0    0    0 -0.00000000000E+00 -0.00000000000E+00 -0.45593999997E+02  0.45594000000E+02  0.51100000000E-03 0. -1.
    9900012    2    1    2    0    0  0.17420839245E+02 -0.49619408033E+01  0.47510589954E+01  0.72461573269E+02  0.70000003875E+02 0.  0.
         12    1    1    2    0    0 -0.17420839245E+02  0.49619408033E+01 -0.47510589954E+01  0.18726426731E+02  0.00000000000E+00 0. -1.
         11    1    3    3    0    0 -0.93277364552E+01 -0.21577075283E+02  0.17170076875E+02  0.29109936196E+02  0.51100000000E-03 0. -1.
        -11    1    3    3    0    0  0.20316074587E+02  0.89981759199E+01  0.54602005087E+01  0.22880643486E+02  0.51100000000E-03 0.  1.
        -12    1    3    3    0    0  0.64325011132E+01  0.76169585598E+01 -0.17879218389E+02  0.20470993587E+02  0.00000000000E+00 0.  1.
</event>
<event>
 7    1  0.2153242E-013  0.7246143E+02  0.7816164E-02  0.1226708E+00
        -11   -1    0    0    0    0  0.00000000000E+00  0.00000000000E+00  0.45593999997E+02  0.45594000000E+02  0.51100000000E-03 0. -1.
         11   -1    0    0    0    0 -0.00000000000E+00 -0.00000000000E+00 -0.45593999997E+02  0.45594000000E+02  0.51100000000E-03 0.  1.
    9900012    2    1    2    0    0 -0.88982390215E+01 -0.11836893618E+02 -0.11462711072E+02  0.72461429216E+02  0.69999816219E+02 0.  0.
         12    1    1    2    0    0  0.88982390215E+01  0.11836893618E+02  0.11462711072E+02  0.18726570784E+02  0.00000000000E+00 0. -1.
         11    1    3    3    0    0  0.12227179522E+02 -0.72052679512E+01  0.86416262781E+01  0.16616182182E+02  0.51100000000E-03 0. -1.
        -11    1    3    3    0    0 -0.67995214846E+01 -0.85166082293E+00  0.15681575819E+02  0.17113463676E+02  0.51100000000E-03 0.  1.
         12    1    3    3    0    0 -0.14325897059E+02 -0.37799648439E+01 -0.35785913169E+02  0.38731783358E+02  0.00000000000E+00 0. -1.
</event>
<event>
 7    1  0.2153242E-013  0.7246162E+02  0.7816164E-02  0.1226708E+00
        -11   -1    0    0    0    0  0.00000000000E+00  0.00000000000E+00  0.45593999997E+02  0.45594000000E+02  0.51100000000E-03 0.  1.
         11   -1    0    0    0    0 -0.00000000000E+00 -0.00000000000E+00 -0.45593999997E+02  0.45594000000E+02  0.51100000000E-03 0. -1.
    9900012    2    1    2    0    0 -0.12500600413E+02 -0.49538136424E+00  0.13934381381E+02  0.72461617598E+02  0.70000061622E+02 0.  0.
         12    1    1    2    0    0  0.12500600413E+02  0.49538136424E+00 -0.13934381381E+02  0.18726382402E+02  0.00000000000E+00 0. -1.
         11    1    3    3    0    0 -0.18774668945E+02  0.24184393659E+02  0.13219775843E+02  0.33348696590E+02  0.51100000000E-03 0. -1.
        -11    1    3    3    0    0  0.14160375593E+01  0.17680329213E+01  0.10314593017E+02  0.10560394507E+02  0.51100000000E-03 0.  1.
         12    1    3    3    0    0  0.48580309724E+01 -0.26447807945E+02 -0.95999874786E+01  0.28552526501E+02  0.00000000000E+00 0. -1.
</event>
<event>
 7    1  0.2153242E-013  0.7246163E+02  0.7816164E-02  0.1226708E+00
        -11   -1    0    0    0    0  0.00000000000E+00  0.00000000000E+00  0.45593999997E+02  0.45594000000E+02  0.51100000000E-03 0. -1.
         11   -1    0    0    0    0 -0.00000000000E+00 -0.00000000000E+00 -0.45593999997E+02  0.45594000000E+02  0.51100000000E-03 0.  1.
    9900012    2    1    2    0    0  0.35689610618E+01 -0.17726513406E+01 -0.18297458753E+02  0.72461634292E+02  0.70000083368E+02 0.  0.
         12    1    1    2    0    0 -0.35689610618E+01  0.17726513406E+01  0.18297458753E+02  0.18726365708E+02  0.00000000000E+00 0. -1.
         11    1    3    3    0    0  0.36978988166E+01 -0.15218503121E+01  0.23116573324E+01  0.46189007257E+01  0.51100000000E-03 0. -1.
        -11    1    3    3    0    0  0.22679628866E+02  0.32159932106E+01  0.13556391744E+02  0.26617361538E+02  0.51100000000E-03 0.  1.
        -12    1    3    3    0    0 -0.22808566621E+02 -0.34667942391E+01 -0.34165507829E+02  0.41225372028E+02  0.00000000000E+00 0.  1.
</event>
<event>
 7    1  0.2153242E-013  0.7246150E+02  0.7816164E-02  0.1226708E+00
        -11   -1    0    0    0    0  0.00000000000E+00  0.00000000000E+00  0.45593999997E+02  0.45594000000E+02  0.51100000000E-03 0. -1.
         11   -1    0    0    0    0 -0.00000000000E+00 -0.00000000000E+00 -0.45593999997E+02  0.45594000000E+02  0.51100000000E-03 0.  1.
    9900012    2    1    2    0    0 -0.57589607051E+01  0.58613808217E+01 -0.16827367138E+02  0.72461502775E+02  0.69999912043E+02 0.  0.
         12    1    1    2    0    0  0.57589607051E+01 -0.58613808217E+01  0.16827367138E+02  0.18726497225E+02  0.00000000000E+00 0. -1.
         11    1    3    3    0    0 -0.10498486742E+02 -0.26656590017E+02  0.33187921411E+01  0.28841054016E+02  0.51100000000E-03 0. -1.
        -11    1    3    3    0    0 -0.37482562347E+01 -0.11254962815E+01 -0.12345612082E+01  0.41036944719E+01  0.51100000000E-03 0.  1.
        -12    1    3    3    0    0  0.84877822721E+01  0.33643467120E+02 -0.18911598071E+02  0.39516754287E+02  0.00000000000E+00 0.  1.
</event>
<event>
 7    1  0.2153242E-013  0.7246150E+02  0.7816164E-02  0.1226708E+00
        -11   -1    0    0    0    0  0.00000000000E+00  0.00000000000E+00  0.45593999997E+02  0.45594000000E+02  0.51100000000E-03 0. -1.
         11   -1    0    0    0    0 -0.00000000000E+00 -0.00000000000E+00 -0.45593999997E+02  0.45594000000E+02  0.51100000000E-03 0.  1.
    9900012    2    1    2    0    0  0.10498409674E+02  0.79255100706E+01 -0.13328596839E+02  0.72461499813E+02  0.69999908185E+02 0.  0.
         12    1    1    2    0    0 -0.10498409674E+02 -0.79255100706E+01  0.13328596839E+02  0.18726500187E+02  0.00000000000E+00 0. -1.
         11    1    3    3    0    0  0.16365449830E+01  0.29782277836E+02  0.63602592659E+01  0.30497790917E+02  0.51100000000E-03 0. -1.
        -11    1    3    3    0    0  0.12609500226E+02  0.12416436026E+01 -0.11674460027E+02  0.17228876689E+02  0.51100000000E-03 0.  1.
        -12    1    3    3    0    0 -0.37476355350E+01 -0.23098411368E+02 -0.80143960773E+01  0.24734832207E+02  0.00000000000E+00 0.  1.
</event>
<event>
 7    1  0.2153242E-013  0.7246154E+02  0.7816164E-02  0.1226708E+00
        -11   -1    0    0    0    0  0.00000000000E+00  0.00000000000E+00  0.45593999997E+02  0.45594000000E+02  0.51100000000E-03 0. -1.
         11   -1    0    0    0    0 -0.00000000000E+00 -0.00000000000E+00 -0.45593999997E+02  0.45594000000E+02  0.51100000000E-03 0.  1.
    9900012    2    1    2    0    0  0.11153944282E+02  0.15039084243E+02  0.30952814646E+00  0.72461539161E+02  0.69999959443E+02 0.  0.
         12    1    1    2    0    0 -0.11153944282E+02 -0.15039084243E+02 -0.30952814646E+00  0.18726460839E+02  0.00000000000E+00 0. -1.
         11    1    3    3    0    0 -0.16104121878E+02  0.35764414476E+01  0.81043365971E+01  0.18379715635E+02  0.51100000000E-03 0. -1.
        -11    1    3    3    0    0  0.96873828986E+01  0.26996750025E+02  0.18079890688E+01  0.28739149675E+02  0.51100000000E-03 0.  1.
        -12    1    3    3    0    0  0.17570683261E+02 -0.15534107230E+02 -0.96027975195E+01  0.25342673850E+02  0.00000000000E+00 0.  1.
</event>
<event>
 7    1  0.2153242E-013  0.7246147E+02  0.7816164E-02  0.1226708E+00
        -11   -1    0    0    0    0  0.00000000000E+00  0.00000000000E+00  0.45593999997E+02  0.45594000000E+02  0.51100000000E-03 0.  1.
         11   -1    0    0    0    0 -0.00000000000E+00 -0.00000000000E+00 -0.45593999997E+02  0.45594000000E+02  0.51100000000E-03 0. -1.
    9900012    2    1    2    0    0  0.16521073080E+02  0.10849862275E+01  0.87498501955E+01  0.72461469909E+02  0.69999869229E+02 0.  0.
         12    1    1    2    0    0 -0.16521073080E+02 -0.10849862275E+01 -0.87498501955E+01  0.18726530091E+02  0.00000000000E+00 0. -1.
         11    1    3    3    0    0 -0.21459655110E+01  0.17711591244E+01 -0.62454860203E+01  0.68372705453E+01  0.51100000000E-03 0. -1.
        -11    1    3    3    0    0  0.91061672901E+01  0.21527463094E+02  0.29335058641E+02  0.37508660542E+02  0.51100000000E-03 0.  1.
         12    1    3    3    0    0  0.95608713008E+01 -0.22213635991E+02 -0.14339722425E+02  0.28115538821E+02  0.00000000000E+00 0. -1.
</event>
<event>
 7    1  0.2153242E-013  0.7246099E+02  0.7816164E-02  0.1226710E+00
        -11   -1    0    0    0    0  0.00000000000E+00  0.00000000000E+00  0.45593999997E+02  0.45594000000E+02  0.51100000000E-03 0. -1.
         11   -1    0    0    0    0 -0.00000000000E+00 -0.00000000000E+00 -0.45593999997E+02  0.45594000000E+02  0.51100000000E-03 0.  1.
    9900012    2    1    2    0    0 -0.38264396422E+01 -0.16978016851E+02 -0.69141943834E+01  0.72460993285E+02  0.69999248334E+02 0.  0.
         12    1    1    2    0    0  0.38264396422E+01  0.16978016851E+02  0.69141943834E+01  0.18727006715E+02  0.00000000000E+00 0. -1.
         11    1    3    3    0    0  0.23518902267E+02  0.42714605490E+01  0.45357432495E+01  0.24330168642E+02  0.51100000000E-03 0. -1.
        -11    1    3    3    0    0 -0.29481856282E+01 -0.17998705363E+02  0.45208333530E+01  0.18790506319E+02  0.51100000000E-03 0.  1.
        -12    1    3    3    0    0 -0.24397156281E+02 -0.32507720369E+01 -0.15970770986E+02  0.29340318324E+02  0.00000000000E+00 0.  1.
</event>
<event>
 7    1  0.2153242E-013  0.7246156E+02  0.7816164E-02  0.1226708E+00
        -11   -1    0    0    0    0  0.00000000000E+00  0.00000000000E+00  0.45593999997E+02  0.45594000000E+02  0.51100000000E-03 0.  1.
         11   -1    0    0    0    0 -0.00000000000E+00 -0.00000000000E+00 -0.45593999997E+02  0.45594000000E+02  0.51100000000E-03 0. -1.
    9900012    2    1    2    0    0 -0.12824814946E+02  0.43554969667E+01  0.12931869089E+02  0.72461562261E+02  0.69999989535E+02 0.  0.
         12    1    1    2    0    0  0.12824814946E+02 -0.43554969667E+01 -0.12931869089E+02  0.18726437739E+02  0.00000000000E+00 0. -1.
         11    1    3    3    0    0 -0.71030153883E+01  0.19372359542E+02  0.13073391491E+02  0.24426516477E+02  0.51100000000E-03 0. -1.
        -11    1    3    3    0    0 -0.22459636502E+01  0.10139881182E+02 -0.15275663667E+02  0.18471801315E+02  0.51100000000E-03 0.  1.
        -12    1    3    3    0    0 -0.34758359078E+01 -0.25156743757E+02  0.15134141265E+02  0.29563244469E+02  0.00000000000E+00 0.  1.
</event>
<event>
 7    1  0.2153242E-013  0.7246158E+02  0.7816164E-02  0.1226708E+00
        -11   -1    0    0    0    0  0.00000000000E+00  0.00000000000E+00  0.45593999997E+02  0.45594000000E+02  0.51100000000E-03 0.  1.
         11   -1    0    0    0    0 -0.00000000000E+00 -0.00000000000E+00 -0.45593999997E+02  0.45594000000E+02  0.51100000000E-03 0. -1.
    9900012    2    1    2    0    0 -0.52862936541E+01  0.10432029646E+01  0.17934477554E+02  0.72461583948E+02  0.70000017787E+02 0.  0.
         12    1    1    2    0    0  0.52862936541E+01 -0.10432029646E+01 -0.17934477554E+02  0.18726416052E+02  0.00000000000E+00 0. -1.
         11    1    3    3    0    0  0.15298523214E+01  0.79640445137E+01  0.14092582391E+02  0.16259376736E+02  0.51100000000E-03 0. -1.
        -11    1    3    3    0    0 -0.22044755551E+02  0.16590794662E+02 -0.17156215889E+01  0.27643608168E+02  0.51100000000E-03 0.  1.
         12    1    3    3    0    0  0.15228609575E+02 -0.23511636212E+02  0.55575167519E+01  0.28558599045E+02  0.00000000000E+00 0. -1.
</event>
<event>
 7    1  0.2283642E-013  0.7246154E+02  0.7816164E-02  0.1226708E+00
        -11   -1    0    0    0    0  0.00000000000E+00  0.00000000000E+00  0.45593999997E+02  0.45594000000E+02  0.51100000000E-03 0.  1.
         11   -1    0    0    0    0 -0.00000000000E+00 -0.00000000000E+00 -0.45593999997E+02  0.45594000000E+02  0.51100000000E-03 0. -1.
    9900012    2    1    2    0    0 -0.69964732359E+01 -0.13317584620E+02  0.11152195024E+02  0.72461544070E+02  0.69999965838E+02 0.  0.
         12    1    1    2    0    0  0.69964732359E+01  0.13317584620E+02 -0.11152195024E+02  0.18726455930E+02  0.00000000000E+00 0. -1.
         11    1    3    3    0    0  0.63359441817E+01 -0.78795078909E+01  0.67765615679E+01  0.12171796097E+02  0.51100000000E-03 0. -1.
        -11    1    3    3    0    0  0.77631471202E+01 -0.10668556001E+02  0.26296292761E+02  0.29420733396E+02  0.51100000000E-03 0.  1.
         12    1    3    3    0    0 -0.21095564538E+02  0.52304792713E+01 -0.21920659305E+02  0.30869014577E+02  0.00000000000E+00 0. -1.
</event>
<event>
 7    1  0.2153242E-013  0.7246153E+02  0.7816164E-02  0.1226708E+00
        -11   -1    0    0    0    0  0.00000000000E+00  0.00000000000E+00  0.45593999997E+02  0.45594000000E+02  0.51100000000E-03 0.  1.
         11   -1    0    0    0    0 -0.00000000000E+00 -0.00000000000E+00 -0.45593999997E+02  0.45594000000E+02  0.51100000000E-03 0. -1.
    9900012    2    1    2    0    0  0.36094363352E+01 -0.82763312238E+01  0.16405941761E+02  0.72461531720E+02  0.69999949750E+02 0.  0.
         12    1    1    2    0    0 -0.36094363352E+01  0.82763312238E+01 -0.16405941761E+02  0.18726468280E+02  0.00000000000E+00 0. -1.
         11    1    3    3    0    0  0.20162214090E+02  0.86940742956E+01  0.44396548743E+01  0.22401168285E+02  0.51100000000E-03 0. -1.
        -11    1    3    3    0    0  0.46501983557E+01 -0.38441044214E+00  0.21118288103E+02  0.21627626056E+02  0.51100000000E-03 0.  1.
         12    1    3    3    0    0 -0.21202976110E+02 -0.16585995077E+02 -0.91520012170E+01  0.28432737380E+02  0.00000000000E+00 0. -1.
</event>
<event>
 7    1  0.2153242E-013  0.7246152E+02  0.7816164E-02  0.1226708E+00
        -11   -1    0    0    0    0  0.00000000000E+00  0.00000000000E+00  0.45593999997E+02  0.45594000000E+02  0.51100000000E-03 0.  1.
         11   -1    0    0    0    0 -0.00000000000E+00 -0.00000000000E+00 -0.45593999997E+02  0.45594000000E+02  0.51100000000E-03 0. -1.
    9900012    2    1    2    0    0  0.15397812518E+02 -0.23151349044E+01  0.10403294002E+02  0.72461521258E+02  0.69999936121E+02 0.  0.
         12    1    1    2    0    0 -0.15397812518E+02  0.23151349044E+01 -0.10403294002E+02  0.18726478742E+02  0.00000000000E+00 0. -1.
         11    1    3    3    0    0 -0.22116256328E+01  0.20738596893E+00 -0.88251214035E+01  0.91003881746E+01  0.51100000000E-03 0. -1.
        -11    1    3    3    0    0 -0.16995129398E+02  0.95575440758E+01 -0.40862051221E+01  0.19921800736E+02  0.51100000000E-03 0.  1.
         12    1    3    3    0    0  0.34604567549E+02 -0.12080064949E+02  0.23314620528E+02  0.43439332347E+02  0.00000000000E+00 0. -1.
</event>
<event>
 7    1  0.2153242E-013  0.7246155E+02  0.7816164E-02  0.1226708E+00
        -11   -1    0    0    0    0  0.00000000000E+00  0.00000000000E+00  0.45593999997E+02  0.45594000000E+02  0.51100000000E-03 0.  1.
         11   -1    0    0    0    0 -0.00000000000E+00 -0.00000000000E+00 -0.45593999997E+02  0.45594000000E+02  0.51100000000E-03 0. -1.
    9900012    2    1    2    0    0  0.77570242077E+01 -0.29283841802E+01  0.16790863376E+02  0.72461549418E+02  0.69999972805E+02 0.  0.
         12    1    1    2    0    0 -0.77570242077E+01  0.29283841802E+01 -0.16790863376E+02  0.18726450582E+02  0.00000000000E+00 0. -1.
         11    1    3    3    0    0 -0.43886861424E+01 -0.34473205126E+01 -0.13640746505E+02  0.14738200373E+02  0.51100000000E-03 0. -1.
        -11    1    3    3    0    0  0.25463901971E+02  0.35692463458E+01  0.34899027945E+02  0.43348494493E+02  0.51100000000E-03 0.  1.
         12    1    3    3    0    0 -0.13318191621E+02 -0.30503100134E+01 -0.44674180638E+01  0.14374854552E+02  0.00000000000E+00 0. -1.
</event>
<event>
 7    1  0.2153242E-013  0.7246162E+02  0.7816164E-02  0.1226708E+00
        -11   -1    0    0    0    0  0.00000000000E+00  0.00000000000E+00  0.45593999997E+02  0.45594000000E+02  0.51100000000E-03 0.  1.
         11   -1    0    0    0    0 -0.00000000000E+00 -0.00000000000E+00 -0.45593999997E+02  0.45594000000E+02  0.51100000000E-03 0. -1.
    9900012    2    1    2    0    0 -0.99345838141E+01 -0.95520324530E+01  0.12678333207E+02  0.72461617209E+02  0.70000061115E+02 0.  0.
         12    1    1    2    0    0  0.99345838141E+01  0.95520324530E+01 -0.12678333207E+02  0.18726382791E+02  0.00000000000E+00 0. -1.
         11    1    3    3    0    0  0.25063785208E+01  0.14556617708E+01  0.60190629400E+01  0.66805690938E+01  0.51100000000E-03 0. -1.
        -11    1    3    3    0    0  0.43853614016E+01 -0.34139580389E+02  0.12438677518E+02  0.36598675418E+02  0.51100000000E-03 0.  1.
         12    1    3    3    0    0 -0.16826323736E+02  0.23131886165E+02 -0.57794072507E+01  0.29182372696E+02  0.00000000000E+00 0. -1.
</event>
<event>
 7    1  0.2153242E-013  0.7246157E+02  0.7816164E-02  0.1226708E+00
        -11   -1    0    0    0    0  0.00000000000E+00  0.00000000000E+00  0.45593999997E+02  0.45594000000E+02  0.51100000000E-03 0.  1.
         11   -1    0    0    0    0 -0.00000000000E+00 -0.00000000000E+00 -0.45593999997E+02  0.45594000000E+02  0.51100000000E-03 0. -1.
    9900012    2    1    2    0    0  0.16625560591E+02 -0.41451557102E+01 -0.75556397836E+01  0.72461567522E+02  0.69999996388E+02 0.  0.
         12    1    1    2    0    0 -0.16625560591E+02  0.41451557102E+01  0.75556397836E+01  0.18726432478E+02  0.00000000000E+00 0. -1.
         11    1    3    3    0    0  0.26670577263E+01 -0.13859974779E+02 -0.37208696496E+01  0.14596471115E+02  0.51100000000E-03 0.  1.
        -11    1    3    3    0    0  0.61489977068E+01  0.51823422970E+00 -0.29163719411E+02  0.29809415788E+02  0.51100000000E-03 0. -1.
        -12    1    3    3    0    0  0.78095051581E+01  0.91965848393E+01  0.25328949277E+02  0.28055680619E+02  0.00000000000E+00 0.  1.
</event>
<event>
 7    1  0.2153242E-013  0.7246155E+02  0.7816164E-02  0.1226708E+00
        -11   -1    0    0    0    0  0.00000000000E+00  0.00000000000E+00  0.45593999997E+02  0.45594000000E+02  0.51100000000E-03 0. -1.
         11   -1    0    0    0    0 -0.00000000000E+00 -0.00000000000E+00 -0.45593999997E+02  0.45594000000E+02  0.51100000000E-03 0.  1.
    9900012    2    1    2    0    0  0.11197133266E+02  0.12402517772E+02 -0.84546944046E+01  0.72461545505E+02  0.69999967708E+02 0.  0.
         12    1    1    2    0    0 -0.11197133266E+02 -0.12402517772E+02  0.84546944046E+01  0.18726454495E+02  0.00000000000E+00 0. -1.
         11    1    3    3    0    0  0.98310124012E+01  0.22130001446E+02 -0.59147789932E+01  0.24927301893E+02  0.51100000000E-03 0. -1.
        -11    1    3    3    0    0 -0.21470410895E+02 -0.11857865618E+02 -0.10295129680E+01  0.24548878146E+02  0.51100000000E-03 0.  1.
         12    1    3    3    0    0  0.22836531761E+02  0.21303819439E+01 -0.15104024434E+01  0.22985365466E+02  0.00000000000E+00 0. -1.
</event>
<event>
 7    1  0.2153242E-013  0.7246158E+02  0.7816164E-02  0.1226708E+00
        -11   -1    0    0    0    0  0.00000000000E+00  0.00000000000E+00  0.45593999997E+02  0.45594000000E+02  0.51100000000E-03 0.  1.
         11   -1    0    0    0    0 -0.00000000000E+00 -0.00000000000E+00 -0.45593999997E+02  0.45594000000E+02  0.51100000000E-03 0. -1.
    9900012    2    1    2    0    0  0.51620634112E+00  0.18614483303E+02  0.19782472713E+01  0.72461576959E+02  0.70000008682E+02 0.  0.
         12    1    1    2    0    0 -0.51620634112E+00 -0.18614483303E+02 -0.19782472713E+01  0.18726423041E+02  0.00000000000E+00 0. -1.
         11    1    3    3    0    0 -0.10365410017E+02  0.12046746429E+02 -0.38121331795E+01  0.16343138743E+02  0.51100000000E-03 0. -1.
        -11    1    3    3    0    0 -0.12071794369E+02 -0.94250269634E+01  0.19637422106E+02  0.24903568013E+02  0.51100000000E-03 0.  1.
         12    1    3    3    0    0  0.22953410727E+02  0.15992763838E+02 -0.13847041655E+02  0.31214870203E+02  0.00000000000E+00 0. -1.
</event>
<event>
 7    1  0.2153242E-013  0.7246160E+02  0.7816164E-02  0.1226708E+00
        -11   -1    0    0    0    0  0.00000000000E+00  0.00000000000E+00  0.45593999997E+02  0.45594000000E+02  0.51100000000E-03 0.  1.
         11   -1    0    0    0    0 -0.00000000000E+00 -0.00000000000E+00 -0.45593999997E+02  0.45594000000E+02  0.51100000000E-03 0. -1.
    9900012    2    1    2    0    0 -0.14365700292E+02 -0.11042885634E+02  0.47285746004E+01  0.72461599231E+02  0.70000037696E+02 0.  0.
         12    1    1    2    0    0  0.14365700292E+02  0.11042885634E+02 -0.47285746004E+01  0.18726400769E+02  0.00000000000E+00 0. -1.
         11    1    3    3    0    0  0.48489637598E+01 -0.15997327640E+01  0.56542730010E+01  0.76185561553E+01  0.51100000000E-03 0. -1.
        -11    1    3    3    0    0 -0.40031501976E+00 -0.12508166916E+02  0.27731721661E+02  0.30424708351E+02  0.51100000000E-03 0.  1.
         12    1    3    3    0    0 -0.18814349032E+02  0.30650140460E+01 -0.28657420062E+02  0.34418334725E+02  0.00000000000E+00 0. -1.
</event>
<event>
 7    1  0.2153242E-013  0.7246157E+02  0.7816164E-02  0.1226708E+00
        -11   -1    0    0    0    0  0.00000000000E+00  0.00000000000E+00  0.45593999997E+02  0.45594000000E+02  0.51100000000E-03 0. -1.
         11   -1    0    0    0    0 -0.00000000000E+00 -0.00000000000E+00 -0.45593999997E+02  0.45594000000E+02  0.51100000000E-03 0.  1.
    9900012    2    1    2    0    0 -0.80225787204E+01  0.15213676350E+01 -0.16852388660E+02  0.72461565947E+02  0.69999994336E+02 0.  0.
         12    1    1    2    0    0  0.80225787204E+01 -0.15213676350E+01  0.16852388660E+02  0.18726434053E+02  0.00000000000E+00 0. -1.
         11    1    3    3    0    0 -0.82245268455E+01  0.38150102610E+01 -0.18013846036E+01  0.92434913250E+01  0.51100000000E-03 0. -1.
        -11    1    3    3    0    0  0.16325842320E+02  0.24225221350E+02 -0.13396244103E+02  0.32138043395E+02  0.51100000000E-03 0.  1.
         12    1    3    3    0    0 -0.16123894194E+02 -0.26518863976E+02 -0.16547599533E+01  0.31080031227E+02  0.00000000000E+00 0. -1.
</event>
<event>
 7    1  0.2153242E-013  0.7246156E+02  0.7816164E-02  0.1226708E+00
        -11   -1    0    0    0    0  0.00000000000E+00  0.00000000000E+00  0.45593999997E+02  0.45594000000E+02  0.51100000000E-03 0. -1.
         11   -1    0    0    0    0 -0.00000000000E+00 -0.00000000000E+00 -0.45593999997E+02  0.45594000000E+02  0.51100000000E-03 0.  1.
    9900012    2    1    2    0    0  0.85836063263E+01  0.13046099532E+02 -0.10334428361E+02  0.72461563604E+02  0.69999991284E+02 0.  0.
         12    1    1    2    0    0 -0.85836063263E+01 -0.13046099532E+02  0.10334428361E+02  0.18726436396E+02  0.00000000000E+00 0. -1.
         11    1    3    3    0    0  0.91714977157E+01 -0.65930879316E+01 -0.61009459767E+01  0.12837706995E+02  0.51100000000E-03 0. -1.
        -11    1    3    3    0    0  0.17373003644E+02 -0.56685542432E+01 -0.18021119189E+02  0.25665433951E+02  0.51100000000E-03 0.  1.
         12    1    3    3    0    0 -0.17960895034E+02  0.25307741707E+02  0.13787636804E+02  0.33958422657E+02  0.00000000000E+00 0. -1.
</event>
<event>
 7    1  0.2153242E-013  0.7246157E+02  0.7816164E-02  0.1226708E+00
        -11   -1    0    0    0    0  0.00000000000E+00  0.00000000000E+00  0.45593999997E+02  0.45594000000E+02  0.51100000000E-03 0.  1.
         11   -1    0    0    0    0 -0.00000000000E+00 -0.00000000000E+00 -0.45593999997E+02  0.45594000000E+02  0.51100000000E-03 0. -1.
    9900012    2    1    2    0    0 -0.89180522164E+01 -0.14161838949E+02  0.84017691352E+01  0.72461573155E+02  0.70000003727E+02 0.  0.
         12    1    1    2    0    0  0.89180522164E+01  0.14161838949E+02 -0.84017691352E+01  0.18726426845E+02  0.00000000000E+00 0. -1.
         11    1    3    3    0    0 -0.14421851621E+02  0.22238728212E+02  0.92048689556E+01  0.28058518304E+02  0.51100000000E-03 0. -1.
        -11    1    3    3    0    0  0.71296149266E+01 -0.24442796832E-01 -0.33985407024E+01  0.78982330695E+01  0.51100000000E-03 0.  1.
        -12    1    3    3    0    0 -0.16258155219E+01 -0.36376124365E+02  0.25954408820E+01  0.36504821782E+02  0.00000000000E+00 0.  1.
</event>
<event>
 7    1  0.2153242E-013  0.7246159E+02  0.7816164E-02  0.1226708E+00
        -11   -1    0    0    0    0  0.00000000000E+00  0.00000000000E+00  0.45593999997E+02  0.45594000000E+02  0.51100000000E-03 0.  1.
         11   -1    0    0    0    0 -0.00000000000E+00 -0.00000000000E+00 -0.45593999997E+02  0.45594000000E+02  0.51100000000E-03 0. -1.
    9900012    2    1    2    0    0  0.14179411621E+02  0.11446585919E+02  0.43125699719E+01  0.72461593434E+02  0.70000030144E+02 0.  0.
         12    1    1    2    0    0 -0.14179411621E+02 -0.11446585919E+02 -0.43125699719E+01  0.18726406566E+02  0.00000000000E+00 0. -1.
         11    1    3    3    0    0  0.12486450060E+02  0.20455695476E+00  0.58540047473E+01  0.13792122769E+02  0.51100000000E-03 0.  1.
        -11    1    3    3    0    0  0.17103372349E+02 -0.93398653043E+01 -0.19295231262E+02  0.27423792212E+02  0.51100000000E-03 0. -1.
         12    1    3    3    0    0 -0.15410410787E+02  0.20581894268E+02  0.17753796486E+02  0.31245678453E+02  0.00000000000E+00 0. -1.
</event>
<event>
 7    1  0.2153242E-013  0.7246156E+02  0.7816164E-02  0.1226708E+00
        -11   -1    0    0    0    0  0.00000000000E+00  0.00000000000E+00  0.45593999997E+02  0.45594000000E+02  0.51100000000E-03 0.  1.
         11   -1    0    0    0    0 -0.00000000000E+00 -0.00000000000E+00 -0.45593999997E+02  0.45594000000E+02  0.51100000000E-03 0. -1.
    9900012    2    1    2    0    0 -0.62422551605E+01 -0.16322313622E+02  0.67302193167E+01  0.72461560843E+02  0.69999987688E+02 0.  0.
         12    1    1    2    0    0  0.62422551605E+01  0.16322313622E+02 -0.67302193167E+01  0.18726439157E+02  0.00000000000E+00 0. -1.
         11    1    3    3    0    0  0.29396097520E+01  0.44978532190E+01 -0.12170330544E+02  0.13303718837E+02  0.51100000000E-03 0. -1.
        -11    1    3    3    0    0 -0.60713136231E+01  0.13930557206E+02  0.18921498244E+02  0.24268176059E+02  0.51100000000E-03 0.  1.
         12    1    3    3    0    0 -0.31105512894E+01 -0.34750724046E+02 -0.20948383459E-01  0.34889665947E+02  0.00000000000E+00 0. -1.
</event>
<event>
 7    1  0.2153242E-013  0.7246105E+02  0.7816164E-02  0.1226709E+00
        -11   -1    0    0    0    0  0.00000000000E+00  0.00000000000E+00  0.45593999997E+02  0.45594000000E+02  0.51100000000E-03 0. -1.
         11   -1    0    0    0    0 -0.00000000000E+00 -0.00000000000E+00 -0.45593999997E+02  0.45594000000E+02  0.51100000000E-03 0.  1.
    9900012    2    1    2    0    0  0.10610470255E+01  0.16860112140E+02  0.80814268798E+01  0.72461049832E+02  0.69999321998E+02 0.  0.
         12    1    1    2    0    0 -0.10610470255E+01 -0.16860112140E+02 -0.80814268798E+01  0.18726950168E+02  0.00000000000E+00 0. -1.
         11    1    3    3    0    0  0.25059130805E+02 -0.11725785736E+02  0.42470037053E+01  0.27990911535E+02  0.51100000000E-03 0. -1.
        -11    1    3    3    0    0  0.39039337305E+01  0.30802395913E+01 -0.33428169220E+01  0.59919111932E+01  0.51100000000E-03 0.  1.
         12    1    3    3    0    0 -0.27902017510E+02  0.25505658285E+02  0.71772400965E+01  0.38478227104E+02  0.00000000000E+00 0. -1.
</event>
<event>
 7    1  0.2153242E-013  0.7246163E+02  0.7816164E-02  0.1226708E+00
        -11   -1    0    0    0    0  0.00000000000E+00  0.00000000000E+00  0.45593999997E+02  0.45594000000E+02  0.51100000000E-03 0.  1.
         11   -1    0    0    0    0 -0.00000000000E+00 -0.00000000000E+00 -0.45593999997E+02  0.45594000000E+02  0.51100000000E-03 0. -1.
    9900012    2    1    2    0    0 -0.17130012296E+02 -0.63758686754E+01 -0.40728453151E+01  0.72461625776E+02  0.70000072275E+02 0.  0.
         12    1    1    2    0    0  0.17130012296E+02  0.63758686754E+01  0.40728453151E+01  0.18726374224E+02  0.00000000000E+00 0. -1.
         11    1    3    3    0    0 -0.15094927228E+02 -0.42480853984E+01 -0.10350552150E+02  0.18789278529E+02  0.51100000000E-03 0. -1.
        -11    1    3    3    0    0 -0.69077764591E+01 -0.24616384151E+02 -0.77588353881E+01  0.26718594108E+02  0.51100000000E-03 0.  1.
         12    1    3    3    0    0  0.48726913918E+01  0.22488600874E+02  0.14036542223E+02  0.26953753138E+02  0.00000000000E+00 0. -1.
</event>
<event>
 7    1  0.2153242E-013  0.7246157E+02  0.7816164E-02  0.1226708E+00
        -11   -1    0    0    0    0  0.00000000000E+00  0.00000000000E+00  0.45593999997E+02  0.45594000000E+02  0.51100000000E-03 0. -1.
         11   -1    0    0    0    0 -0.00000000000E+00 -0.00000000000E+00 -0.45593999997E+02  0.45594000000E+02  0.51100000000E-03 0.  1.
    9900012    2    1    2    0    0 -0.57032473098E+01  0.32531551274E+01 -0.17537651648E+02  0.72461567518E+02  0.69999996383E+02 0.  0.
         12    1    1    2    0    0  0.57032473098E+01 -0.32531551274E+01  0.17537651648E+02  0.18726432482E+02  0.00000000000E+00 0. -1.
         11    1    3    3    0    0 -0.12133115130E+02  0.61449908682E+01  0.20753004059E+02  0.24812508403E+02  0.51100000000E-03 0. -1.
        -11    1    3    3    0    0  0.45268548901E+01  0.76306404855E+01 -0.10864670812E+01  0.89386520457E+01  0.51100000000E-03 0.  1.
        -12    1    3    3    0    0  0.19030129300E+01 -0.10522476226E+02 -0.37204188626E+02  0.38710407069E+02  0.00000000000E+00 0.  1.
</event>
<event>
 7    1  0.2153242E-013  0.7246161E+02  0.7816164E-02  0.1226708E+00
        -11   -1    0    0    0    0  0.00000000000E+00  0.00000000000E+00  0.45593999997E+02  0.45594000000E+02  0.51100000000E-03 0.  1.
         11   -1    0    0    0    0 -0.00000000000E+00 -0.00000000000E+00 -0.45593999997E+02  0.45594000000E+02  0.51100000000E-03 0. -1.
    9900012    2    1    2    0    0 -0.61409845605E+01 -0.24854716838E+01  0.17515378310E+02  0.72461608511E+02  0.70000049784E+02 0.  0.
         12    1    1    2    0    0  0.61409845605E+01  0.24854716838E+01 -0.17515378310E+02  0.18726391489E+02  0.00000000000E+00 0. -1.
         11    1    3    3    0    0  0.21717765587E+01 -0.18139001168E+02  0.89845623361E+01  0.20358348102E+02  0.51100000000E-03 0. -1.
        -11    1    3    3    0    0 -0.14275832823E+02 -0.11757233730E+02  0.14405917971E+02  0.23442747719E+02  0.51100000000E-03 0.  1.
         12    1    3    3    0    0  0.59630717040E+01  0.27410763215E+02 -0.58751019969E+01  0.28660512690E+02  0.00000000000E+00 0. -1.
</event>
<event>
 7    1  0.2153242E-013  0.7246159E+02  0.7816164E-02  0.1226708E+00
        -11   -1    0    0    0    0  0.00000000000E+00  0.00000000000E+00  0.45593999997E+02  0.45594000000E+02  0.51100000000E-03 0. -1.
         11   -1    0    0    0    0 -0.00000000000E+00 -0.00000000000E+00 -0.45593999997E+02  0.45594000000E+02  0.51100000000E-03 0.  1.
    9900012    2    1    2    0    0  0.16149803683E+02  0.68152362093E+01 -0.65890045472E+01  0.72461585915E+02  0.70000020348E+02 0.  0.
         12    1    1    2    0    0 -0.16149803683E+02 -0.68152362093E+01  0.65890045472E+01  0.18726414085E+02  0.00000000000E+00 0. -1.
         11    1    3    3    0    0  0.20789022994E+02 -0.13153911875E+02  0.57842459762E+01  0.25271849486E+02  0.51100000000E-03 0. -1.
        -11    1    3    3    0    0  0.11002666172E+02 -0.78610045074E+01 -0.23229415863E+01  0.13720426838E+02  0.51100000000E-03 0.  1.
         12    1    3    3    0    0 -0.15641885483E+02  0.27830152592E+02 -0.10050308937E+02  0.33469309591E+02  0.00000000000E+00 0. -1.
</event>
<event>
 7    1  0.2153242E-013  0.7246153E+02  0.7816164E-02  0.1226708E+00
        -11   -1    0    0    0    0  0.00000000000E+00  0.00000000000E+00  0.45593999997E+02  0.45594000000E+02  0.51100000000E-03 0. -1.
         11   -1    0    0    0    0 -0.00000000000E+00 -0.00000000000E+00 -0.45593999997E+02  0.45594000000E+02  0.51100000000E-03 0.  1.
    9900012    2    1    2    0    0  0.12070934206E+02 -0.13851505781E+02 -0.36206404748E+01  0.72461529365E+02  0.69999946682E+02 0.  0.
         12    1    1    2    0    0 -0.12070934206E+02  0.13851505781E+02  0.36206404748E+01  0.18726470635E+02  0.00000000000E+00 0. -1.
         11    1    3    3    0    0 -0.16218371546E+02 -0.52578459801E+01 -0.10368722693E+02  0.19954722010E+02  0.51100000000E-03 0. -1.
        -11    1    3    3    0    0  0.59258699878E+01  0.90640333127E+01  0.18698566898E+02  0.21608078103E+02  0.51100000000E-03 0.  1.
         12    1    3    3    0    0  0.22363435764E+02 -0.17657693114E+02 -0.11950484680E+02  0.30898729251E+02  0.00000000000E+00 0. -1.
</event>
<event>
 7    1  0.2153242E-013  0.7246156E+02  0.7816164E-02  0.1226708E+00
        -11   -1    0    0    0    0  0.00000000000E+00  0.00000000000E+00  0.45593999997E+02  0.45594000000E+02  0.51100000000E-03 0. -1.
         11   -1    0    0    0    0 -0.00000000000E+00 -0.00000000000E+00 -0.45593999997E+02  0.45594000000E+02  0.51100000000E-03 0.  1.
    9900012    2    1    2    0    0  0.38194126495E+01  0.18202874395E+02  0.21787471863E+01  0.72461561777E+02  0.69999988904E+02 0.  0.
         12    1    1    2    0    0 -0.38194126495E+01 -0.18202874395E+02 -0.21787471863E+01  0.18726438223E+02  0.00000000000E+00 0. -1.
         11    1    3    3    0    0 -0.13070042398E+02 -0.14763049269E+02  0.16653804926E+01  0.19787549733E+02  0.51100000000E-03 0. -1.
        -11    1    3    3    0    0  0.11065261883E+01 -0.17829374246E+00  0.13641143520E+02  0.13687110201E+02  0.51100000000E-03 0.  1.
        -12    1    3    3    0    0  0.15782928859E+02  0.33144217407E+02 -0.13127776826E+02  0.38986901842E+02  0.00000000000E+00 0.  1.
</event>
<event>
 7    1  0.2153242E-013  0.7246157E+02  0.7816164E-02  0.1226708E+00
        -11   -1    0    0    0    0  0.00000000000E+00  0.00000000000E+00  0.45593999997E+02  0.45594000000E+02  0.51100000000E-03 0. -1.
         11   -1    0    0    0    0 -0.00000000000E+00 -0.00000000000E+00 -0.45593999997E+02  0.45594000000E+02  0.51100000000E-03 0.  1.
    9900012    2    1    2    0    0 -0.54836563260E+01 -0.17896763033E+02  0.56073274212E+00  0.72461573887E+02  0.70000004680E+02 0.  0.
         12    1    1    2    0    0  0.54836563260E+01  0.17896763033E+02 -0.56073274212E+00  0.18726426113E+02  0.00000000000E+00 0. -1.
         11    1    3    3    0    0 -0.99969702217E+00 -0.20758627846E+02 -0.94150647658E+01  0.22815860032E+02  0.51100000000E-03 0. -1.
        -11    1    3    3    0    0 -0.15038089561E+02 -0.17793326559E+02  0.12281598502E+02  0.26335988110E+02  0.51100000000E-03 0.  1.
         12    1    3    3    0    0  0.10554130257E+02  0.20655191372E+02 -0.23058009944E+01  0.23309725746E+02  0.00000000000E+00 0. -1.
</event>
<event>
 7    1  0.2153242E-013  0.7246153E+02  0.7816164E-02  0.1226708E+00
        -11   -1    0    0    0    0  0.00000000000E+00  0.00000000000E+00  0.45593999997E+02  0.45594000000E+02  0.51100000000E-03 0.  1.
         11   -1    0    0    0    0 -0.00000000000E+00 -0.00000000000E+00 -0.45593999997E+02  0.45594000000E+02  0.51100000000E-03 0. -1.
    9900012    2    1    2    0    0 -0.16181128941E+02  0.61282230811E+01 -0.71621659554E+01  0.72461530148E+02  0.69999947702E+02 0.  0.
         12    1    1    2    0    0  0.16181128941E+02 -0.61282230811E+01  0.71621659554E+01  0.18726469852E+02  0.00000000000E+00 0. -1.
         11    1    3    3    0    0 -0.27398842941E+02  0.68091992394E+01 -0.13801423581E+02  0.31425166378E+02  0.51100000000E-03 0. -1.
        -11    1    3    3    0    0  0.16094436380E+01 -0.18515751280E+02  0.89836109839E+01  0.20642883056E+02  0.51100000000E-03 0.  1.
        -12    1    3    3    0    0  0.96082703622E+01  0.17834775121E+02 -0.23443533583E+01  0.20393480715E+02  0.00000000000E+00 0.  1.
</event>
<event>
 7    1  0.2153242E-013  0.7246158E+02  0.7816164E-02  0.1226708E+00
        -11   -1    0    0    0    0  0.00000000000E+00  0.00000000000E+00  0.45593999997E+02  0.45594000000E+02  0.51100000000E-03 0.  1.
         11   -1    0    0    0    0 -0.00000000000E+00 -0.00000000000E+00 -0.45593999997E+02  0.45594000000E+02  0.51100000000E-03 0. -1.
    9900012    2    1    2    0    0 -0.26522271636E+01  0.42864609337E+01  0.18035265293E+02  0.72461578813E+02  0.70000011097E+02 0.  0.
         12    1    1    2    0    0  0.26522271636E+01 -0.42864609337E+01 -0.18035265293E+02  0.18726421187E+02  0.00000000000E+00 0. -1.
         11    1    3    3    0    0  0.11520955388E+00 -0.10126846112E+02 -0.35747040429E+01  0.10739869398E+02  0.51100000000E-03 0. -1.
        -11    1    3    3    0    0 -0.18921181977E+02 -0.71346787335E+01 -0.79548084822E+01  0.21730019472E+02  0.51100000000E-03 0.  1.
         12    1    3    3    0    0  0.16153745259E+02  0.21547985780E+02  0.29564777818E+02  0.39991689943E+02  0.00000000000E+00 0. -1.
</event>
<event>
 7    1  0.2153242E-013  0.7246165E+02  0.7816164E-02  0.1226708E+00
        -11   -1    0    0    0    0  0.00000000000E+00  0.00000000000E+00  0.45593999997E+02  0.45594000000E+02  0.51100000000E-03 0. -1.
         11   -1    0    0    0    0 -0.00000000000E+00 -0.00000000000E+00 -0.45593999997E+02  0.45594000000E+02  0.51100000000E-03 0.  1.
    9900012    2    1    2    0    0 -0.70558074659E+01  0.85941632465E+01 -0.15067590397E+02  0.72461645809E+02  0.70000098372E+02 0.  0.
         12    1    1    2    0    0  0.70558074659E+01 -0.85941632465E+01  0.15067590397E+02  0.18726354191E+02  0.00000000000E+00 0. -1.
         11    1    3    3    0    0  0.10272027933E+02  0.11088682276E+02 -0.26541744634E+02  0.30544027910E+02  0.51100000000E-03 0. -1.
        -11    1    3    3    0    0  0.64299896187E+01 -0.12017657046E+02  0.87061116544E+01  0.16172978321E+02  0.51100000000E-03 0.  1.
         12    1    3    3    0    0 -0.23757825018E+02  0.95231380167E+01  0.27680425820E+01  0.25744639578E+02  0.00000000000E+00 0. -1.
</event>
<event>
 7    1  0.2153242E-013  0.7246165E+02  0.7816164E-02  0.1226708E+00
        -11   -1    0    0    0    0  0.00000000000E+00  0.00000000000E+00  0.45593999997E+02  0.45594000000E+02  0.51100000000E-03 0.  1.
         11   -1    0    0    0    0 -0.00000000000E+00 -0.00000000000E+00 -0.45593999997E+02  0.45594000000E+02  0.51100000000E-03 0. -1.
    9900012    2    1    2    0    0  0.62221327593E+01 -0.17632100310E+02 -0.10345190772E+01  0.72461651526E+02  0.70000105820E+02 0.  0.
         12    1    1    2    0    0 -0.62221327593E+01  0.17632100310E+02  0.10345190772E+01  0.18726348474E+02  0.00000000000E+00 0. -1.
         11    1    3    3    0    0 -0.54955663100E+01  0.46943815570E+01  0.45948962022E+01  0.85645512808E+01  0.51100000000E-03 0. -1.
        -11    1    3    3    0    0 -0.22610714131E+02 -0.18287777438E+02 -0.28688572731E+01  0.29221867487E+02  0.51100000000E-03 0.  1.
         12    1    3    3    0    0  0.34328413201E+02 -0.40387044296E+01 -0.27605580063E+01  0.34675232758E+02  0.00000000000E+00 0. -1.
</event>
<event>
 7    1  0.2153242E-013  0.7246180E+02  0.7816164E-02  0.1226707E+00
        -11   -1    0    0    0    0  0.00000000000E+00  0.00000000000E+00  0.45593999997E+02  0.45594000000E+02  0.51100000000E-03 0. -1.
         11   -1    0    0    0    0 -0.00000000000E+00 -0.00000000000E+00 -0.45593999997E+02  0.45594000000E+02  0.51100000000E-03 0.  1.
    9900012    2    1    2    0    0 -0.59946465483E+01  0.15357927786E+02 -0.88808171412E+01  0.72461797870E+02  0.70000296459E+02 0.  0.
         12    1    1    2    0    0  0.59946465483E+01 -0.15357927786E+02  0.88808171412E+01  0.18726202130E+02  0.00000000000E+00 0. -1.
         11    1    3    3    0    0 -0.16272643654E+02  0.30975898749E+02  0.54888695856E+01  0.35417974595E+02  0.51100000000E-03 0. -1.
        -11    1    3    3    0    0  0.54635520529E+01 -0.39948059031E+01  0.85461707834E+01  0.10901647149E+02  0.51100000000E-03 0.  1.
        -12    1    3    3    0    0  0.48144450527E+01 -0.11623165060E+02 -0.22915857510E+02  0.26142176126E+02  0.00000000000E+00 0.  1.
</event>
<event>
 7    1  0.2153242E-013  0.7246156E+02  0.7816164E-02  0.1226708E+00
        -11   -1    0    0    0    0  0.00000000000E+00  0.00000000000E+00  0.45593999997E+02  0.45594000000E+02  0.51100000000E-03 0.  1.
         11   -1    0    0    0    0 -0.00000000000E+00 -0.00000000000E+00 -0.45593999997E+02  0.45594000000E+02  0.51100000000E-03 0. -1.
    9900012    2    1    2    0    0  0.31593381442E+01 -0.15989403139E+02 -0.92215667144E+01  0.72461555519E+02  0.69999980752E+02 0.  0.
         12    1    1    2    0    0 -0.31593381442E+01  0.15989403139E+02  0.92215667144E+01  0.18726444481E+02  0.00000000000E+00 0. -1.
         11    1    3    3    0    0  0.31867781217E+00 -0.78196432271E+01 -0.17878320693E+02  0.19516217021E+02  0.51100000000E-03 0. -1.
        -11    1    3    3    0    0 -0.10876670997E+02 -0.25604245479E+02  0.12383675469E+02  0.30450529994E+02  0.51100000000E-03 0.  1.
        -12    1    3    3    0    0  0.13717331329E+02  0.17434485568E+02 -0.37269214894E+01  0.22494808503E+02  0.00000000000E+00 0.  1.
</event>
<event>
 7    1  0.2153242E-013  0.7246157E+02  0.7816164E-02  0.1226708E+00
        -11   -1    0    0    0    0  0.00000000000E+00  0.00000000000E+00  0.45593999997E+02  0.45594000000E+02  0.51100000000E-03 0.  1.
         11   -1    0    0    0    0 -0.00000000000E+00 -0.00000000000E+00 -0.45593999997E+02  0.45594000000E+02  0.51100000000E-03 0. -1.
    9900012    2    1    2    0    0 -0.14238922999E+02 -0.63058499849E+01  0.10400406206E+02  0.72461571578E+02  0.70000001672E+02 0.  0.
         12    1    1    2    0    0  0.14238922999E+02  0.63058499849E+01 -0.10400406206E+02  0.18726428422E+02  0.00000000000E+00 0. -1.
         11    1    3    3    0    0 -0.11753199944E+02 -0.82170884060E+01  0.21071839992E+02  0.25488834648E+02  0.51100000000E-03 0. -1.
        -11    1    3    3    0    0 -0.19055236921E+02 -0.13108241513E+02 -0.29613972057E+01  0.23317330966E+02  0.51100000000E-03 0.  1.
         12    1    3    3    0    0  0.16569513867E+02  0.15019479934E+02 -0.77100365804E+01  0.23655405965E+02  0.00000000000E+00 0. -1.
</event>
<event>
 7    1  0.2153242E-013  0.7246154E+02  0.7816164E-02  0.1226708E+00
        -11   -1    0    0    0    0  0.00000000000E+00  0.00000000000E+00  0.45593999997E+02  0.45594000000E+02  0.51100000000E-03 0.  1.
         11   -1    0    0    0    0 -0.00000000000E+00 -0.00000000000E+00 -0.45593999997E+02  0.45594000000E+02  0.51100000000E-03 0. -1.
    9900012    2    1    2    0    0 -0.85281412979E+01 -0.16130993323E+02 -0.42121445700E+01  0.72461540071E+02  0.69999960629E+02 0.  0.
         12    1    1    2    0    0  0.85281412979E+01  0.16130993323E+02  0.42121445700E+01  0.18726459929E+02  0.00000000000E+00 0. -1.
         11    1    3    3    0    0 -0.22804255294E+02 -0.14712219646E+02 -0.27023203824E+02  0.38298002710E+02  0.51100000000E-03 0. -1.
        -11    1    3    3    0    0  0.19550668556E+01 -0.83577447058E+01  0.16935545785E+01  0.87488462296E+01  0.51100000000E-03 0.  1.
        -12    1    3    3    0    0  0.12321047140E+02  0.69389710290E+01  0.21117504676E+02  0.25414691131E+02  0.00000000000E+00 0.  1.
</event>
<event>
 7    1  0.2153242E-013  0.7246174E+02  0.7816164E-02  0.1226708E+00
        -11   -1    0    0    0    0  0.00000000000E+00  0.00000000000E+00  0.45593999997E+02  0.45594000000E+02  0.51100000000E-03 0. -1.
         11   -1    0    0    0    0 -0.00000000000E+00 -0.00000000000E+00 -0.45593999997E+02  0.45594000000E+02  0.51100000000E-03 0.  1.
    9900012    2    1    2    0    0 -0.32045474052E+01 -0.36495553395E+00 -0.18446419484E+02  0.72461742809E+02  0.70000224732E+02 0.  0.
         12    1    1    2    0    0  0.32045474052E+01  0.36495553395E+00  0.18446419484E+02  0.18726257191E+02  0.00000000000E+00 0. -1.
         11    1    3    3    0    0 -0.56209789527E+01  0.27585786044E+02 -0.20603145708E+02  0.34886395764E+02  0.51100000000E-03 0. -1.
        -11    1    3    3    0    0 -0.67576427318E+01 -0.10920509815E+02 -0.85863922772E+01  0.15448281539E+02  0.51100000000E-03 0.  1.
        -12    1    3    3    0    0  0.91740742794E+01 -0.17030231763E+02  0.10743118501E+02  0.22127065506E+02  0.00000000000E+00 0.  1.
</event>
<event>
 7    1  0.2153242E-013  0.7246160E+02  0.7816164E-02  0.1226708E+00
        -11   -1    0    0    0    0  0.00000000000E+00  0.00000000000E+00  0.45593999997E+02  0.45594000000E+02  0.51100000000E-03 0.  1.
         11   -1    0    0    0    0 -0.00000000000E+00 -0.00000000000E+00 -0.45593999997E+02  0.45594000000E+02  0.51100000000E-03 0. -1.
    9900012    2    1    2    0    0  0.19375432808E+01  0.73450452877E+01  0.17116489141E+02  0.72461602462E+02  0.70000041904E+02 0.  0.
         12    1    1    2    0    0 -0.19375432808E+01 -0.73450452877E+01 -0.17116489141E+02  0.18726397538E+02  0.00000000000E+00 0. -1.
         11    1    3    3    0    0  0.43988032306E+01  0.12239096998E+02 -0.12060741358E+02  0.17737148800E+02  0.51100000000E-03 0. -1.
        -11    1    3    3    0    0  0.11186586105E+02 -0.65540372179E+01 -0.78985615191E+01  0.15181646382E+02  0.51100000000E-03 0.  1.
        -12    1    3    3    0    0 -0.13647846055E+02  0.16599855074E+01  0.37075792018E+02  0.39542807280E+02  0.00000000000E+00 0.  1.
</event>
<event>
 7    1  0.2153242E-013  0.7246158E+02  0.7816164E-02  0.1226708E+00
        -11   -1    0    0    0    0  0.00000000000E+00  0.00000000000E+00  0.45593999997E+02  0.45594000000E+02  0.51100000000E-03 0.  1.
         11   -1    0    0    0    0 -0.00000000000E+00 -0.00000000000E+00 -0.45593999997E+02  0.45594000000E+02  0.51100000000E-03 0. -1.
    9900012    2    1    2    0    0  0.10225815538E+02 -0.55569066149E+01  0.14670794179E+02  0.72461582393E+02  0.70000015761E+02 0.  0.
         12    1    1    2    0    0 -0.10225815538E+02  0.55569066149E+01 -0.14670794179E+02  0.18726417607E+02  0.00000000000E+00 0. -1.
         11    1    3    3    0    0 -0.22082199070E+01 -0.97021372993E+01  0.15147185627E+02  0.18123049854E+02  0.51100000000E-03 0. -1.
        -11    1    3    3    0    0  0.24043505519E+01 -0.76101374118E+01  0.24055843999E+02  0.25345191335E+02  0.51100000000E-03 0.  1.
         12    1    3    3    0    0  0.10029684893E+02  0.11755368096E+02 -0.24532235448E+02  0.28993341205E+02  0.00000000000E+00 0. -1.
</event>
<event>
 7    1  0.2153242E-013  0.7246156E+02  0.7816164E-02  0.1226708E+00
        -11   -1    0    0    0    0  0.00000000000E+00  0.00000000000E+00  0.45593999997E+02  0.45594000000E+02  0.51100000000E-03 0.  1.
         11   -1    0    0    0    0 -0.00000000000E+00 -0.00000000000E+00 -0.45593999997E+02  0.45594000000E+02  0.51100000000E-03 0. -1.
    9900012    2    1    2    0    0 -0.15557608448E+02 -0.10399979678E+02  0.69330860650E+00  0.72461563213E+02  0.69999990775E+02 0.  0.
         12    1    1    2    0    0  0.15557608448E+02  0.10399979678E+02 -0.69330860650E+00  0.18726436787E+02  0.00000000000E+00 0. -1.
         11    1    3    3    0    0  0.10031027179E+02 -0.23868683798E+02 -0.10390665574E+01  0.25911681383E+02  0.51100000000E-03 0. -1.
        -11    1    3    3    0    0  0.73278017491E+01  0.12009408473E+01  0.79468996594E+01  0.10876219557E+02  0.51100000000E-03 0.  1.
        -12    1    3    3    0    0 -0.32916437376E+02  0.12267763273E+02 -0.62145244956E+01  0.35673662273E+02  0.00000000000E+00 0.  1.
</event>
<event>
 7    1  0.2153242E-013  0.7246160E+02  0.7816164E-02  0.1226708E+00
        -11   -1    0    0    0    0  0.00000000000E+00  0.00000000000E+00  0.45593999997E+02  0.45594000000E+02  0.51100000000E-03 0. -1.
         11   -1    0    0    0    0 -0.00000000000E+00 -0.00000000000E+00 -0.45593999997E+02  0.45594000000E+02  0.51100000000E-03 0.  1.
    9900012    2    1    2    0    0  0.22834266238E+00 -0.10384595182E+01 -0.18696192382E+02  0.72461597566E+02  0.70000035526E+02 0.  0.
         12    1    1    2    0    0 -0.22834266238E+00  0.10384595182E+01  0.18696192382E+02  0.18726402434E+02  0.00000000000E+00 0. -1.
         11    1    3    3    0    0  0.43393062322E+01  0.37950468572E+01 -0.60960042008E+01  0.83900671453E+01  0.51100000000E-03 0. -1.
        -11    1    3    3    0    0  0.31618671312E+01  0.23199344167E+02 -0.23456818356E+02  0.33142560268E+02  0.51100000000E-03 0.  1.
         12    1    3    3    0    0 -0.72728307010E+01 -0.28032850542E+02  0.10856630174E+02  0.30928970152E+02  0.00000000000E+00 0. -1.
</event>
<event>
 7    1  0.2153242E-013  0.7246154E+02  0.7816164E-02  0.1226708E+00
        -11   -1    0    0    0    0  0.00000000000E+00  0.00000000000E+00  0.45593999997E+02  0.45594000000E+02  0.51100000000E-03 0.  1.
         11   -1    0    0    0    0 -0.00000000000E+00 -0.00000000000E+00 -0.45593999997E+02  0.45594000000E+02  0.51100000000E-03 0. -1.
    9900012    2    1    2    0    0 -0.58668143203E+01 -0.38737553453E+01  0.17356695046E+02  0.72461538677E+02  0.69999958813E+02 0.  0.
         12    1    1    2    0    0  0.58668143203E+01  0.38737553453E+01 -0.17356695046E+02  0.18726461323E+02  0.00000000000E+00 0. -1.
         11    1    3    3    0    0  0.23212667489E+02 -0.74881615251E+01 -0.28727422311E+01  0.24559176354E+02  0.51100000000E-03 0. -1.
        -11    1    3    3    0    0  0.30621139470E+01 -0.61192840751E+01  0.11202818968E+02  0.13127274374E+02  0.51100000000E-03 0.  1.
        -12    1    3    3    0    0 -0.32141595756E+02  0.97336902549E+01  0.90266183096E+01  0.34775087949E+02  0.00000000000E+00 0.  1.
</event>
<event>
 7    1  0.2826430E-013  0.7246158E+02  0.7816164E-02  0.1226708E+00
        -11   -1    0    0    0    0  0.00000000000E+00  0.00000000000E+00  0.45593999997E+02  0.45594000000E+02  0.51100000000E-03 0. -1.
         11   -1    0    0    0    0 -0.00000000000E+00 -0.00000000000E+00 -0.45593999997E+02  0.45594000000E+02  0.51100000000E-03 0.  1.
    9900012    2    1    2    0    0 -0.62684526547E+01  0.37207959754E+01 -0.17249377251E+02  0.72461579175E+02  0.70000011568E+02 0.  0.
         12    1    1    2    0    0  0.62684526547E+01 -0.37207959754E+01  0.17249377251E+02  0.18726420825E+02  0.00000000000E+00 0. -1.
         11    1    3    3    0    0  0.46289067243E+01  0.54167371997E+01 -0.71805361107E+01  0.10115726294E+02  0.51100000000E-03 0. -1.
        -11    1    3    3    0    0 -0.22486253181E+02 -0.26215219486E+01 -0.31009807339E+02  0.38394167668E+02  0.51100000000E-03 0.  1.
         12    1    3    3    0    0  0.11588893802E+02  0.92558072427E+00  0.20940966198E+02  0.23951685213E+02  0.00000000000E+00 0. -1.
</event>
<event>
 7    1  0.2153242E-013  0.7246155E+02  0.7816164E-02  0.1226708E+00
        -11   -1    0    0    0    0  0.00000000000E+00  0.00000000000E+00  0.45593999997E+02  0.45594000000E+02  0.51100000000E-03 0.  1.
         11   -1    0    0    0    0 -0.00000000000E+00 -0.00000000000E+00 -0.45593999997E+02  0.45594000000E+02  0.51100000000E-03 0. -1.
    9900012    2    1    2    0    0 -0.12473226631E+01 -0.18624692751E+02  0.14983499480E+01  0.72461546880E+02  0.69999969498E+02 0.  0.
         12    1    1    2    0    0  0.12473226631E+01  0.18624692751E+02 -0.14983499480E+01  0.18726453120E+02  0.00000000000E+00 0. -1.
         11    1    3    3    0    0 -0.17328689998E+01  0.11526869918E+02 -0.13867806263E+02  0.18115949213E+02  0.51100000000E-03 0. -1.
        -11    1    3    3    0    0 -0.53816705941E+01  0.73173256967E+01 -0.59322989391E+01  0.10848861908E+02  0.51100000000E-03 0.  1.
        -12    1    3    3    0    0  0.58672169308E+01 -0.37468888366E+02  0.21298455150E+02  0.43496735759E+02  0.00000000000E+00 0.  1.
</event>
<event>
 7    1  0.2153242E-013  0.7246166E+02  0.7816164E-02  0.1226708E+00
        -11   -1    0    0    0    0  0.00000000000E+00  0.00000000000E+00  0.45593999997E+02  0.45594000000E+02  0.51100000000E-03 0.  1.
         11   -1    0    0    0    0 -0.00000000000E+00 -0.00000000000E+00 -0.45593999997E+02  0.45594000000E+02  0.51100000000E-03 0. -1.
    9900012    2    1    2    0    0 -0.12077425001E+02  0.67903814165E+01  0.12597711387E+02  0.72461660084E+02  0.70000116968E+02 0.  0.
         12    1    1    2    0    0  0.12077425001E+02 -0.67903814165E+01 -0.12597711387E+02  0.18726339916E+02  0.00000000000E+00 0. -1.
         11    1    3    3    0    0  0.21004932212E+01  0.21651290376E+02 -0.61994132590E+01  0.22619088658E+02  0.51100000000E-03 0. -1.
        -11    1    3    3    0    0 -0.12720498829E+02  0.48028146875E+01  0.25597927134E+02  0.28985030501E+02  0.51100000000E-03 0.  1.
        -12    1    3    3    0    0 -0.14574193940E+01 -0.19663723647E+02 -0.68008024876E+01  0.20857540925E+02  0.00000000000E+00 0.  1.
</event>
<event>
 7    1  0.2153242E-013  0.7246158E+02  0.7816164E-02  0.1226708E+00
        -11   -1    0    0    0    0  0.00000000000E+00  0.00000000000E+00  0.45593999997E+02  0.45594000000E+02  0.51100000000E-03 0. -1.
         11   -1    0    0    0    0 -0.00000000000E+00 -0.00000000000E+00 -0.45593999997E+02  0.45594000000E+02  0.51100000000E-03 0.  1.
    9900012    2    1    2    0    0  0.81371613755E+01 -0.16832975025E+02  0.10565300206E+01  0.72461582854E+02  0.70000016361E+02 0.  0.
         12    1    1    2    0    0 -0.81371613755E+01  0.16832975025E+02 -0.10565300206E+01  0.18726417146E+02  0.00000000000E+00 0. -1.
         11    1    3    3    0    0  0.95904997845E+01 -0.73274108899E+01 -0.16985435996E+02  0.20836834518E+02  0.51100000000E-03 0. -1.
        -11    1    3    3    0    0 -0.74938852632E+01  0.29158749140E+01 -0.14328472244E+02  0.16430634801E+02  0.51100000000E-03 0.  1.
         12    1    3    3    0    0  0.60405468542E+01 -0.12421439049E+02  0.32370438261E+02  0.35194113535E+02  0.00000000000E+00 0. -1.
</event>
<event>
 7    1  0.2153242E-013  0.7246159E+02  0.7816164E-02  0.1226708E+00
        -11   -1    0    0    0    0  0.00000000000E+00  0.00000000000E+00  0.45593999997E+02  0.45594000000E+02  0.51100000000E-03 0.  1.
         11   -1    0    0    0    0 -0.00000000000E+00 -0.00000000000E+00 -0.45593999997E+02  0.45594000000E+02  0.51100000000E-03 0. -1.
    9900012    2    1    2    0    0 -0.10533403147E+02  0.11540225602E+02  0.10322267624E+02  0.72461585562E+02  0.70000019889E+02 0.  0.
         12    1    1    2    0    0  0.10533403147E+02 -0.11540225602E+02 -0.10322267624E+02  0.18726414438E+02  0.00000000000E+00 0. -1.
         11    1    3    3    0    0  0.24254247582E+01  0.35547329966E+01  0.45889103602E+01  0.62910182395E+01  0.51100000000E-03 0. -1.
        -11    1    3    3    0    0  0.51295466724E+01 -0.15899413763E+02  0.25349092568E+02  0.30359184794E+02  0.51100000000E-03 0.  1.
         12    1    3    3    0    0 -0.18088374577E+02  0.23884906369E+02 -0.19615735304E+02  0.35811382528E+02  0.00000000000E+00 0. -1.
</event>
<event>
 7    1  0.2153242E-013  0.7246159E+02  0.7816164E-02  0.1226708E+00
        -11   -1    0    0    0    0  0.00000000000E+00  0.00000000000E+00  0.45593999997E+02  0.45594000000E+02  0.51100000000E-03 0.  1.
         11   -1    0    0    0    0 -0.00000000000E+00 -0.00000000000E+00 -0.45593999997E+02  0.45594000000E+02  0.51100000000E-03 0. -1.
    9900012    2    1    2    0    0  0.24573847253E+01 -0.12506239815E+02  0.13719830113E+02  0.72461587841E+02  0.70000022858E+02 0.  0.
         12    1    1    2    0    0 -0.24573847253E+01  0.12506239815E+02 -0.13719830113E+02  0.18726412159E+02  0.00000000000E+00 0. -1.
         11    1    3    3    0    0  0.12521220862E+02 -0.21277098631E+01 -0.15049323263E+02  0.19692390715E+02  0.51100000000E-03 0. -1.
        -11    1    3    3    0    0 -0.26068071334E+01 -0.16875108492E+02 -0.48295534358E+01  0.17745120926E+02  0.51100000000E-03 0.  1.
        -12    1    3    3    0    0 -0.74570290031E+01  0.64965785395E+01  0.33598706812E+02  0.35024076200E+02  0.00000000000E+00 0.  1.
</event>
<event>
 7    1  0.2153242E-013  0.7246157E+02  0.7816164E-02  0.1226708E+00
        -11   -1    0    0    0    0  0.00000000000E+00  0.00000000000E+00  0.45593999997E+02  0.45594000000E+02  0.51100000000E-03 0.  1.
         11   -1    0    0    0    0 -0.00000000000E+00 -0.00000000000E+00 -0.45593999997E+02  0.45594000000E+02  0.51100000000E-03 0. -1.
    9900012    2    1    2    0    0  0.23550140463E+01  0.75048028630E+01  0.16994436267E+02  0.72461574255E+02  0.70000005159E+02 0.  0.
         12    1    1    2    0    0 -0.23550140463E+01 -0.75048028630E+01 -0.16994436267E+02  0.18726425745E+02  0.00000000000E+00 0. -1.
         11    1    3    3    0    0  0.73775094906E+00 -0.45187274750E+01 -0.49236278801E+01  0.67234876529E+01  0.51100000000E-03 0. -1.
        -11    1    3    3    0    0  0.85716229544E+01  0.35800984716E+02  0.94622345752E+01  0.38009434488E+02  0.51100000000E-03 0.  1.
         12    1    3    3    0    0 -0.69543598572E+01 -0.23777454378E+02  0.12455829572E+02  0.27728652113E+02  0.00000000000E+00 0. -1.
</event>
<event>
 7    1  0.2153242E-013  0.7246146E+02  0.7816164E-02  0.1226708E+00
        -11   -1    0    0    0    0  0.00000000000E+00  0.00000000000E+00  0.45593999997E+02  0.45594000000E+02  0.51100000000E-03 0.  1.
         11   -1    0    0    0    0 -0.00000000000E+00 -0.00000000000E+00 -0.45593999997E+02  0.45594000000E+02  0.51100000000E-03 0. -1.
    9900012    2    1    2    0    0 -0.39178259750E+01 -0.13106040346E+02 -0.12789283309E+02  0.72461456767E+02  0.69999852109E+02 0.  0.
         12    1    1    2    0    0  0.39178259750E+01  0.13106040346E+02  0.12789283309E+02  0.18726543233E+02  0.00000000000E+00 0. -1.
         11    1    3    3    0    0 -0.11988108678E+02  0.22227875679E+02 -0.10246349916E+02  0.27254006930E+02  0.51100000000E-03 0. -1.
        -11    1    3    3    0    0 -0.37001736120E+01 -0.74425110016E+01  0.95035594817E+01  0.12625367236E+02  0.51100000000E-03 0.  1.
        -12    1    3    3    0    0  0.11770456315E+02 -0.27891405023E+02 -0.12046492874E+02  0.32582082600E+02  0.00000000000E+00 0.  1.
</event>
<event>
 7    1  0.2153242E-013  0.7246157E+02  0.7816164E-02  0.1226708E+00
        -11   -1    0    0    0    0  0.00000000000E+00  0.00000000000E+00  0.45593999997E+02  0.45594000000E+02  0.51100000000E-03 0.  1.
         11   -1    0    0    0    0 -0.00000000000E+00 -0.00000000000E+00 -0.45593999997E+02  0.45594000000E+02  0.51100000000E-03 0. -1.
    9900012    2    1    2    0    0  0.87669780927E+01  0.67603994418E+01  0.15103514108E+02  0.72461573649E+02  0.70000004370E+02 0.  0.
         12    1    1    2    0    0 -0.87669780927E+01 -0.67603994418E+01 -0.15103514108E+02  0.18726426351E+02  0.00000000000E+00 0. -1.
         11    1    3    3    0    0  0.32571579023E+01 -0.24180060834E+02  0.16150741142E+02  0.29259713929E+02  0.51100000000E-03 0. -1.
        -11    1    3    3    0    0  0.14524130545E+02  0.21372500107E+02 -0.95470322610E+01  0.27547775848E+02  0.51100000000E-03 0.  1.
        -12    1    3    3    0    0 -0.90143103551E+01  0.95679601688E+01  0.84998052263E+01  0.15654083871E+02  0.00000000000E+00 0.  1.
</event>
<event>
 7    1  0.2153242E-013  0.7246169E+02  0.7816164E-02  0.1226708E+00
        -11   -1    0    0    0    0  0.00000000000E+00  0.00000000000E+00  0.45593999997E+02  0.45594000000E+02  0.51100000000E-03 0. -1.
         11   -1    0    0    0    0 -0.00000000000E+00 -0.00000000000E+00 -0.45593999997E+02  0.45594000000E+02  0.51100000000E-03 0.  1.
    9900012    2    1    2    0    0 -0.11137868779E+01  0.18590199238E+02 -0.19592732663E+01  0.72461687479E+02  0.70000152654E+02 0.  0.
         12    1    1    2    0    0  0.11137868779E+01 -0.18590199238E+02  0.19592732663E+01  0.18726312521E+02  0.00000000000E+00 0. -1.
         11    1    3    3    0    0 -0.30147913868E+01  0.25282596503E+02  0.61136203569E+01  0.26185396830E+02  0.51100000000E-03 0. -1.
        -11    1    3    3    0    0 -0.12971356412E+02  0.14047186953E+02 -0.80750086471E+01  0.20755368303E+02  0.51100000000E-03 0.  1.
         12    1    3    3    0    0  0.14872360921E+02 -0.20739584218E+02  0.21150239894E-02  0.25520922346E+02  0.00000000000E+00 0. -1.
</event>
<event>
 7    1  0.2153242E-013  0.7246157E+02  0.7816164E-02  0.1226708E+00
        -11   -1    0    0    0    0  0.00000000000E+00  0.00000000000E+00  0.45593999997E+02  0.45594000000E+02  0.51100000000E-03 0.  1.
         11   -1    0    0    0    0 -0.00000000000E+00 -0.00000000000E+00 -0.45593999997E+02  0.45594000000E+02  0.51100000000E-03 0. -1.
    9900012    2    1    2    0    0  0.18503296717E+02 -0.20873395894E+01 -0.19874707169E+01  0.72461574399E+02  0.70000005347E+02 0.  0.
         12    1    1    2    0    0 -0.18503296717E+02  0.20873395894E+01  0.19874707169E+01  0.18726425601E+02  0.00000000000E+00 0. -1.
         11    1    3    3    0    0  0.14370461569E+01 -0.76382916394E+01  0.17242489456E+02  0.18913276916E+02  0.51100000000E-03 0. -1.
        -11    1    3    3    0    0  0.18791491601E+02 -0.18199388745E+02 -0.10383429185E+02  0.28145221782E+02  0.51100000000E-03 0.  1.
        -12    1    3    3    0    0 -0.17252410408E+01  0.23750340795E+02 -0.88465309872E+01  0.25403075700E+02  0.00000000000E+00 0.  1.
</event>
<event>
 7    1  0.2153242E-013  0.7246153E+02  0.7816164E-02  0.1226708E+00
        -11   -1    0    0    0    0  0.00000000000E+00  0.00000000000E+00  0.45593999997E+02  0.45594000000E+02  0.51100000000E-03 0.  1.
         11   -1    0    0    0    0 -0.00000000000E+00 -0.00000000000E+00 -0.45593999997E+02  0.45594000000E+02  0.51100000000E-03 0. -1.
    9900012    2    1    2    0    0 -0.15848562193E+02 -0.99727450271E+01  0.21971238843E+00  0.72461525679E+02  0.69999941880E+02 0.  0.
         12    1    1    2    0    0  0.15848562193E+02  0.99727450271E+01 -0.21971238843E+00  0.18726474321E+02  0.00000000000E+00 0. -1.
         11    1    3    3    0    0 -0.32032426213E+01  0.12322113562E+02  0.79282904486E+00  0.12756324866E+02  0.51100000000E-03 0. -1.
        -11    1    3    3    0    0 -0.14424044344E+01  0.77129304845E+01  0.20103438616E+02  0.21580502118E+02  0.51100000000E-03 0.  1.
         12    1    3    3    0    0 -0.11202915137E+02 -0.30007789074E+02 -0.20676555272E+02  0.38124698695E+02  0.00000000000E+00 0. -1.
</event>
<event>
 7    1  0.2153242E-013  0.7246164E+02  0.7816164E-02  0.1226708E+00
        -11   -1    0    0    0    0  0.00000000000E+00  0.00000000000E+00  0.45593999997E+02  0.45594000000E+02  0.51100000000E-03 0.  1.
         11   -1    0    0    0    0 -0.00000000000E+00 -0.00000000000E+00 -0.45593999997E+02  0.45594000000E+02  0.51100000000E-03 0. -1.
    9900012    2    1    2    0    0 -0.15240687737E+02 -0.77656959365E+01  0.76218166464E+01  0.72461636630E+02  0.70000086414E+02 0.  0.
         12    1    1    2    0    0  0.15240687737E+02  0.77656959365E+01 -0.76218166464E+01  0.18726363370E+02  0.00000000000E+00 0. -1.
         11    1    3    3    0    0  0.90644040009E+01  0.89611985313E+01  0.87281996949E+01  0.15448235148E+02  0.51100000000E-03 0. -1.
        -11    1    3    3    0    0  0.36110673692E+01  0.62089255845E+01  0.15625528060E+02  0.17197316414E+02  0.51100000000E-03 0.  1.
        -12    1    3    3    0    0 -0.27916159107E+02 -0.22935820052E+02 -0.16731911108E+02  0.39816085067E+02  0.00000000000E+00 0.  1.
</event>
<event>
 7    1  0.2153242E-013  0.7246161E+02  0.7816164E-02  0.1226708E+00
        -11   -1    0    0    0    0  0.00000000000E+00  0.00000000000E+00  0.45593999997E+02  0.45594000000E+02  0.51100000000E-03 0.  1.
         11   -1    0    0    0    0 -0.00000000000E+00 -0.00000000000E+00 -0.45593999997E+02  0.45594000000E+02  0.51100000000E-03 0. -1.
    9900012    2    1    2    0    0 -0.12633552210E+02  0.13520405156E+02  0.28757068216E+01  0.72461609884E+02  0.70000051573E+02 0.  0.
         12    1    1    2    0    0  0.12633552210E+02 -0.13520405156E+02 -0.28757068216E+01  0.18726390116E+02  0.00000000000E+00 0. -1.
         11    1    3    3    0    0 -0.97129333323E+01  0.35412975107E+02 -0.23251011813E+01  0.36794374238E+02  0.51100000000E-03 0. -1.
        -11    1    3    3    0    0  0.83355595002E+01 -0.75110693674E+01 -0.74341918061E+01  0.13459751977E+02  0.51100000000E-03 0.  1.
        -12    1    3    3    0    0 -0.11256178378E+02 -0.14381500583E+02  0.12634999809E+02  0.22207483668E+02  0.00000000000E+00 0.  1.
</event>
<event>
 7    1  0.2703935E-013  0.7246160E+02  0.7816164E-02  0.1226708E+00
        -11   -1    0    0    0    0  0.00000000000E+00  0.00000000000E+00  0.45593999997E+02  0.45594000000E+02  0.51100000000E-03 0. -1.
         11   -1    0    0    0    0 -0.00000000000E+00 -0.00000000000E+00 -0.45593999997E+02  0.45594000000E+02  0.51100000000E-03 0.  1.
    9900012    2    1    2    0    0  0.77324658156E+01  0.11135709474E+02 -0.12918322659E+02  0.72461598493E+02  0.70000036734E+02 0.  0.
         12    1    1    2    0    0 -0.77324658156E+01 -0.11135709474E+02  0.12918322659E+02  0.18726401507E+02  0.00000000000E+00 0. -1.
         11    1    3    3    0    0 -0.60016852786E+01 -0.14031996850E+00  0.12466005264E+01  0.61313888321E+01  0.51100000000E-03 0. -1.
        -11    1    3    3    0    0 -0.20741559515E+02  0.10879839505E+02 -0.20676621687E+02  0.31242693280E+02  0.51100000000E-03 0.  1.
         12    1    3    3    0    0  0.34475710609E+02  0.39618993771E+00  0.65116985015E+01  0.35087516381E+02  0.00000000000E+00 0. -1.
</event>
<event>
 7    1  0.2153242E-013  0.7246154E+02  0.7816164E-02  0.1226708E+00
        -11   -1    0    0    0    0  0.00000000000E+00  0.00000000000E+00  0.45593999997E+02  0.45594000000E+02  0.51100000000E-03 0.  1.
         11   -1    0    0    0    0 -0.00000000000E+00 -0.00000000000E+00 -0.45593999997E+02  0.45594000000E+02  0.51100000000E-03 0. -1.
    9900012    2    1    2    0    0  0.12761365728E+02  0.13192652731E+02  0.37123738081E+01  0.72461541162E+02  0.69999962049E+02 0.  0.
         12    1    1    2    0    0 -0.12761365728E+02 -0.13192652731E+02 -0.37123738081E+01  0.18726458838E+02  0.00000000000E+00 0. -1.
         11    1    3    3    0    0 -0.22164208136E+00  0.24226020623E+01 -0.23648954824E+01  0.33927653719E+01  0.51100000000E-03 0. -1.
        -11    1    3    3    0    0  0.76282163068E+01  0.28635111977E+02 -0.20907017791E+02  0.36266550913E+02  0.51100000000E-03 0.  1.
         12    1    3    3    0    0  0.53547915026E+01 -0.17865061308E+02  0.26984287082E+02  0.32802224877E+02  0.00000000000E+00 0. -1.
</event>
<event>
 7    1  0.2153242E-013  0.7246150E+02  0.7816164E-02  0.1226708E+00
        -11   -1    0    0    0    0  0.00000000000E+00  0.00000000000E+00  0.45593999997E+02  0.45594000000E+02  0.51100000000E-03 0. -1.
         11   -1    0    0    0    0 -0.00000000000E+00 -0.00000000000E+00 -0.45593999997E+02  0.45594000000E+02  0.51100000000E-03 0.  1.
    9900012    2    1    2    0    0 -0.14915065008E+02  0.10565506874E+02  0.40734352970E+01  0.72461495393E+02  0.69999902427E+02 0.  0.
         12    1    1    2    0    0  0.14915065008E+02 -0.10565506874E+02 -0.40734352970E+01  0.18726504607E+02  0.00000000000E+00 0. -1.
         11    1    3    3    0    0 -0.98631626927E+01  0.78768536763E+01  0.23327753166E+02  0.26523779334E+02  0.51100000000E-03 0. -1.
        -11    1    3    3    0    0 -0.60859459067E-01  0.20198921718E+02 -0.11047241232E+01  0.20229200629E+02  0.51100000000E-03 0.  1.
         12    1    3    3    0    0 -0.49910428559E+01 -0.17510268520E+02 -0.18149593746E+02  0.25708515430E+02  0.00000000000E+00 0. -1.
</event>
<event>
 7    1  0.2153242E-013  0.7246156E+02  0.7816164E-02  0.1226708E+00
        -11   -1    0    0    0    0  0.00000000000E+00  0.00000000000E+00  0.45593999997E+02  0.45594000000E+02  0.51100000000E-03 0. -1.
         11   -1    0    0    0    0 -0.00000000000E+00 -0.00000000000E+00 -0.45593999997E+02  0.45594000000E+02  0.51100000000E-03 0.  1.
    9900012    2    1    2    0    0 -0.12158783003E+02  0.77621053396E+01 -0.11941246696E+02  0.72461557303E+02  0.69999983077E+02 0.  0.
         12    1    1    2    0    0  0.12158783003E+02 -0.77621053396E+01  0.11941246696E+02  0.18726442697E+02  0.00000000000E+00 0. -1.
         11    1    3    3    0    0 -0.13400000266E+02  0.30693838496E+02  0.31130451410E+01  0.33635736636E+02  0.51100000000E-03 0. -1.
        -11    1    3    3    0    0 -0.45572849364E+01  0.52718430712E+01 -0.35308719527E+01  0.78120568589E+01  0.51100000000E-03 0.  1.
         12    1    3    3    0    0  0.57985021987E+01 -0.28203576227E+02 -0.11523419884E+02  0.31013763809E+02  0.00000000000E+00 0. -1.
</event>
<event>
 7    1  0.2153242E-013  0.7246158E+02  0.7816164E-02  0.1226708E+00
        -11   -1    0    0    0    0  0.00000000000E+00  0.00000000000E+00  0.45593999997E+02  0.45594000000E+02  0.51100000000E-03 0. -1.
         11   -1    0    0    0    0 -0.00000000000E+00 -0.00000000000E+00 -0.45593999997E+02  0.45594000000E+02  0.51100000000E-03 0.  1.
    9900012    2    1    2    0    0  0.13802954526E+02  0.20529451183E+01 -0.12487698927E+02  0.72461581180E+02  0.70000014181E+02 0.  0.
         12    1    1    2    0    0 -0.13802954526E+02 -0.20529451183E+01  0.12487698927E+02  0.18726418820E+02  0.00000000000E+00 0. -1.
         11    1    3    3    0    0  0.57969774828E+01 -0.90365557873E+01  0.66578562382E+01  0.12632946544E+02  0.51100000000E-03 0. -1.
        -11    1    3    3    0    0  0.23888319619E+02  0.16768075073E+02 -0.28286342038E+02  0.40644031567E+02  0.51100000000E-03 0.  1.
         12    1    3    3    0    0 -0.15882342575E+02 -0.56785741673E+01  0.91407868732E+01  0.19184603069E+02  0.00000000000E+00 0. -1.
</event>
<event>
 7    1  0.2153242E-013  0.7246164E+02  0.7816164E-02  0.1226708E+00
        -11   -1    0    0    0    0  0.00000000000E+00  0.00000000000E+00  0.45593999997E+02  0.45594000000E+02  0.51100000000E-03 0.  1.
         11   -1    0    0    0    0 -0.00000000000E+00 -0.00000000000E+00 -0.45593999997E+02  0.45594000000E+02  0.51100000000E-03 0. -1.
    9900012    2    1    2    0    0  0.11213281167E+02 -0.13001540413E+02  0.74765485983E+01  0.72461641395E+02  0.70000092622E+02 0.  0.
         12    1    1    2    0    0 -0.11213281167E+02  0.13001540413E+02 -0.74765485983E+01  0.18726358605E+02  0.00000000000E+00 0. -1.
         11    1    3    3    0    0 -0.16690726371E+02 -0.82687222403E+01 -0.11992189127E+02  0.22153210029E+02  0.51100000000E-03 0. -1.
        -11    1    3    3    0    0 -0.88154122852E+01 -0.56621478140E+00  0.70240985112E+00  0.88614599698E+01  0.51100000000E-03 0.  1.
        -12    1    3    3    0    0  0.36719419824E+02 -0.41666033912E+01  0.18766327874E+02  0.41446971396E+02  0.00000000000E+00 0.  1.
</event>
<event>
 7    1  0.2153242E-013  0.7246155E+02  0.7816164E-02  0.1226708E+00
        -11   -1    0    0    0    0  0.00000000000E+00  0.00000000000E+00  0.45593999997E+02  0.45594000000E+02  0.51100000000E-03 0. -1.
         11   -1    0    0    0    0 -0.00000000000E+00 -0.00000000000E+00 -0.45593999997E+02  0.45594000000E+02  0.51100000000E-03 0.  1.
    9900012    2    1    2    0    0  0.29967185543E+01  0.18250450322E+02 -0.29360916850E+01  0.72461550966E+02  0.69999974821E+02 0.  0.
         12    1    1    2    0    0 -0.29967185543E+01 -0.18250450322E+02  0.29360916850E+01  0.18726449034E+02  0.00000000000E+00 0. -1.
         11    1    3    3    0    0  0.23017592566E+01 -0.62951440941E+01  0.13684822838E+02  0.15238153143E+02  0.51100000000E-03 0. -1.
        -11    1    3    3    0    0 -0.22076849191E+02  0.22478095311E+02 -0.62701900352E+01  0.32124248199E+02  0.51100000000E-03 0.  1.
        -12    1    3    3    0    0  0.22771808489E+02  0.20674991049E+01 -0.10350724488E+02  0.25099149623E+02  0.00000000000E+00 0.  1.
</event>
<event>
 7    1  0.2153242E-013  0.7246156E+02  0.7816164E-02  0.1226708E+00
        -11   -1    0    0    0    0  0.00000000000E+00  0.00000000000E+00  0.45593999997E+02  0.45594000000E+02  0.51100000000E-03 0.  1.
         11   -1    0    0    0    0 -0.00000000000E+00 -0.00000000000E+00 -0.45593999997E+02  0.45594000000E+02  0.51100000000E-03 0. -1.
    9900012    2    1    2    0    0 -0.25233309339E+01  0.14731141620E+02  0.11282980097E+02  0.72461564880E+02  0.69999992947E+02 0.  0.
         12    1    1    2    0    0  0.25233309339E+01 -0.14731141620E+02 -0.11282980097E+02  0.18726435120E+02  0.00000000000E+00 0. -1.
         11    1    3    3    0    0  0.50161771742E+01 -0.69485573105E+01  0.18136300327E+02  0.20059159303E+02  0.51100000000E-03 0. -1.
        -11    1    3    3    0    0 -0.26037036696E+02  0.12315714481E+02  0.38684562199E+01  0.29061470315E+02  0.51100000000E-03 0.  1.
         12    1    3    3    0    0  0.18497528588E+02  0.93639844496E+01 -0.10721776450E+02  0.23340935261E+02  0.00000000000E+00 0. -1.
</event>
<event>
 7    1  0.2153242E-013  0.7246160E+02  0.7816164E-02  0.1226708E+00
        -11   -1    0    0    0    0  0.00000000000E+00  0.00000000000E+00  0.45593999997E+02  0.45594000000E+02  0.51100000000E-03 0.  1.
         11   -1    0    0    0    0 -0.00000000000E+00 -0.00000000000E+00 -0.45593999997E+02  0.45594000000E+02  0.51100000000E-03 0. -1.
    9900012    2    1    2    0    0 -0.84048533833E+01  0.95255584843E+01  0.13758648297E+02  0.72461595439E+02  0.70000032756E+02 0.  0.
         12    1    1    2    0    0  0.84048533833E+01 -0.95255584843E+01 -0.13758648297E+02  0.18726404561E+02  0.00000000000E+00 0. -1.
         11    1    3    3    0    0 -0.56992227305E+01  0.90247415749E+01  0.14916133053E+02  0.18341704548E+02  0.51100000000E-03 0. -1.
        -11    1    3    3    0    0  0.14840679911E+02  0.18895508996E+02 -0.11547141886E+02  0.26657504130E+02  0.51100000000E-03 0.  1.
         12    1    3    3    0    0 -0.17546310563E+02 -0.18394692086E+02  0.10389657130E+02  0.27462386761E+02  0.00000000000E+00 0. -1.
</event>
<event>
 7    1  0.2153242E-013  0.7246157E+02  0.7816164E-02  0.1226708E+00
        -11   -1    0    0    0    0  0.00000000000E+00  0.00000000000E+00  0.45593999997E+02  0.45594000000E+02  0.51100000000E-03 0. -1.
         11   -1    0    0    0    0 -0.00000000000E+00 -0.00000000000E+00 -0.45593999997E+02  0.45594000000E+02  0.51100000000E-03 0.  1.
    9900012    2    1    2    0    0 -0.20208561079E+01  0.17786190162E+02  0.54997146860E+01  0.72461567304E+02  0.69999996104E+02 0.  0.
         12    1    1    2    0    0  0.20208561079E+01 -0.17786190162E+02 -0.54997146860E+01  0.18726432696E+02  0.00000000000E+00 0. -1.
         11    1    3    3    0    0 -0.15517381205E+02  0.19912493311E+02 -0.70255578404E+01  0.26204102209E+02  0.51100000000E-03 0. -1.
        -11    1    3    3    0    0 -0.11818871214E+02 -0.18056245901E+01 -0.73815031668E+01  0.14051070642E+02  0.51100000000E-03 0.  1.
         12    1    3    3    0    0  0.25315396311E+02 -0.32067855886E+00  0.19906775693E+02  0.32206394453E+02  0.00000000000E+00 0. -1.
</event>
<event>
 7    1  0.2153242E-013  0.7246143E+02  0.7816164E-02  0.1226708E+00
        -11   -1    0    0    0    0  0.00000000000E+00  0.00000000000E+00  0.45593999997E+02  0.45594000000E+02  0.51100000000E-03 0. -1.
         11   -1    0    0    0    0 -0.00000000000E+00 -0.00000000000E+00 -0.45593999997E+02  0.45594000000E+02  0.51100000000E-03 0.  1.
    9900012    2    1    2    0    0  0.10762248120E+02  0.62077229476E+01 -0.14011523159E+02  0.72461425566E+02  0.69999811465E+02 0.  0.
         12    1    1    2    0    0 -0.10762248120E+02 -0.62077229476E+01  0.14011523159E+02  0.18726574434E+02  0.00000000000E+00 0. -1.
         11    1    3    3    0    0  0.23363591022E+01 -0.39404225493E+01 -0.54571348948E+01  0.71250140521E+01  0.51100000000E-03 0. -1.
        -11    1    3    3    0    0  0.17350888911E+02 -0.17646666650E+02  0.14011350107E+02  0.28438989468E+02  0.51100000000E-03 0.  1.
         12    1    3    3    0    0 -0.89249998937E+01  0.27794812147E+02 -0.22565738372E+02  0.36897422046E+02  0.00000000000E+00 0. -1.
</event>
<event>
 7    1  0.2153242E-013  0.7246160E+02  0.7816164E-02  0.1226708E+00
        -11   -1    0    0    0    0  0.00000000000E+00  0.00000000000E+00  0.45593999997E+02  0.45594000000E+02  0.51100000000E-03 0.  1.
         11   -1    0    0    0    0 -0.00000000000E+00 -0.00000000000E+00 -0.45593999997E+02  0.45594000000E+02  0.51100000000E-03 0. -1.
    9900012    2    1    2    0    0  0.84094050120E+01  0.15233295905E+02  0.69214695755E+01  0.72461597839E+02  0.70000035883E+02 0.  0.
         12    1    1    2    0    0 -0.84094050120E+01 -0.15233295905E+02 -0.69214695755E+01  0.18726402161E+02  0.00000000000E+00 0. -1.
         11    1    3    3    0    0 -0.10192379800E+02 -0.49074826876E+01 -0.57984026423E+01  0.12711784524E+02  0.51100000000E-03 0. -1.
        -11    1    3    3    0    0  0.53411560849E+01  0.20408069711E+02 -0.17072593569E+02  0.27138362314E+02  0.51100000000E-03 0.  1.
        -12    1    3    3    0    0  0.13260628727E+02 -0.26729111831E+00  0.29792465787E+02  0.32611451002E+02  0.00000000000E+00 0.  1.
</event>
<event>
 7    1  0.2153242E-013  0.7246156E+02  0.7816164E-02  0.1226708E+00
        -11   -1    0    0    0    0  0.00000000000E+00  0.00000000000E+00  0.45593999997E+02  0.45594000000E+02  0.51100000000E-03 0.  1.
         11   -1    0    0    0    0 -0.00000000000E+00 -0.00000000000E+00 -0.45593999997E+02  0.45594000000E+02  0.51100000000E-03 0. -1.
    9900012    2    1    2    0    0 -0.12463257198E+02  0.13342355287E+02  0.41627160463E+01  0.72461563354E+02  0.69999990958E+02 0.  0.
         12    1    1    2    0    0  0.12463257198E+02 -0.13342355287E+02 -0.41627160463E+01  0.18726436646E+02  0.00000000000E+00 0. -1.
         11    1    3    3    0    0 -0.33102591234E+02  0.82512781976E+01 -0.28705603941E+01  0.34236022776E+02  0.51100000000E-03 0. -1.
        -11    1    3    3    0    0 -0.66986229810E+01  0.49728928445E+01  0.69951498168E+01  0.10887301516E+02  0.51100000000E-03 0.  1.
        -12    1    3    3    0    0  0.27337957016E+02  0.11818424478E+00  0.38126623581E-01  0.27338239062E+02  0.00000000000E+00 0.  1.
</event>
<event>
 7    1  0.2153242E-013  0.7246156E+02  0.7816164E-02  0.1226708E+00
        -11   -1    0    0    0    0  0.00000000000E+00  0.00000000000E+00  0.45593999997E+02  0.45594000000E+02  0.51100000000E-03 0. -1.
         11   -1    0    0    0    0 -0.00000000000E+00 -0.00000000000E+00 -0.45593999997E+02  0.45594000000E+02  0.51100000000E-03 0.  1.
    9900012    2    1    2    0    0 -0.33512803212E+01 -0.14260948941E+02 -0.11665068864E+02  0.72461559439E+02  0.69999985859E+02 0.  0.
         12    1    1    2    0    0  0.33512803212E+01  0.14260948941E+02  0.11665068864E+02  0.18726440561E+02  0.00000000000E+00 0. -1.
         11    1    3    3    0    0 -0.10518699418E+02  0.11347329246E+02 -0.13695618588E+02  0.20663370665E+02  0.51100000000E-03 0. -1.
        -11    1    3    3    0    0 -0.11087626788E+02 -0.30833728354E+02  0.15759242324E+01  0.32804539464E+02  0.51100000000E-03 0.  1.
         12    1    3    3    0    0  0.18255045886E+02  0.52254501667E+01  0.45462549195E+00  0.18993649309E+02  0.00000000000E+00 0. -1.
</event>
<event>
 7    1  0.2153242E-013  0.7246156E+02  0.7816164E-02  0.1226708E+00
        -11   -1    0    0    0    0  0.00000000000E+00  0.00000000000E+00  0.45593999997E+02  0.45594000000E+02  0.51100000000E-03 0. -1.
         11   -1    0    0    0    0 -0.00000000000E+00 -0.00000000000E+00 -0.45593999997E+02  0.45594000000E+02  0.51100000000E-03 0.  1.
    9900012    2    1    2    0    0  0.88575079565E+01 -0.15246742017E+02 -0.63056300074E+01  0.72461559892E+02  0.69999986449E+02 0.  0.
         12    1    1    2    0    0 -0.88575079565E+01  0.15246742017E+02  0.63056300074E+01  0.18726440108E+02  0.00000000000E+00 0. -1.
         11    1    3    3    0    0  0.14907989617E+02 -0.58449474328E+01  0.25506264581E+02  0.30116126877E+02  0.51100000000E-03 0. -1.
        -11    1    3    3    0    0 -0.62677240907E+00  0.52389009702E+01  0.15598301527E+01  0.55019993998E+01  0.51100000000E-03 0.  1.
        -12    1    3    3    0    0 -0.54237092518E+01 -0.14640695554E+02 -0.33371724741E+02  0.36843433615E+02  0.00000000000E+00 0.  1.
</event>
<event>
 7    1  0.2153242E-013  0.7246125E+02  0.7816164E-02  0.1226709E+00
        -11   -1    0    0    0    0  0.00000000000E+00  0.00000000000E+00  0.45593999997E+02  0.45594000000E+02  0.51100000000E-03 0. -1.
         11   -1    0    0    0    0 -0.00000000000E+00 -0.00000000000E+00 -0.45593999997E+02  0.45594000000E+02  0.51100000000E-03 0.  1.
    9900012    2    1    2    0    0 -0.27779615528E+00  0.14842697148E+02 -0.11415271993E+02  0.72461247371E+02  0.69999579332E+02 0.  0.
         12    1    1    2    0    0  0.27779615528E+00 -0.14842697148E+02  0.11415271993E+02  0.18726752629E+02  0.00000000000E+00 0. -1.
         11    1    3    3    0    0  0.22562611374E+01 -0.30004917307E+01  0.30807282205E+01  0.48563928564E+01  0.51100000000E-03 0. -1.
        -11    1    3    3    0    0  0.56824920744E+01  0.40125076656E+02 -0.16534993280E+02  0.43768921575E+02  0.51100000000E-03 0.  1.
         12    1    3    3    0    0 -0.82165493671E+01 -0.22281887777E+02  0.20389930670E+01  0.23835932940E+02  0.00000000000E+00 0. -1.
</event>
<event>
 7    1  0.2153242E-013  0.7246159E+02  0.7816164E-02  0.1226708E+00
        -11   -1    0    0    0    0  0.00000000000E+00  0.00000000000E+00  0.45593999997E+02  0.45594000000E+02  0.51100000000E-03 0. -1.
         11   -1    0    0    0    0 -0.00000000000E+00 -0.00000000000E+00 -0.45593999997E+02  0.45594000000E+02  0.51100000000E-03 0.  1.
    9900012    2    1    2    0    0  0.54495046942E+01 -0.14573856684E+02 -0.10420360684E+02  0.72461593061E+02  0.70000029658E+02 0.  0.
         12    1    1    2    0    0 -0.54495046942E+01  0.14573856684E+02  0.10420360684E+02  0.18726406939E+02  0.00000000000E+00 0. -1.
         11    1    3    3    0    0  0.82672145090E+01 -0.19745126181E+02  0.91141432041E+00  0.21425394278E+02  0.51100000000E-03 0. -1.
        -11    1    3    3    0    0 -0.49179045061E+01 -0.15189200843E+02 -0.22600371292E+02  0.27670821993E+02  0.51100000000E-03 0.  1.
         12    1    3    3    0    0  0.21001946912E+01  0.20360470340E+02  0.11268596288E+02  0.23365376790E+02  0.00000000000E+00 0. -1.
</event>
<event>
 7    1  0.2153242E-013  0.7246156E+02  0.7816164E-02  0.1226708E+00
        -11   -1    0    0    0    0  0.00000000000E+00  0.00000000000E+00  0.45593999997E+02  0.45594000000E+02  0.51100000000E-03 0.  1.
         11   -1    0    0    0    0 -0.00000000000E+00 -0.00000000000E+00 -0.45593999997E+02  0.45594000000E+02  0.51100000000E-03 0. -1.
    9900012    2    1    2    0    0 -0.31065270975E+01 -0.11459567440E+02  0.14481280179E+02  0.72461556874E+02  0.69999982518E+02 0.  0.
         12    1    1    2    0    0  0.31065270975E+01  0.11459567440E+02 -0.14481280179E+02  0.18726443126E+02  0.00000000000E+00 0. -1.
         11    1    3    3    0    0 -0.28707123919E+01 -0.50588648233E+01  0.11343013144E+02  0.12747433090E+02  0.51100000000E-03 0. -1.
        -11    1    3    3    0    0 -0.64581354936E+01 -0.21857876580E+02  0.23944781908E+02  0.33057931931E+02  0.51100000000E-03 0.  1.
         12    1    3    3    0    0  0.62223207880E+01  0.15457173963E+02 -0.20806514874E+02  0.26656191853E+02  0.00000000000E+00 0. -1.
</event>
<event>
 7    1  0.2153242E-013  0.7246158E+02  0.7816164E-02  0.1226708E+00
        -11   -1    0    0    0    0  0.00000000000E+00  0.00000000000E+00  0.45593999997E+02  0.45594000000E+02  0.51100000000E-03 0. -1.
         11   -1    0    0    0    0 -0.00000000000E+00 -0.00000000000E+00 -0.45593999997E+02  0.45594000000E+02  0.51100000000E-03 0.  1.
    9900012    2    1    2    0    0  0.28087671645E+01 -0.17597049848E+02 -0.57561783089E+01  0.72461576822E+02  0.70000008503E+02 0.  0.
         12    1    1    2    0    0 -0.28087671645E+01  0.17597049848E+02  0.57561783089E+01  0.18726423178E+02  0.00000000000E+00 0. -1.
         11    1    3    3    0    0  0.11145509088E+02  0.18606303775E+02  0.14899158241E+02  0.26313529402E+02  0.51100000000E-03 0. -1.
        -11    1    3    3    0    0  0.73573112770E+00 -0.48694715335E+01  0.30776232059E+01  0.58073073077E+01  0.51100000000E-03 0.  1.
        -12    1    3    3    0    0 -0.90724730516E+01 -0.31333882089E+02 -0.23732959756E+02  0.40340740113E+02  0.00000000000E+00 0.  1.
</event>
<event>
 7    1  0.2153242E-013  0.7246162E+02  0.7816164E-02  0.1226708E+00
        -11   -1    0    0    0    0  0.00000000000E+00  0.00000000000E+00  0.45593999997E+02  0.45594000000E+02  0.51100000000E-03 0.  1.
         11   -1    0    0    0    0 -0.00000000000E+00 -0.00000000000E+00 -0.45593999997E+02  0.45594000000E+02  0.51100000000E-03 0. -1.
    9900012    2    1    2    0    0  0.14131012217E+02  0.11823499093E+02 -0.33461288583E+01  0.72461622469E+02  0.70000067967E+02 0.  0.
         12    1    1    2    0    0 -0.14131012217E+02 -0.11823499093E+02  0.33461288583E+01  0.18726377531E+02  0.00000000000E+00 0. -1.
         11    1    3    3    0    0  0.21580302667E+00  0.32184308328E+02  0.33153950682E+01  0.32355341417E+02  0.51100000000E-03 0. -1.
        -11    1    3    3    0    0 -0.57170356025E+00  0.77352112870E+01  0.20106089437E+00  0.77589151535E+01  0.51100000000E-03 0.  1.
        -12    1    3    3    0    0  0.14486912751E+02 -0.28096020521E+02 -0.68625848208E+01  0.32347365899E+02  0.00000000000E+00 0.  1.
</event>
<event>
 7    1  0.2153242E-013  0.7246156E+02  0.7816164E-02  0.1226708E+00
        -11   -1    0    0    0    0  0.00000000000E+00  0.00000000000E+00  0.45593999997E+02  0.45594000000E+02  0.51100000000E-03 0. -1.
         11   -1    0    0    0    0 -0.00000000000E+00 -0.00000000000E+00 -0.45593999997E+02  0.45594000000E+02  0.51100000000E-03 0.  1.
    9900012    2    1    2    0    0 -0.86065639191E+01  0.12965903437E+02 -0.10415949154E+02  0.72461559035E+02  0.69999985333E+02 0.  0.
         12    1    1    2    0    0  0.86065639191E+01 -0.12965903437E+02  0.10415949154E+02  0.18726440965E+02  0.00000000000E+00 0. -1.
         11    1    3    3    0    0  0.83866434385E+01  0.56042981937E+01 -0.29393399382E+01  0.10506363117E+02  0.51100000000E-03 0. -1.
        -11    1    3    3    0    0  0.18150928509E+02 -0.87622634853E+01 -0.11288850646E+02  0.23101333648E+02  0.51100000000E-03 0.  1.
         12    1    3    3    0    0 -0.35144135867E+02  0.16123868729E+02  0.38122414306E+01  0.38853862271E+02  0.00000000000E+00 0. -1.
</event>
<event>
 7    1  0.2153242E-013  0.7246160E+02  0.7816164E-02  0.1226708E+00
        -11   -1    0    0    0    0  0.00000000000E+00  0.00000000000E+00  0.45593999997E+02  0.45594000000E+02  0.51100000000E-03 0.  1.
         11   -1    0    0    0    0 -0.00000000000E+00 -0.00000000000E+00 -0.45593999997E+02  0.45594000000E+02  0.51100000000E-03 0. -1.
    9900012    2    1    2    0    0  0.10720943371E+02  0.74212364468E+01  0.13441155526E+02  0.72461600478E+02  0.70000039320E+02 0.  0.
         12    1    1    2    0    0 -0.10720943371E+02 -0.74212364468E+01 -0.13441155526E+02  0.18726399522E+02  0.00000000000E+00 0. -1.
         11    1    3    3    0    0  0.83578589006E+01  0.26930083455E+02  0.38008642991E+01  0.28452236642E+02  0.51100000000E-03 0. -1.
        -11    1    3    3    0    0 -0.73022172723E+01  0.32887628923E+01 -0.97077907026E+01  0.12584893287E+02  0.51100000000E-03 0.  1.
        -12    1    3    3    0    0  0.96653017429E+01 -0.22797609900E+02  0.19348081930E+02  0.31424470549E+02  0.00000000000E+00 0.  1.
</event>
<event>
 7    1  0.2153242E-013  0.7246184E+02  0.7816164E-02  0.1226707E+00
        -11   -1    0    0    0    0  0.00000000000E+00  0.00000000000E+00  0.45593999997E+02  0.45594000000E+02  0.51100000000E-03 0.  1.
         11   -1    0    0    0    0 -0.00000000000E+00 -0.00000000000E+00 -0.45593999997E+02  0.45594000000E+02  0.51100000000E-03 0. -1.
    9900012    2    1    2    0    0 -0.99464616929E+01 -0.15865633078E+02  0.13611989433E+00  0.72461843379E+02  0.70000355743E+02 0.  0.
         12    1    1    2    0    0  0.99464616929E+01  0.15865633078E+02 -0.13611989433E+00  0.18726156621E+02  0.00000000000E+00 0. -1.
         11    1    3    3    0    0 -0.66844879802E+01  0.14030325306E+02  0.10436847289E+02  0.18720581971E+02  0.51100000000E-03 0. -1.
        -11    1    3    3    0    0 -0.19632931756E+02 -0.19403847915E+02  0.61393953340E+01  0.28278145246E+02  0.51100000000E-03 0.  1.
         12    1    3    3    0    0  0.16370958043E+02 -0.10492110469E+02 -0.16440122728E+02  0.25463116162E+02  0.00000000000E+00 0. -1.
</event>
<event>
 7    1  0.2153242E-013  0.7246157E+02  0.7816164E-02  0.1226708E+00
        -11   -1    0    0    0    0  0.00000000000E+00  0.00000000000E+00  0.45593999997E+02  0.45594000000E+02  0.51100000000E-03 0.  1.
         11   -1    0    0    0    0 -0.00000000000E+00 -0.00000000000E+00 -0.45593999997E+02  0.45594000000E+02  0.51100000000E-03 0. -1.
    9900012    2    1    2    0    0  0.16815680501E+02 -0.46104149718E+01  0.68305254869E+01  0.72461571741E+02  0.70000001884E+02 0.  0.
         12    1    1    2    0    0 -0.16815680501E+02  0.46104149718E+01 -0.68305254869E+01  0.18726428259E+02  0.00000000000E+00 0. -1.
         11    1    3    3    0    0  0.11266227264E+02  0.17632505835E+02  0.63019575093E+01  0.21852867260E+02  0.51100000000E-03 0. -1.
        -11    1    3    3    0    0 -0.87507582262E+01 -0.12485729667E+02  0.19612925755E+02  0.24842223568E+02  0.51100000000E-03 0.  1.
        -12    1    3    3    0    0  0.14300211463E+02 -0.97571911399E+01 -0.19084357778E+02  0.25766480913E+02  0.00000000000E+00 0.  1.
</event>
<event>
 7    1  0.2153242E-013  0.7246163E+02  0.7816164E-02  0.1226708E+00
        -11   -1    0    0    0    0  0.00000000000E+00  0.00000000000E+00  0.45593999997E+02  0.45594000000E+02  0.51100000000E-03 0.  1.
         11   -1    0    0    0    0 -0.00000000000E+00 -0.00000000000E+00 -0.45593999997E+02  0.45594000000E+02  0.51100000000E-03 0. -1.
    9900012    2    1    2    0    0  0.18607330475E+02  0.20715530566E+01  0.39107648056E+00  0.72461627679E+02  0.70000074754E+02 0.  0.
         12    1    1    2    0    0 -0.18607330475E+02 -0.20715530566E+01 -0.39107648056E+00  0.18726372321E+02  0.00000000000E+00 0. -1.
         11    1    3    3    0    0  0.90834498932E+01  0.10672395429E+01  0.64878320635E+01  0.11213386079E+02  0.51100000000E-03 0. -1.
        -11    1    3    3    0    0  0.67813147748E+01  0.29553140076E+02  0.45397479902E+01  0.30659152475E+02  0.51100000000E-03 0.  1.
         12    1    3    3    0    0  0.27425658075E+01 -0.28548826562E+02 -0.10636503573E+02  0.30589089126E+02  0.00000000000E+00 0. -1.
</event>
<event>
 7    1  0.2153242E-013  0.7246158E+02  0.7816164E-02  0.1226708E+00
        -11   -1    0    0    0    0  0.00000000000E+00  0.00000000000E+00  0.45593999997E+02  0.45594000000E+02  0.51100000000E-03 0. -1.
         11   -1    0    0    0    0 -0.00000000000E+00 -0.00000000000E+00 -0.45593999997E+02  0.45594000000E+02  0.51100000000E-03 0.  1.
    9900012    2    1    2    0    0 -0.10008322277E+01 -0.17641747027E+02 -0.62004718701E+01  0.72461581370E+02  0.70000014427E+02 0.  0.
         12    1    1    2    0    0  0.10008322277E+01  0.17641747027E+02  0.62004718701E+01  0.18726418630E+02  0.00000000000E+00 0. -1.
         11    1    3    3    0    0 -0.13067893940E+01 -0.94600865744E+01  0.15181166941E+02  0.17935126609E+02  0.51100000000E-03 0. -1.
        -11    1    3    3    0    0 -0.10190113985E+02  0.11286256197E+02  0.84455850186E+01  0.17393846858E+02  0.51100000000E-03 0.  1.
         12    1    3    3    0    0  0.10496071151E+02 -0.19467916649E+02 -0.29827223830E+02  0.37132607903E+02  0.00000000000E+00 0. -1.
</event>
<event>
 7    1  0.2153242E-013  0.7246155E+02  0.7816164E-02  0.1226708E+00
        -11   -1    0    0    0    0  0.00000000000E+00  0.00000000000E+00  0.45593999997E+02  0.45594000000E+02  0.51100000000E-03 0.  1.
         11   -1    0    0    0    0 -0.00000000000E+00 -0.00000000000E+00 -0.45593999997E+02  0.45594000000E+02  0.51100000000E-03 0. -1.
    9900012    2    1    2    0    0 -0.58796187782E+01 -0.11634215797E+02  0.13444521729E+02  0.72461546553E+02  0.69999969072E+02 0.  0.
         12    1    1    2    0    0  0.58796187782E+01  0.11634215797E+02 -0.13444521729E+02  0.18726453447E+02  0.00000000000E+00 0. -1.
         11    1    3    3    0    0 -0.17599476785E+02  0.53414629924E+01 -0.19884671990E+02  0.27086398624E+02  0.51100000000E-03 0. -1.
        -11    1    3    3    0    0 -0.51257170746E+01  0.19225034234E+01  0.59536936979E+01  0.80879826812E+01  0.51100000000E-03 0.  1.
        -12    1    3    3    0    0  0.16845575082E+02 -0.18898182213E+02  0.27375500021E+02  0.37287165247E+02  0.00000000000E+00 0.  1.
</event>
<event>
 7    1  0.2153242E-013  0.7246150E+02  0.7816164E-02  0.1226708E+00
        -11   -1    0    0    0    0  0.00000000000E+00  0.00000000000E+00  0.45593999997E+02  0.45594000000E+02  0.51100000000E-03 0. -1.
         11   -1    0    0    0    0 -0.00000000000E+00 -0.00000000000E+00 -0.45593999997E+02  0.45594000000E+02  0.51100000000E-03 0.  1.
    9900012    2    1    2    0    0 -0.17598371470E+02 -0.26866295644E+01  0.58104462095E+01  0.72461496270E+02  0.69999903570E+02 0.  0.
         12    1    1    2    0    0  0.17598371470E+02  0.26866295644E+01 -0.58104462095E+01  0.18726503730E+02  0.00000000000E+00 0. -1.
         11    1    3    3    0    0 -0.22542611592E+02  0.20657652664E+02 -0.75953592215E+01  0.31505514326E+02  0.51100000000E-03 0. -1.
        -11    1    3    3    0    0 -0.12598287056E+02 -0.97307502513E+01  0.21570600244E+01  0.16064160277E+02  0.51100000000E-03 0.  1.
         12    1    3    3    0    0  0.17542527178E+02 -0.13613531977E+02  0.11248745407E+02  0.24891821667E+02  0.00000000000E+00 0. -1.
</event>
<event>
 7    1  0.2153242E-013  0.7246158E+02  0.7816164E-02  0.1226708E+00
        -11   -1    0    0    0    0  0.00000000000E+00  0.00000000000E+00  0.45593999997E+02  0.45594000000E+02  0.51100000000E-03 0.  1.
         11   -1    0    0    0    0 -0.00000000000E+00 -0.00000000000E+00 -0.45593999997E+02  0.45594000000E+02  0.51100000000E-03 0. -1.
    9900012    2    1    2    0    0  0.13144614271E+02  0.77130927087E+01  0.10881451066E+02  0.72461583878E+02  0.70000017696E+02 0.  0.
         12    1    1    2    0    0 -0.13144614271E+02 -0.77130927087E+01 -0.10881451066E+02  0.18726416122E+02  0.00000000000E+00 0. -1.
         11    1    3    3    0    0  0.59823646682E+01  0.22375387306E+02 -0.11200863935E+02  0.25727533836E+02  0.51100000000E-03 0. -1.
        -11    1    3    3    0    0  0.32261734823E+01 -0.56236008698E+01 -0.10694777320E+02  0.12506452105E+02  0.51100000000E-03 0.  1.
        -12    1    3    3    0    0  0.39360761200E+01 -0.90386937277E+01  0.32777092321E+02  0.34227597937E+02  0.00000000000E+00 0.  1.
</event>
<event>
 7    1  0.2153242E-013  0.7246159E+02  0.7816164E-02  0.1226708E+00
        -11   -1    0    0    0    0  0.00000000000E+00  0.00000000000E+00  0.45593999997E+02  0.45594000000E+02  0.51100000000E-03 0.  1.
         11   -1    0    0    0    0 -0.00000000000E+00 -0.00000000000E+00 -0.45593999997E+02  0.45594000000E+02  0.51100000000E-03 0. -1.
    9900012    2    1    2    0    0  0.12141848696E+02 -0.94514865776E+01  0.10673490031E+02  0.72461588766E+02  0.70000024062E+02 0.  0.
         12    1    1    2    0    0 -0.12141848696E+02  0.94514865776E+01 -0.10673490031E+02  0.18726411234E+02  0.00000000000E+00 0. -1.
         11    1    3    3    0    0  0.18394685803E+02 -0.76698709463E+01 -0.21457920111E+02  0.29285384100E+02  0.51100000000E-03 0. -1.
        -11    1    3    3    0    0  0.26932237784E+01 -0.68175872285E+01 -0.19474919710E+01  0.75845682262E+01  0.51100000000E-03 0.  1.
        -12    1    3    3    0    0 -0.89460608858E+01  0.50359715972E+01  0.34078902112E+02  0.35591636440E+02  0.00000000000E+00 0.  1.
</event>
<event>
 7    1  0.2153242E-013  0.7246157E+02  0.7816164E-02  0.1226708E+00
        -11   -1    0    0    0    0  0.00000000000E+00  0.00000000000E+00  0.45593999997E+02  0.45594000000E+02  0.51100000000E-03 0.  1.
         11   -1    0    0    0    0 -0.00000000000E+00 -0.00000000000E+00 -0.45593999997E+02  0.45594000000E+02  0.51100000000E-03 0. -1.
    9900012    2    1    2    0    0 -0.19691432624E+01  0.54759743112E+01  0.17799309710E+02  0.72461568252E+02  0.69999997340E+02 0.  0.
         12    1    1    2    0    0  0.19691432624E+01 -0.54759743112E+01 -0.17799309710E+02  0.18726431748E+02  0.00000000000E+00 0. -1.
         11    1    3    3    0    0 -0.16560714987E+00  0.57549129016E+01 -0.39262682778E+01  0.69686462877E+01  0.51100000000E-03 0.  1.
        -11    1    3    3    0    0 -0.20830315010E+02 -0.68156160995E+01 -0.12911235741E+02  0.25437269013E+02  0.51100000000E-03 0. -1.
        -12    1    3    3    0    0  0.19026778897E+02  0.65366775091E+01  0.34636813729E+02  0.40055652951E+02  0.00000000000E+00 0.  1.
</event>
<event>
 7    1  0.2153242E-013  0.7246160E+02  0.7816164E-02  0.1226708E+00
        -11   -1    0    0    0    0  0.00000000000E+00  0.00000000000E+00  0.45593999997E+02  0.45594000000E+02  0.51100000000E-03 0.  1.
         11   -1    0    0    0    0 -0.00000000000E+00 -0.00000000000E+00 -0.45593999997E+02  0.45594000000E+02  0.51100000000E-03 0. -1.
    9900012    2    1    2    0    0  0.55962393729E+01  0.69050539522E+01  0.16482727723E+02  0.72461602098E+02  0.70000041430E+02 0.  0.
         12    1    1    2    0    0 -0.55962393729E+01 -0.69050539522E+01 -0.16482727723E+02  0.18726397902E+02  0.00000000000E+00 0. -1.
         11    1    3    3    0    0 -0.85533805933E+01  0.51699558805E+01  0.11105955632E+02  0.14940917446E+02  0.51100000000E-03 0. -1.
        -11    1    3    3    0    0  0.17329612563E+01  0.24803695660E+02  0.15651172509E+02  0.29380021686E+02  0.51100000000E-03 0.  1.
         12    1    3    3    0    0  0.12416658710E+02 -0.23068597588E+02 -0.10274400418E+02  0.28140662966E+02  0.00000000000E+00 0. -1.
</event>
<event>
 7    1  0.2153242E-013  0.7246151E+02  0.7816164E-02  0.1226708E+00
        -11   -1    0    0    0    0  0.00000000000E+00  0.00000000000E+00  0.45593999997E+02  0.45594000000E+02  0.51100000000E-03 0. -1.
         11   -1    0    0    0    0 -0.00000000000E+00 -0.00000000000E+00 -0.45593999997E+02  0.45594000000E+02  0.51100000000E-03 0.  1.
    9900012    2    1    2    0    0 -0.98037678127E+01  0.86984724492E-01 -0.15954938082E+02  0.72461508634E+02  0.69999919676E+02 0.  0.
         12    1    1    2    0    0  0.98037678127E+01 -0.86984724492E-01  0.15954938082E+02  0.18726491366E+02  0.00000000000E+00 0. -1.
         11    1    3    3    0    0  0.69025373788E+01 -0.70119783203E+00 -0.10244502035E+02  0.12372813862E+02  0.51100000000E-03 0. -1.
        -11    1    3    3    0    0 -0.30071155765E+02  0.75122559694E+01 -0.21971028196E+02  0.37992558206E+02  0.51100000000E-03 0.  1.
         12    1    3    3    0    0  0.13364850574E+02 -0.67240734129E+01  0.16260592148E+02  0.22096136566E+02  0.00000000000E+00 0. -1.
</event>
<event>
 7    1  0.2153242E-013  0.7246156E+02  0.7816164E-02  0.1226708E+00
        -11   -1    0    0    0    0  0.00000000000E+00  0.00000000000E+00  0.45593999997E+02  0.45594000000E+02  0.51100000000E-03 0.  1.
         11   -1    0    0    0    0 -0.00000000000E+00 -0.00000000000E+00 -0.45593999997E+02  0.45594000000E+02  0.51100000000E-03 0. -1.
    9900012    2    1    2    0    0  0.96054938683E+01  0.16050393129E+02 -0.89386525941E+00  0.72461558075E+02  0.69999984082E+02 0.  0.
         12    1    1    2    0    0 -0.96054938683E+01 -0.16050393129E+02  0.89386525941E+00  0.18726441925E+02  0.00000000000E+00 0. -1.
         11    1    3    3    0    0 -0.36834913272E+01 -0.14617893650E+00  0.38010794240E+01  0.52950620098E+01  0.51100000000E-03 0. -1.
        -11    1    3    3    0    0  0.30124344658E+02 -0.13356854180E+02 -0.34294674453E+01  0.33130694859E+02  0.51100000000E-03 0.  1.
         12    1    3    3    0    0 -0.16835359462E+02  0.29553426246E+02 -0.12654772380E+01  0.34035801206E+02  0.00000000000E+00 0. -1.
</event>
<event>
 7    1  0.2153242E-013  0.7246149E+02  0.7816164E-02  0.1226708E+00
        -11   -1    0    0    0    0  0.00000000000E+00  0.00000000000E+00  0.45593999997E+02  0.45594000000E+02  0.51100000000E-03 0.  1.
         11   -1    0    0    0    0 -0.00000000000E+00 -0.00000000000E+00 -0.45593999997E+02  0.45594000000E+02  0.51100000000E-03 0. -1.
    9900012    2    1    2    0    0 -0.11326174073E+02  0.47021220937E+01  0.14152384546E+02  0.72461490458E+02  0.69999895998E+02 0.  0.
         12    1    1    2    0    0  0.11326174073E+02 -0.47021220937E+01 -0.14152384546E+02  0.18726509542E+02  0.00000000000E+00 0. -1.
         11    1    3    3    0    0  0.28232809092E+02  0.58075665690E+01  0.13685691079E+02  0.31907953229E+02  0.51100000000E-03 0. -1.
        -11    1    3    3    0    0 -0.68654845303E+01 -0.36036680656E+01 -0.23243791592E+00  0.77572758755E+01  0.51100000000E-03 0.  1.
        -12    1    3    3    0    0 -0.32693498634E+02  0.24982235902E+01  0.69913138215E+00  0.32796261353E+02  0.00000000000E+00 0.  1.
</event>
<event>
 7    1  0.2153242E-013  0.7246157E+02  0.7816164E-02  0.1226708E+00
        -11   -1    0    0    0    0  0.00000000000E+00  0.00000000000E+00  0.45593999997E+02  0.45594000000E+02  0.51100000000E-03 0. -1.
         11   -1    0    0    0    0 -0.00000000000E+00 -0.00000000000E+00 -0.45593999997E+02  0.45594000000E+02  0.51100000000E-03 0.  1.
    9900012    2    1    2    0    0  0.18348234937E+02  0.34146295245E+01 -0.15368118664E+01  0.72461569192E+02  0.69999998565E+02 0.  0.
         12    1    1    2    0    0 -0.18348234937E+02 -0.34146295245E+01  0.15368118664E+01  0.18726430808E+02  0.00000000000E+00 0. -1.
         11    1    3    3    0    0 -0.42852785563E+01 -0.32267583248E+01 -0.51733885839E+01  0.74524849073E+01  0.51100000000E-03 0. -1.
        -11    1    3    3    0    0 -0.99452312223E+01 -0.27680400449E+01 -0.20793494620E+02  0.23215061674E+02  0.51100000000E-03 0.  1.
         12    1    3    3    0    0  0.32578744715E+02  0.94094278941E+01  0.24430071337E+02  0.41794022611E+02  0.00000000000E+00 0. -1.
</event>
<event>
 7    1  0.2153242E-013  0.7246155E+02  0.7816164E-02  0.1226708E+00
        -11   -1    0    0    0    0  0.00000000000E+00  0.00000000000E+00  0.45593999997E+02  0.45594000000E+02  0.51100000000E-03 0. -1.
         11   -1    0    0    0    0 -0.00000000000E+00 -0.00000000000E+00 -0.45593999997E+02  0.45594000000E+02  0.51100000000E-03 0.  1.
    9900012    2    1    2    0    0  0.54793496990E+01  0.15114738263E+02 -0.96021534396E+01  0.72461549815E+02  0.69999973321E+02 0.  0.
         12    1    1    2    0    0 -0.54793496990E+01 -0.15114738263E+02  0.96021534396E+01  0.18726450185E+02  0.00000000000E+00 0. -1.
         11    1    3    3    0    0  0.23483313396E+01  0.10512962646E+02  0.14809097745E+02  0.18312466244E+02  0.51100000000E-03 0. -1.
        -11    1    3    3    0    0 -0.74701900426E+01  0.18954712614E+02  0.38422102069E+01  0.20732762698E+02  0.51100000000E-03 0.  1.
        -12    1    3    3    0    0  0.10601208402E+02 -0.14352936998E+02 -0.28253461391E+02  0.33416320872E+02  0.00000000000E+00 0.  1.
</event>
<event>
 7    1  0.2153242E-013  0.7246157E+02  0.7816164E-02  0.1226708E+00
        -11   -1    0    0    0    0  0.00000000000E+00  0.00000000000E+00  0.45593999997E+02  0.45594000000E+02  0.51100000000E-03 0.  1.
         11   -1    0    0    0    0 -0.00000000000E+00 -0.00000000000E+00 -0.45593999997E+02  0.45594000000E+02  0.51100000000E-03 0. -1.
    9900012    2    1    2    0    0  0.80038515717E+01 -0.16003731619E+02  0.55225016880E+01  0.72461572401E+02  0.70000002745E+02 0.  0.
         12    1    1    2    0    0 -0.80038515717E+01  0.16003731619E+02 -0.55225016880E+01  0.18726427599E+02  0.00000000000E+00 0. -1.
         11    1    3    3    0    0  0.78107019516E+01  0.12337490472E+02  0.21845394419E+02  0.26276262932E+02  0.51100000000E-03 0. -1.
        -11    1    3    3    0    0  0.29677787798E+01  0.72983317578E+00 -0.16702369507E+02  0.16979679466E+02  0.51100000000E-03 0.  1.
        -12    1    3    3    0    0 -0.27746291598E+01 -0.29071055266E+02  0.37947677601E+00  0.29205630003E+02  0.00000000000E+00 0.  1.
</event>
<event>
 7    1  0.2153242E-013  0.7246155E+02  0.7816164E-02  0.1226708E+00
        -11   -1    0    0    0    0  0.00000000000E+00  0.00000000000E+00  0.45593999997E+02  0.45594000000E+02  0.51100000000E-03 0. -1.
         11   -1    0    0    0    0 -0.00000000000E+00 -0.00000000000E+00 -0.45593999997E+02  0.45594000000E+02  0.51100000000E-03 0.  1.
    9900012    2    1    2    0    0  0.13447961167E+01 -0.18547392633E+02 -0.22058327721E+01  0.72461549501E+02  0.69999972912E+02 0.  0.
         12    1    1    2    0    0 -0.13447961167E+01  0.18547392633E+02  0.22058327721E+01  0.18726450499E+02  0.00000000000E+00 0. -1.
         11    1    3    3    0    0 -0.22447614311E+02 -0.10039215929E+02 -0.59694432560E+01  0.25304456086E+02  0.51100000000E-03 0. -1.
        -11    1    3    3    0    0  0.33008372233E+01  0.10789519932E+02 -0.10665638375E+02  0.15526271572E+02  0.51100000000E-03 0.  1.
        -12    1    3    3    0    0  0.20491573205E+02 -0.19297696635E+02  0.14429248859E+02  0.31630821843E+02  0.00000000000E+00 0.  1.
</event>
<event>
 7    1  0.2153242E-013  0.7246157E+02  0.7816164E-02  0.1226708E+00
        -11   -1    0    0    0    0  0.00000000000E+00  0.00000000000E+00  0.45593999997E+02  0.45594000000E+02  0.51100000000E-03 0. -1.
         11   -1    0    0    0    0 -0.00000000000E+00 -0.00000000000E+00 -0.45593999997E+02  0.45594000000E+02  0.51100000000E-03 0.  1.
    9900012    2    1    2    0    0  0.56913324408E+01 -0.78144448346E+01 -0.16038158013E+02  0.72461566130E+02  0.69999994575E+02 0.  0.
         12    1    1    2    0    0 -0.56913324408E+01  0.78144448346E+01  0.16038158013E+02  0.18726433870E+02  0.00000000000E+00 0. -1.
         11    1    3    3    0    0 -0.14550735699E+02 -0.24545469645E+02  0.12248883535E+02  0.31052200205E+02  0.51100000000E-03 0. -1.
        -11    1    3    3    0    0  0.51965315569E+00  0.30546023683E+01  0.12583942918E+01  0.33442774235E+01  0.51100000000E-03 0.  1.
        -12    1    3    3    0    0  0.19722414984E+02  0.13676422442E+02 -0.29545435840E+02  0.38065088501E+02  0.00000000000E+00 0.  1.
</event>
<event>
 7    1  0.2153242E-013  0.7246156E+02  0.7816164E-02  0.1226708E+00
        -11   -1    0    0    0    0  0.00000000000E+00  0.00000000000E+00  0.45593999997E+02  0.45594000000E+02  0.51100000000E-03 0. -1.
         11   -1    0    0    0    0 -0.00000000000E+00 -0.00000000000E+00 -0.45593999997E+02  0.45594000000E+02  0.51100000000E-03 0.  1.
    9900012    2    1    2    0    0  0.14630592255E+02 -0.71572083497E+01 -0.92411974296E+01  0.72461559040E+02  0.69999985339E+02 0.  0.
         12    1    1    2    0    0 -0.14630592255E+02  0.71572083497E+01  0.92411974296E+01  0.18726440960E+02  0.00000000000E+00 0. -1.
         11    1    3    3    0    0 -0.15781842021E+02 -0.74109748887E+01  0.17292527447E+02  0.24556477600E+02  0.51100000000E-03 0. -1.
        -11    1    3    3    0    0 -0.17808076042E+01  0.65751385918E+01 -0.25848460710E+01  0.72859558533E+01  0.51100000000E-03 0.  1.
        -12    1    3    3    0    0  0.32193241880E+02 -0.63213720527E+01 -0.23948878806E+02  0.40619125586E+02  0.00000000000E+00 0.  1.
</event>
<event>
 7    1  0.2153242E-013  0.7246157E+02  0.7816164E-02  0.1226708E+00
        -11   -1    0    0    0    0  0.00000000000E+00  0.00000000000E+00  0.45593999997E+02  0.45594000000E+02  0.51100000000E-03 0.  1.
         11   -1    0    0    0    0 -0.00000000000E+00 -0.00000000000E+00 -0.45593999997E+02  0.45594000000E+02  0.51100000000E-03 0. -1.
    9900012    2    1    2    0    0 -0.31018985334E+01  0.12125691670E+02 -0.13929290916E+02  0.72461566319E+02  0.69999994821E+02 0.  0.
         12    1    1    2    0    0  0.31018985334E+01 -0.12125691670E+02  0.13929290916E+02  0.18726433681E+02  0.00000000000E+00 0. -1.
         11    1    3    3    0    0 -0.50808849943E+01 -0.89476225670E+01  0.13024089283E+02  0.16598260265E+02  0.51100000000E-03 0. -1.
        -11    1    3    3    0    0  0.72737080373E+01 -0.12479067968E+02 -0.11877208050E+02  0.18700321850E+02  0.51100000000E-03 0.  1.
        -12    1    3    3    0    0 -0.52947215764E+01  0.33552382205E+02 -0.15076172149E+02  0.37162984203E+02  0.00000000000E+00 0.  1.
</event>
<event>
 7    1  0.2153242E-013  0.7246156E+02  0.7816164E-02  0.1226708E+00
        -11   -1    0    0    0    0  0.00000000000E+00  0.00000000000E+00  0.45593999997E+02  0.45594000000E+02  0.51100000000E-03 0.  1.
         11   -1    0    0    0    0 -0.00000000000E+00 -0.00000000000E+00 -0.45593999997E+02  0.45594000000E+02  0.51100000000E-03 0. -1.
    9900012    2    1    2    0    0  0.76174631263E+01  0.15876048268E+02 -0.63722035023E+01  0.72461557984E+02  0.69999983964E+02 0.  0.
         12    1    1    2    0    0 -0.76174631263E+01 -0.15876048268E+02  0.63722035023E+01  0.18726442016E+02  0.00000000000E+00 0. -1.
         11    1    3    3    0    0 -0.17478006066E+02 -0.19396256536E+02  0.43255553566E+01  0.26465182657E+02  0.51100000000E-03 0. -1.
        -11    1    3    3    0    0  0.43995849248E+01  0.11741268284E+02  0.92618454697E+00  0.12572650735E+02  0.51100000000E-03 0.  1.
        -12    1    3    3    0    0  0.20695884268E+02  0.23531036520E+02 -0.11623943406E+02  0.33423724592E+02  0.00000000000E+00 0.  1.
</event>
<event>
 7    1  0.2153242E-013  0.7246157E+02  0.7816164E-02  0.1226708E+00
        -11   -1    0    0    0    0  0.00000000000E+00  0.00000000000E+00  0.45593999997E+02  0.45594000000E+02  0.51100000000E-03 0. -1.
         11   -1    0    0    0    0 -0.00000000000E+00 -0.00000000000E+00 -0.45593999997E+02  0.45594000000E+02  0.51100000000E-03 0.  1.
    9900012    2    1    2    0    0  0.13077258189E+02 -0.91989697277E+01  0.97490251964E+01  0.72461568998E+02  0.69999998311E+02 0.  0.
         12    1    1    2    0    0 -0.13077258189E+02  0.91989697277E+01 -0.97490251964E+01  0.18726431002E+02  0.00000000000E+00 0. -1.
         11    1    3    3    0    0  0.11087852314E+02  0.19475241924E+02  0.19670416189E+02  0.29818631595E+02  0.51100000000E-03 0. -1.
        -11    1    3    3    0    0  0.15411529962E-01  0.56300282368E+01 -0.57201631379E+01  0.80260651659E+01  0.51100000000E-03 0.  1.
        -12    1    3    3    0    0  0.19739943448E+01 -0.34304239888E+02 -0.42012278544E+01  0.34616872237E+02  0.00000000000E+00 0.  1.
</event>
<event>
 7    1  0.2153242E-013  0.7246156E+02  0.7816164E-02  0.1226708E+00
        -11   -1    0    0    0    0  0.00000000000E+00  0.00000000000E+00  0.45593999997E+02  0.45594000000E+02  0.51100000000E-03 0.  1.
         11   -1    0    0    0    0 -0.00000000000E+00 -0.00000000000E+00 -0.45593999997E+02  0.45594000000E+02  0.51100000000E-03 0. -1.
    9900012    2    1    2    0    0 -0.15919607439E+01 -0.18280865311E+02 -0.37356833035E+01  0.72461555990E+02  0.69999981366E+02 0.  0.
         12    1    1    2    0    0  0.15919607439E+01  0.18280865311E+02  0.37356833035E+01  0.18726444010E+02  0.00000000000E+00 0. -1.
         11    1    3    3    0    0 -0.13848821634E+01 -0.37050134628E+01  0.11657865612E+02  0.12310599264E+02  0.51100000000E-03 0. -1.
        -11    1    3    3    0    0  0.11242776680E+02 -0.17185398289E+02  0.16385130964E+02  0.26271856782E+02  0.51100000000E-03 0.  1.
         12    1    3    3    0    0 -0.11449855261E+02  0.26095464407E+01 -0.31778679879E+02  0.33879099943E+02  0.00000000000E+00 0. -1.
</event>
<event>
 7    1  0.2153242E-013  0.7246147E+02  0.7816164E-02  0.1226708E+00
        -11   -1    0    0    0    0  0.00000000000E+00  0.00000000000E+00  0.45593999997E+02  0.45594000000E+02  0.51100000000E-03 0. -1.
         11   -1    0    0    0    0 -0.00000000000E+00 -0.00000000000E+00 -0.45593999997E+02  0.45594000000E+02  0.51100000000E-03 0.  1.
    9900012    2    1    2    0    0 -0.29258681179E+01 -0.56051947760E+01 -0.17626798535E+02  0.72461469640E+02  0.69999868879E+02 0.  0.
         12    1    1    2    0    0  0.29258681179E+01  0.56051947760E+01  0.17626798535E+02  0.18726530360E+02  0.00000000000E+00 0. -1.
         11    1    3    3    0    0 -0.24015149830E+01  0.24387644937E+01 -0.98562467298E+01  0.10433620960E+02  0.51100000000E-03 0. -1.
        -11    1    3    3    0    0 -0.32203103948E+01  0.87463743697E+01 -0.31491097534E+02  0.32841417262E+02  0.51100000000E-03 0.  1.
         12    1    3    3    0    0  0.26959572599E+01 -0.16790333639E+02  0.23720545728E+02  0.29186431418E+02  0.00000000000E+00 0. -1.
</event>
<event>
 7    1  0.2153242E-013  0.7246154E+02  0.7816164E-02  0.1226708E+00
        -11   -1    0    0    0    0  0.00000000000E+00  0.00000000000E+00  0.45593999997E+02  0.45594000000E+02  0.51100000000E-03 0.  1.
         11   -1    0    0    0    0 -0.00000000000E+00 -0.00000000000E+00 -0.45593999997E+02  0.45594000000E+02  0.51100000000E-03 0. -1.
    9900012    2    1    2    0    0  0.15396319499E+02  0.97981196003E+01  0.41988805956E+01  0.72461537438E+02  0.69999957199E+02 0.  0.
         12    1    1    2    0    0 -0.15396319499E+02 -0.97981196003E+01 -0.41988805956E+01  0.18726462562E+02  0.00000000000E+00 0. -1.
         11    1    3    3    0    0  0.39552075744E+01 -0.33973785301E+01  0.55288150515E+01  0.75995818285E+01  0.51100000000E-03 0. -1.
        -11    1    3    3    0    0  0.18572206951E+02  0.16469252032E+02  0.26285306615E+02  0.36153567980E+02  0.51100000000E-03 0.  1.
         12    1    3    3    0    0 -0.71310950266E+01 -0.32737539015E+01 -0.27615241071E+02  0.28708387630E+02  0.00000000000E+00 0. -1.
</event>
<event>
 7    1  0.2153242E-013  0.7246162E+02  0.7816164E-02  0.1226708E+00
        -11   -1    0    0    0    0  0.00000000000E+00  0.00000000000E+00  0.45593999997E+02  0.45594000000E+02  0.51100000000E-03 0. -1.
         11   -1    0    0    0    0 -0.00000000000E+00 -0.00000000000E+00 -0.45593999997E+02  0.45594000000E+02  0.51100000000E-03 0.  1.
    9900012    2    1    2    0    0  0.68687929833E+01 -0.41255960964E+01 -0.16925616397E+02  0.72461618859E+02  0.70000063265E+02 0.  0.
         12    1    1    2    0    0 -0.68687929833E+01  0.41255960964E+01  0.16925616397E+02  0.18726381141E+02  0.00000000000E+00 0. -1.
         11    1    3    3    0    0 -0.16161544757E+02  0.37929048275E+01  0.20394770139E+02  0.26296925776E+02  0.51100000000E-03 0. -1.
        -11    1    3    3    0    0  0.81272398986E+00 -0.45520076973E+01 -0.51237646989E+01  0.69017576972E+01  0.51100000000E-03 0.  1.
        -12    1    3    3    0    0  0.22217613751E+02 -0.33664932266E+01 -0.32196621837E+02  0.39262935386E+02  0.00000000000E+00 0.  1.
</event>
<event>
 7    1  0.2153242E-013  0.7246156E+02  0.7816164E-02  0.1226708E+00
        -11   -1    0    0    0    0  0.00000000000E+00  0.00000000000E+00  0.45593999997E+02  0.45594000000E+02  0.51100000000E-03 0. -1.
         11   -1    0    0    0    0 -0.00000000000E+00 -0.00000000000E+00 -0.45593999997E+02  0.45594000000E+02  0.51100000000E-03 0.  1.
    9900012    2    1    2    0    0  0.27468660751E+01  0.13147534637E+02 -0.13049002496E+02  0.72461563970E+02  0.69999991761E+02 0.  0.
         12    1    1    2    0    0 -0.27468660751E+01 -0.13147534637E+02  0.13049002496E+02  0.18726436030E+02  0.00000000000E+00 0. -1.
         11    1    3    3    0    0  0.27360195413E+02  0.30394939198E+01  0.28852367037E+01  0.27679295645E+02  0.51100000000E-03 0. -1.
        -11    1    3    3    0    0 -0.17112897250E+02  0.86283200837E+01  0.71574446884E+01  0.20457961151E+02  0.51100000000E-03 0.  1.
        -12    1    3    3    0    0 -0.75004320883E+01  0.14797206332E+01 -0.23091683888E+02  0.24324307173E+02  0.00000000000E+00 0.  1.
</event>
<event>
 7    1  0.2153242E-013  0.7246164E+02  0.7816164E-02  0.1226708E+00
        -11   -1    0    0    0    0  0.00000000000E+00  0.00000000000E+00  0.45593999997E+02  0.45594000000E+02  0.51100000000E-03 0. -1.
         11   -1    0    0    0    0 -0.00000000000E+00 -0.00000000000E+00 -0.45593999997E+02  0.45594000000E+02  0.51100000000E-03 0.  1.
    9900012    2    1    2    0    0 -0.16707428698E+02  0.11444727314E+01 -0.83802407156E+01  0.72461643548E+02  0.70000095426E+02 0.  0.
         12    1    1    2    0    0  0.16707428698E+02 -0.11444727314E+01  0.83802407156E+01  0.18726356452E+02  0.00000000000E+00 0. -1.
         11    1    3    3    0    0 -0.47812264227E+01  0.22626588980E+02  0.19746477900E+02  0.30409637366E+02  0.51100000000E-03 0. -1.
        -11    1    3    3    0    0 -0.27059874090E-01  0.34941876385E+01 -0.42947614071E+01  0.55367007591E+01  0.51100000000E-03 0.  1.
        -12    1    3    3    0    0 -0.11899142401E+02 -0.24976303887E+02 -0.23831957209E+02  0.36515305423E+02  0.00000000000E+00 0.  1.
</event>
<event>
 7    1  0.2153242E-013  0.7246164E+02  0.7816164E-02  0.1226708E+00
        -11   -1    0    0    0    0  0.00000000000E+00  0.00000000000E+00  0.45593999997E+02  0.45594000000E+02  0.51100000000E-03 0.  1.
         11   -1    0    0    0    0 -0.00000000000E+00 -0.00000000000E+00 -0.45593999997E+02  0.45594000000E+02  0.51100000000E-03 0. -1.
    9900012    2    1    2    0    0 -0.29756497856E+01 -0.43336032825E+00  0.18483354207E+02  0.72461636884E+02  0.70000086745E+02 0.  0.
         12    1    1    2    0    0  0.29756497856E+01  0.43336032825E+00 -0.18483354207E+02  0.18726363116E+02  0.00000000000E+00 0. -1.
         11    1    3    3    0    0 -0.11621733283E+02 -0.76032976627E+01 -0.14451430544E+02  0.20042920568E+02  0.51100000000E-03 0. -1.
        -11    1    3    3    0    0  0.43184018479E+01 -0.78288369156E+00 -0.87355701084E+01  0.97760772692E+01  0.51100000000E-03 0.  1.
        -12    1    3    3    0    0  0.43276816495E+01  0.79528210260E+01  0.41670354860E+02  0.42642639047E+02  0.00000000000E+00 0.  1.
</event>
<event>
 7    1  0.2153242E-013  0.7246158E+02  0.7816164E-02  0.1226708E+00
        -11   -1    0    0    0    0  0.00000000000E+00  0.00000000000E+00  0.45593999997E+02  0.45594000000E+02  0.51100000000E-03 0. -1.
         11   -1    0    0    0    0 -0.00000000000E+00 -0.00000000000E+00 -0.45593999997E+02  0.45594000000E+02  0.51100000000E-03 0.  1.
    9900012    2    1    2    0    0  0.52538318727E+01  0.15822796008E+02 -0.85273289776E+01  0.72461575826E+02  0.70000007206E+02 0.  0.
         12    1    1    2    0    0 -0.52538318727E+01 -0.15822796008E+02  0.85273289776E+01  0.18726424174E+02  0.00000000000E+00 0. -1.
         11    1    3    3    0    0 -0.13767016092E+01  0.15069427978E+02  0.10765012582E+02  0.18570634429E+02  0.51100000000E-03 0. -1.
        -11    1    3    3    0    0  0.24716343790E+02  0.11205787947E+02 -0.18767716863E+02  0.32995371348E+02  0.51100000000E-03 0.  1.
        -12    1    3    3    0    0 -0.18085810308E+02 -0.10452419917E+02 -0.52462469681E+00  0.20895570050E+02  0.00000000000E+00 0.  1.
</event>
<event>
 7    1  0.2153242E-013  0.7246160E+02  0.7816164E-02  0.1226708E+00
        -11   -1    0    0    0    0  0.00000000000E+00  0.00000000000E+00  0.45593999997E+02  0.45594000000E+02  0.51100000000E-03 0.  1.
         11   -1    0    0    0    0 -0.00000000000E+00 -0.00000000000E+00 -0.45593999997E+02  0.45594000000E+02  0.51100000000E-03 0. -1.
    9900012    2    1    2    0    0  0.11703640328E+02  0.10428386198E+02 -0.10244587598E+02  0.72461601236E+02  0.70000040307E+02 0.  0.
         12    1    1    2    0    0 -0.11703640328E+02 -0.10428386198E+02  0.10244587598E+02  0.18726398764E+02  0.00000000000E+00 0. -1.
         11    1    3    3    0    0  0.99682490065E+01 -0.37015236692E+01  0.49411169981E+01  0.11725267723E+02  0.51100000000E-03 0. -1.
        -11    1    3    3    0    0  0.28728445622E+02  0.11696869878E+02 -0.34764585518E+01  0.31212595488E+02  0.51100000000E-03 0.  1.
         12    1    3    3    0    0 -0.26993054300E+02  0.24330399890E+01 -0.11709246044E+02  0.29523738025E+02  0.00000000000E+00 0. -1.
</event>
<event>
 7    1  0.2153242E-013  0.7246160E+02  0.7816164E-02  0.1226708E+00
        -11   -1    0    0    0    0  0.00000000000E+00  0.00000000000E+00  0.45593999997E+02  0.45594000000E+02  0.51100000000E-03 0.  1.
         11   -1    0    0    0    0 -0.00000000000E+00 -0.00000000000E+00 -0.45593999997E+02  0.45594000000E+02  0.51100000000E-03 0. -1.
    9900012    2    1    2    0    0 -0.41298711187E+01 -0.51387576537E+01  0.17527555994E+02  0.72461604596E+02  0.70000044685E+02 0.  0.
         12    1    1    2    0    0  0.41298711187E+01  0.51387576537E+01 -0.17527555994E+02  0.18726395404E+02  0.00000000000E+00 0. -1.
         11    1    3    3    0    0  0.17147895605E+02  0.47115440147E+01  0.49494517810E+01  0.18459307784E+02  0.51100000000E-03 0. -1.
        -11    1    3    3    0    0  0.41394692349E+01 -0.68043343725E+01  0.24500839337E+02  0.25762866694E+02  0.51100000000E-03 0.  1.
         12    1    3    3    0    0 -0.25417235959E+02 -0.30459672959E+01 -0.11922735124E+02  0.28239430118E+02  0.00000000000E+00 0. -1.
</event>
<event>
 7    1  0.2153242E-013  0.7246158E+02  0.7816164E-02  0.1226708E+00
        -11   -1    0    0    0    0  0.00000000000E+00  0.00000000000E+00  0.45593999997E+02  0.45594000000E+02  0.51100000000E-03 0.  1.
         11   -1    0    0    0    0 -0.00000000000E+00 -0.00000000000E+00 -0.45593999997E+02  0.45594000000E+02  0.51100000000E-03 0. -1.
    9900012    2    1    2    0    0 -0.60423685565E+01 -0.14811083519E+02  0.97365409271E+01  0.72461584379E+02  0.70000018348E+02 0.  0.
         12    1    1    2    0    0  0.60423685565E+01  0.14811083519E+02 -0.97365409271E+01  0.18726415621E+02  0.00000000000E+00 0. -1.
         11    1    3    3    0    0  0.19992111853E+02 -0.52086967653E+01 -0.12670377588E+02  0.24235377588E+02  0.51100000000E-03 0. -1.
        -11    1    3    3    0    0  0.71260876216E+01 -0.57260198514E+01  0.66737700098E+01  0.11318464319E+02  0.51100000000E-03 0.  1.
         12    1    3    3    0    0 -0.33160568031E+02 -0.38763669019E+01  0.15733148506E+02  0.36907742473E+02  0.00000000000E+00 0. -1.
</event>
<event>
 7    1  0.2153242E-013  0.7246155E+02  0.7816164E-02  0.1226708E+00
        -11   -1    0    0    0    0  0.00000000000E+00  0.00000000000E+00  0.45593999997E+02  0.45594000000E+02  0.51100000000E-03 0.  1.
         11   -1    0    0    0    0 -0.00000000000E+00 -0.00000000000E+00 -0.45593999997E+02  0.45594000000E+02  0.51100000000E-03 0. -1.
    9900012    2    1    2    0    0  0.17542622461E+02 -0.51613871132E+01  0.40368639423E+01  0.72461553721E+02  0.69999978410E+02 0.  0.
         12    1    1    2    0    0 -0.17542622461E+02  0.51613871132E+01 -0.40368639423E+01  0.18726446279E+02  0.00000000000E+00 0. -1.
         11    1    3    3    0    0  0.29037597995E+02 -0.80360646119E+01 -0.99754962615E+01  0.31737532318E+02  0.51100000000E-03 0. -1.
        -11    1    3    3    0    0 -0.84618702625E+01  0.40076835084E+01 -0.11600345261E+02  0.14907474162E+02  0.51100000000E-03 0.  1.
        -12    1    3    3    0    0 -0.30331052709E+01 -0.11330060097E+01  0.25612705465E+02  0.25816547241E+02  0.00000000000E+00 0.  1.
</event>
<event>
 7    1  0.2153242E-013  0.7246157E+02  0.7816164E-02  0.1226708E+00
        -11   -1    0    0    0    0  0.00000000000E+00  0.00000000000E+00  0.45593999997E+02  0.45594000000E+02  0.51100000000E-03 0.  1.
         11   -1    0    0    0    0 -0.00000000000E+00 -0.00000000000E+00 -0.45593999997E+02  0.45594000000E+02  0.51100000000E-03 0. -1.
    9900012    2    1    2    0    0  0.13529963710E+02  0.22842138626E+01  0.12743690006E+02  0.72461569856E+02  0.69999999429E+02 0.  0.
         12    1    1    2    0    0 -0.13529963710E+02 -0.22842138626E+01 -0.12743690006E+02  0.18726430144E+02  0.00000000000E+00 0. -1.
         11    1    3    3    0    0 -0.19479906571E+00  0.20671937506E+02  0.18868842924E+01  0.20758788007E+02  0.51100000000E-03 0. -1.
        -11    1    3    3    0    0  0.12155550303E+02  0.77036867922E+01  0.19443503881E+02  0.24189957354E+02  0.51100000000E-03 0.  1.
        -12    1    3    3    0    0  0.15692124730E+01 -0.26091410435E+02 -0.85866981681E+01  0.27512824495E+02  0.00000000000E+00 0.  1.
</event>
<event>
 7    1  0.2153242E-013  0.7246156E+02  0.7816164E-02  0.1226708E+00
        -11   -1    0    0    0    0  0.00000000000E+00  0.00000000000E+00  0.45593999997E+02  0.45594000000E+02  0.51100000000E-03 0.  1.
         11   -1    0    0    0    0 -0.00000000000E+00 -0.00000000000E+00 -0.45593999997E+02  0.45594000000E+02  0.51100000000E-03 0. -1.
    9900012    2    1    2    0    0 -0.15128414303E+02 -0.66336829418E+01  0.88207019835E+01  0.72461562747E+02  0.69999990169E+02 0.  0.
         12    1    1    2    0    0  0.15128414303E+02  0.66336829418E+01 -0.88207019835E+01  0.18726437253E+02  0.00000000000E+00 0. -1.
         11    1    3    3    0    0  0.14584898072E+01  0.18029979997E+02  0.11893302338E+02  0.21648510618E+02  0.51100000000E-03 0. -1.
        -11    1    3    3    0    0  0.10510920784E+02  0.14764561694E+01  0.58496652073E+01  0.12119321839E+02  0.51100000000E-03 0.  1.
        -12    1    3    3    0    0 -0.27097824894E+02 -0.26140119109E+02 -0.89222655618E+01  0.38693730290E+02  0.00000000000E+00 0.  1.
</event>
<event>
 7    1  0.2153242E-013  0.7246157E+02  0.7816164E-02  0.1226708E+00
        -11   -1    0    0    0    0  0.00000000000E+00  0.00000000000E+00  0.45593999997E+02  0.45594000000E+02  0.51100000000E-03 0. -1.
         11   -1    0    0    0    0 -0.00000000000E+00 -0.00000000000E+00 -0.45593999997E+02  0.45594000000E+02  0.51100000000E-03 0.  1.
    9900012    2    1    2    0    0  0.14025235100E+01 -0.16317476659E+02 -0.90803204220E+01  0.72461565858E+02  0.69999994220E+02 0.  0.
         12    1    1    2    0    0 -0.14025235100E+01  0.16317476659E+02  0.90803204220E+01  0.18726434142E+02  0.00000000000E+00 0. -1.
         11    1    3    3    0    0 -0.63670332014E+01  0.22038462691E+01 -0.11945844487E+02  0.13714928032E+02  0.51100000000E-03 0. -1.
        -11    1    3    3    0    0 -0.21480126394E+02  0.38336771599E+01 -0.18739931503E-01  0.21819561451E+02  0.51100000000E-03 0.  1.
         12    1    3    3    0    0  0.29249683106E+02 -0.22355000088E+02  0.28842639960E+01  0.36927076374E+02  0.00000000000E+00 0. -1.
</event>
<event>
 7    1  0.2153242E-013  0.7246153E+02  0.7816164E-02  0.1226708E+00
        -11   -1    0    0    0    0  0.00000000000E+00  0.00000000000E+00  0.45593999997E+02  0.45594000000E+02  0.51100000000E-03 0.  1.
         11   -1    0    0    0    0 -0.00000000000E+00 -0.00000000000E+00 -0.45593999997E+02  0.45594000000E+02  0.51100000000E-03 0. -1.
    9900012    2    1    2    0    0  0.12551273139E+02  0.11235024770E+01  0.13852222373E+02  0.72461527296E+02  0.69999943987E+02 0.  0.
         12    1    1    2    0    0 -0.12551273139E+02 -0.11235024770E+01 -0.13852222373E+02  0.18726472704E+02  0.00000000000E+00 0. -1.
         11    1    3    3    0    0  0.23413808410E+02 -0.29256789513E+02  0.11064978439E+02  0.39071727694E+02  0.51100000000E-03 0.  1.
        -11    1    3    3    0    0 -0.52150799965E+01  0.81040257686E+01  0.38658813281E+01  0.10383512495E+02  0.51100000000E-03 0. -1.
        -12    1    3    3    0    0 -0.56474552742E+01  0.22276266222E+02 -0.10786373937E+01  0.23006287108E+02  0.00000000000E+00 0.  1.
</event>
<event>
 7    1  0.2153242E-013  0.7246115E+02  0.7816164E-02  0.1226709E+00
        -11   -1    0    0    0    0  0.00000000000E+00  0.00000000000E+00  0.45593999997E+02  0.45594000000E+02  0.51100000000E-03 0.  1.
         11   -1    0    0    0    0 -0.00000000000E+00 -0.00000000000E+00 -0.45593999997E+02  0.45594000000E+02  0.51100000000E-03 0. -1.
    9900012    2    1    2    0    0  0.14921998874E+02 -0.69459649209E+01  0.89320950368E+01  0.72461152940E+02  0.69999456316E+02 0.  0.
         12    1    1    2    0    0 -0.14921998874E+02  0.69459649209E+01 -0.89320950368E+01  0.18726847060E+02  0.00000000000E+00 0. -1.
         11    1    3    3    0    0  0.18611524582E+01 -0.93146989410E+01 -0.47824472494E+01  0.10634815785E+02  0.51100000000E-03 0. -1.
        -11    1    3    3    0    0  0.24403615681E+00 -0.24235085332E+02  0.20248781962E+02  0.31581831579E+02  0.51100000000E-03 0.  1.
         12    1    3    3    0    0  0.12816810259E+02  0.26603819352E+02 -0.65342396755E+01  0.30244505575E+02  0.00000000000E+00 0. -1.
</event>
<event>
 7    1  0.2153242E-013  0.7246167E+02  0.7816164E-02  0.1226708E+00
        -11   -1    0    0    0    0  0.00000000000E+00  0.00000000000E+00  0.45593999997E+02  0.45594000000E+02  0.51100000000E-03 0. -1.
         11   -1    0    0    0    0 -0.00000000000E+00 -0.00000000000E+00 -0.45593999997E+02  0.45594000000E+02  0.51100000000E-03 0.  1.
    9900012    2    1    2    0    0 -0.18206641744E+01 -0.18250613936E+02  0.37783002786E+01  0.72461674144E+02  0.70000135283E+02 0.  0.
         12    1    1    2    0    0  0.18206641744E+01  0.18250613936E+02 -0.37783002786E+01  0.18726325856E+02  0.00000000000E+00 0. -1.
         11    1    3    3    0    0  0.10923228424E+02 -0.26072920204E+02 -0.68365956965E+01  0.29083554256E+02  0.51100000000E-03 0. -1.
        -11    1    3    3    0    0 -0.27876082010E+00  0.26968618516E+01 -0.14566538081E+02  0.14816706900E+02  0.51100000000E-03 0.  1.
         12    1    3    3    0    0 -0.12465131779E+02  0.51254444168E+01  0.25181434056E+02  0.28561412988E+02  0.00000000000E+00 0. -1.
</event>
<event>
 7    1  0.2153242E-013  0.7246150E+02  0.7816164E-02  0.1226708E+00
        -11   -1    0    0    0    0  0.00000000000E+00  0.00000000000E+00  0.45593999997E+02  0.45594000000E+02  0.51100000000E-03 0. -1.
         11   -1    0    0    0    0 -0.00000000000E+00 -0.00000000000E+00 -0.45593999997E+02  0.45594000000E+02  0.51100000000E-03 0.  1.
    9900012    2    1    2    0    0  0.50361049532E+01 -0.12566860846E+02 -0.12938065717E+02  0.72461497681E+02  0.69999905407E+02 0.  0.
         12    1    1    2    0    0 -0.50361049532E+01  0.12566860846E+02  0.12938065717E+02  0.18726502319E+02  0.00000000000E+00 0. -1.
         11    1    3    3    0    0  0.43478806229E+00 -0.16102422642E+02  0.71850874793E+01  0.17638099046E+02  0.51100000000E-03 0. -1.
        -11    1    3    3    0    0 -0.12214263908E+02  0.22191444959E+02 -0.14118779698E+02  0.28999800217E+02  0.51100000000E-03 0.  1.
         12    1    3    3    0    0  0.16815580799E+02 -0.18655883162E+02 -0.60043734977E+01  0.25823598418E+02  0.00000000000E+00 0. -1.
</event>
<event>
 7    1  0.2153242E-013  0.7246168E+02  0.7816164E-02  0.1226708E+00
        -11   -1    0    0    0    0  0.00000000000E+00  0.00000000000E+00  0.45593999997E+02  0.45594000000E+02  0.51100000000E-03 0.  1.
         11   -1    0    0    0    0 -0.00000000000E+00 -0.00000000000E+00 -0.45593999997E+02  0.45594000000E+02  0.51100000000E-03 0. -1.
    9900012    2    1    2    0    0  0.71061865409E+01 -0.16634898795E+02  0.48432603960E+01  0.72461683855E+02  0.70000147934E+02 0.  0.
         12    1    1    2    0    0 -0.71061865409E+01  0.16634898795E+02 -0.48432603960E+01  0.18726316145E+02  0.00000000000E+00 0. -1.
         11    1    3    3    0    0  0.18227821545E+02 -0.10312582478E+02 -0.12469978596E+02  0.24374232338E+02  0.51100000000E-03 0. -1.
        -11    1    3    3    0    0  0.13344544801E+02 -0.12977285605E+02  0.12101880679E+02  0.22202304697E+02  0.51100000000E-03 0.  1.
        -12    1    3    3    0    0 -0.24466179804E+02  0.66549692881E+01  0.52113583132E+01  0.25885146820E+02  0.00000000000E+00 0.  1.
</event>
<event>
 7    1  0.2153242E-013  0.7246163E+02  0.7816164E-02  0.1226708E+00
        -11   -1    0    0    0    0  0.00000000000E+00  0.00000000000E+00  0.45593999997E+02  0.45594000000E+02  0.51100000000E-03 0.  1.
         11   -1    0    0    0    0 -0.00000000000E+00 -0.00000000000E+00 -0.45593999997E+02  0.45594000000E+02  0.51100000000E-03 0. -1.
    9900012    2    1    2    0    0 -0.13271023519E+02 -0.11924883530E+02  0.56880700347E+01  0.72461626802E+02  0.70000073612E+02 0.  0.
         12    1    1    2    0    0  0.13271023519E+02  0.11924883530E+02 -0.56880700347E+01  0.18726373198E+02  0.00000000000E+00 0. -1.
         11    1    3    3    0    0 -0.28165982726E+02 -0.24008434070E+00 -0.20061999539E+02  0.34581267316E+02  0.51100000000E-03 0. -1.
        -11    1    3    3    0    0 -0.33592156417E+01 -0.24865833529E+01  0.13312340139E+02  0.13952986302E+02  0.51100000000E-03 0.  1.
        -12    1    3    3    0    0  0.18254174849E+02 -0.91982158360E+01  0.12437729435E+02  0.23927373184E+02  0.00000000000E+00 0.  1.
</event>
<event>
 7    1  0.2153242E-013  0.7246156E+02  0.7816164E-02  0.1226708E+00
        -11   -1    0    0    0    0  0.00000000000E+00  0.00000000000E+00  0.45593999997E+02  0.45594000000E+02  0.51100000000E-03 0.  1.
         11   -1    0    0    0    0 -0.00000000000E+00 -0.00000000000E+00 -0.45593999997E+02  0.45594000000E+02  0.51100000000E-03 0. -1.
    9900012    2    1    2    0    0 -0.13714845804E+02  0.12658826945E+02 -0.15286543873E+01  0.72461556684E+02  0.69999982269E+02 0.  0.
         12    1    1    2    0    0  0.13714845804E+02 -0.12658826945E+02  0.15286543873E+01  0.18726443316E+02  0.00000000000E+00 0. -1.
         11    1    3    3    0    0 -0.24654591242E+02 -0.81105755749E+01  0.15746775830E+02  0.30357721502E+02  0.51100000000E-03 0. -1.
        -11    1    3    3    0    0  0.13702099392E+02 -0.22231865639E+01 -0.12410846898E+01  0.13936655901E+02  0.51100000000E-03 0.  1.
        -12    1    3    3    0    0 -0.27623539536E+01  0.22992589083E+02 -0.16034345528E+02  0.28167179281E+02  0.00000000000E+00 0.  1.
</event>
<event>
 7    1  0.2153242E-013  0.7246174E+02  0.7816164E-02  0.1226708E+00
        -11   -1    0    0    0    0  0.00000000000E+00  0.00000000000E+00  0.45593999997E+02  0.45594000000E+02  0.51100000000E-03 0.  1.
         11   -1    0    0    0    0 -0.00000000000E+00 -0.00000000000E+00 -0.45593999997E+02  0.45594000000E+02  0.51100000000E-03 0. -1.
    9900012    2    1    2    0    0 -0.11271084645E+02 -0.11483712938E+02  0.95791388052E+01  0.72461737368E+02  0.70000217645E+02 0.  0.
         12    1    1    2    0    0  0.11271084645E+02  0.11483712938E+02 -0.95791388052E+01  0.18726262632E+02  0.00000000000E+00 0. -1.
         11    1    3    3    0    0 -0.19893245684E+02 -0.14477427708E+02  0.17163009358E+02  0.29998433749E+02  0.51100000000E-03 0. -1.
        -11    1    3    3    0    0 -0.51754912564E+01  0.27872933041E+01  0.14936429624E+02  0.16051530889E+02  0.51100000000E-03 0.  1.
         12    1    3    3    0    0  0.13797652296E+02  0.20642146667E+00 -0.22520300177E+02  0.26411772730E+02  0.00000000000E+00 0. -1.
</event>
<event>
 7    1  0.2153242E-013  0.7246167E+02  0.7816164E-02  0.1226708E+00
        -11   -1    0    0    0    0  0.00000000000E+00  0.00000000000E+00  0.45593999997E+02  0.45594000000E+02  0.51100000000E-03 0.  1.
         11   -1    0    0    0    0 -0.00000000000E+00 -0.00000000000E+00 -0.45593999997E+02  0.45594000000E+02  0.51100000000E-03 0. -1.
    9900012    2    1    2    0    0  0.14847508158E+02 -0.36406139158E+01  0.10815405967E+02  0.72461666285E+02  0.70000125045E+02 0.  0.
         12    1    1    2    0    0 -0.14847508158E+02  0.36406139158E+01 -0.10815405967E+02  0.18726333715E+02  0.00000000000E+00 0. -1.
         11    1    3    3    0    0  0.12775442796E+02 -0.26549678127E+02  0.18723385633E+02  0.34909347131E+02  0.51100000000E-03 0. -1.
        -11    1    3    3    0    0 -0.66959206156E+01 -0.24580678953E+01 -0.79925037937E+01  0.10712495873E+02  0.51100000000E-03 0.  1.
        -12    1    3    3    0    0  0.87679859773E+01  0.25367132107E+02  0.84524127832E-01  0.26839823281E+02  0.00000000000E+00 0.  1.
</event>
<event>
 7    1  0.2153242E-013  0.7246158E+02  0.7816164E-02  0.1226708E+00
        -11   -1    0    0    0    0  0.00000000000E+00  0.00000000000E+00  0.45593999997E+02  0.45594000000E+02  0.51100000000E-03 0. -1.
         11   -1    0    0    0    0 -0.00000000000E+00 -0.00000000000E+00 -0.45593999997E+02  0.45594000000E+02  0.51100000000E-03 0.  1.
    9900012    2    1    2    0    0  0.66785377242E+01  0.16682542907E+02 -0.52696170165E+01  0.72461575689E+02  0.70000007028E+02 0.  0.
         12    1    1    2    0    0 -0.66785377242E+01 -0.16682542907E+02  0.52696170165E+01  0.18726424311E+02  0.00000000000E+00 0. -1.
         11    1    3    3    0    0  0.32904043857E+01  0.48438826645E+01 -0.12469117274E+02  0.13775661369E+02  0.51100000000E-03 0. -1.
        -11    1    3    3    0    0  0.12393030778E+02 -0.11707204260E+02 -0.16760217919E+02  0.23907127565E+02  0.51100000000E-03 0.  1.
         12    1    3    3    0    0 -0.90048974396E+01  0.23545864502E+02  0.23959718177E+02  0.34778786755E+02  0.00000000000E+00 0. -1.
</event>
<event>
 7    1  0.2153242E-013  0.7246164E+02  0.7816164E-02  0.1226708E+00
        -11   -1    0    0    0    0  0.00000000000E+00  0.00000000000E+00  0.45593999997E+02  0.45594000000E+02  0.51100000000E-03 0.  1.
         11   -1    0    0    0    0 -0.00000000000E+00 -0.00000000000E+00 -0.45593999997E+02  0.45594000000E+02  0.51100000000E-03 0. -1.
    9900012    2    1    2    0    0 -0.81207793176E+01 -0.16086236423E+02  0.50953367041E+01  0.72461641168E+02  0.70000092326E+02 0.  0.
         12    1    1    2    0    0  0.81207793176E+01  0.16086236423E+02 -0.50953367041E+01  0.18726358832E+02  0.00000000000E+00 0. -1.
         11    1    3    3    0    0  0.22274979965E+02 -0.19269552732E+02  0.52177672149E+01  0.29911795164E+02  0.51100000000E-03 0. -1.
        -11    1    3    3    0    0 -0.88942904120E+00  0.11684988747E+02  0.14194906209E+01  0.11804448310E+02  0.51100000000E-03 0.  1.
         12    1    3    3    0    0 -0.29506330242E+02 -0.85016724375E+01 -0.15419211318E+01  0.30745397694E+02  0.00000000000E+00 0. -1.
</event>
<event>
 7    1  0.2153242E-013  0.7246156E+02  0.7816164E-02  0.1226708E+00
        -11   -1    0    0    0    0  0.00000000000E+00  0.00000000000E+00  0.45593999997E+02  0.45594000000E+02  0.51100000000E-03 0.  1.
         11   -1    0    0    0    0 -0.00000000000E+00 -0.00000000000E+00 -0.45593999997E+02  0.45594000000E+02  0.51100000000E-03 0. -1.
    9900012    2    1    2    0    0 -0.73574166272E+01 -0.13474203831E+02  0.10723515586E+02  0.72461560540E+02  0.69999987294E+02 0.  0.
         12    1    1    2    0    0  0.73574166272E+01  0.13474203831E+02 -0.10723515586E+02  0.18726439460E+02  0.00000000000E+00 0. -1.
         11    1    3    3    0    0 -0.85830233514E+01 -0.12232434767E+02 -0.26825715816E+02  0.30706998868E+02  0.51100000000E-03 0. -1.
        -11    1    3    3    0    0 -0.60434399484E+01  0.36617694472E+00  0.36984147204E+01  0.70947532494E+01  0.51100000000E-03 0.  1.
        -12    1    3    3    0    0  0.72690466726E+01 -0.16079460083E+01  0.33850816682E+02  0.34659808423E+02  0.00000000000E+00 0.  1.
</event>
<event>
 7    1  0.2153242E-013  0.7246157E+02  0.7816164E-02  0.1226708E+00
        -11   -1    0    0    0    0  0.00000000000E+00  0.00000000000E+00  0.45593999997E+02  0.45594000000E+02  0.51100000000E-03 0.  1.
         11   -1    0    0    0    0 -0.00000000000E+00 -0.00000000000E+00 -0.45593999997E+02  0.45594000000E+02  0.51100000000E-03 0. -1.
    9900012    2    1    2    0    0 -0.76990463976E+01  0.16780656117E+02  0.31326376008E+01  0.72461570722E+02  0.70000000557E+02 0.  0.
         12    1    1    2    0    0  0.76990463976E+01 -0.16780656117E+02 -0.31326376008E+01  0.18726429278E+02  0.00000000000E+00 0. -1.
         11    1    3    3    0    0  0.29414341733E+00  0.17559857055E+02  0.16590549305E+02  0.24159499719E+02  0.51100000000E-03 0.  1.
        -11    1    3    3    0    0 -0.15531963783E+01  0.20285270132E+02  0.33190327714E+01  0.20613601872E+02  0.51100000000E-03 0. -1.
         12    1    3    3    0    0 -0.64399934366E+01 -0.21064471070E+02 -0.16776944476E+02  0.27688469132E+02  0.00000000000E+00 0. -1.
</event>
<event>
 7    1  0.2153242E-013  0.7246151E+02  0.7816164E-02  0.1226708E+00
        -11   -1    0    0    0    0  0.00000000000E+00  0.00000000000E+00  0.45593999997E+02  0.45594000000E+02  0.51100000000E-03 0. -1.
         11   -1    0    0    0    0 -0.00000000000E+00 -0.00000000000E+00 -0.45593999997E+02  0.45594000000E+02  0.51100000000E-03 0.  1.
    9900012    2    1    2    0    0  0.83569432574E+01  0.14699079214E+02 -0.80486106076E+01  0.72461506387E+02  0.69999916749E+02 0.  0.
         12    1    1    2    0    0 -0.83569432574E+01 -0.14699079214E+02  0.80486106076E+01  0.18726493613E+02  0.00000000000E+00 0. -1.
         11    1    3    3    0    0  0.31808022539E+02  0.21170525510E+02  0.34781007150E+00  0.38210763148E+02  0.51100000000E-03 0. -1.
        -11    1    3    3    0    0 -0.14242353583E+01  0.29666560281E+01  0.56026730111E+01  0.64976487651E+01  0.51100000000E-03 0.  1.
        -12    1    3    3    0    0 -0.22026843923E+02 -0.94381023250E+01 -0.13999093690E+02  0.27753094474E+02  0.00000000000E+00 0.  1.
</event>
<event>
 7    1  0.2153242E-013  0.7246158E+02  0.7816164E-02  0.1226708E+00
        -11   -1    0    0    0    0  0.00000000000E+00  0.00000000000E+00  0.45593999997E+02  0.45594000000E+02  0.51100000000E-03 0.  1.
         11   -1    0    0    0    0 -0.00000000000E+00 -0.00000000000E+00 -0.45593999997E+02  0.45594000000E+02  0.51100000000E-03 0. -1.
    9900012    2    1    2    0    0 -0.32112273367E+01  0.16418874002E+02  0.84135317701E+01  0.72461576920E+02  0.70000008631E+02 0.  0.
         12    1    1    2    0    0  0.32112273367E+01 -0.16418874002E+02 -0.84135317701E+01  0.18726423080E+02  0.00000000000E+00 0. -1.
         11    1    3    3    0    0 -0.57214973964E+01 -0.10145997982E+02 -0.22736766318E+02  0.25546767905E+02  0.51100000000E-03 0. -1.
        -11    1    3    3    0    0 -0.26527063576E+00 -0.30586808519E+01  0.98650401872E+01  0.10331743087E+02  0.51100000000E-03 0.  1.
        -12    1    3    3    0    0  0.27755406955E+01  0.29623552837E+02  0.21285257901E+02  0.36583065928E+02  0.00000000000E+00 0.  1.
</event>
<event>
 7    1  0.2153242E-013  0.7246158E+02  0.7816164E-02  0.1226708E+00
        -11   -1    0    0    0    0  0.00000000000E+00  0.00000000000E+00  0.45593999997E+02  0.45594000000E+02  0.51100000000E-03 0.  1.
         11   -1    0    0    0    0 -0.00000000000E+00 -0.00000000000E+00 -0.45593999997E+02  0.45594000000E+02  0.51100000000E-03 0. -1.
    9900012    2    1    2    0    0 -0.18038363851E+01  0.17229595098E+02  0.71109887293E+01  0.72461576592E+02  0.70000008204E+02 0.  0.
         12    1    1    2    0    0  0.18038363851E+01 -0.17229595098E+02 -0.71109887293E+01  0.18726423408E+02  0.00000000000E+00 0. -1.
         11    1    3    3    0    0 -0.12639915466E+02  0.31817352413E+01  0.21514433368E+01  0.13210587073E+02  0.51100000000E-03 0. -1.
        -11    1    3    3    0    0 -0.23022407541E+02  0.20191497617E+01  0.18133997614E+01  0.23181816876E+02  0.51100000000E-03 0.  1.
         12    1    3    3    0    0  0.33858486621E+02  0.12028710095E+02  0.31461456311E+01  0.36069172643E+02  0.00000000000E+00 0. -1.
</event>
<event>
 7    1  0.2153242E-013  0.7246158E+02  0.7816164E-02  0.1226708E+00
        -11   -1    0    0    0    0  0.00000000000E+00  0.00000000000E+00  0.45593999997E+02  0.45594000000E+02  0.51100000000E-03 0.  1.
         11   -1    0    0    0    0 -0.00000000000E+00 -0.00000000000E+00 -0.45593999997E+02  0.45594000000E+02  0.51100000000E-03 0. -1.
    9900012    2    1    2    0    0  0.12533723120E+02  0.10433475230E+02  0.92047436016E+01  0.72461576813E+02  0.70000008491E+02 0.  0.
         12    1    1    2    0    0 -0.12533723120E+02 -0.10433475230E+02 -0.92047436016E+01  0.18726423187E+02  0.00000000000E+00 0. -1.
         11    1    3    3    0    0  0.15176049077E+02  0.27501790524E+02  0.23580343727E+02  0.39277137856E+02  0.51100000000E-03 0. -1.
        -11    1    3    3    0    0  0.93067108020E+00  0.41222205643E+01  0.32980964621E+01  0.53606241777E+01  0.51100000000E-03 0.  1.
         12    1    3    3    0    0 -0.35729970374E+01 -0.21190535858E+02 -0.17673696588E+02  0.27823814779E+02  0.00000000000E+00 0. -1.
</event>
<event>
 7    1  0.2153242E-013  0.7246161E+02  0.7816164E-02  0.1226708E+00
        -11   -1    0    0    0    0  0.00000000000E+00  0.00000000000E+00  0.45593999997E+02  0.45594000000E+02  0.51100000000E-03 0.  1.
         11   -1    0    0    0    0 -0.00000000000E+00 -0.00000000000E+00 -0.45593999997E+02  0.45594000000E+02  0.51100000000E-03 0. -1.
    9900012    2    1    2    0    0  0.63348513601E+01  0.43193819475E+01  0.17084801695E+02  0.72461605496E+02  0.70000045857E+02 0.  0.
         12    1    1    2    0    0 -0.63348513601E+01 -0.43193819475E+01 -0.17084801695E+02  0.18726394504E+02  0.00000000000E+00 0. -1.
         11    1    3    3    0    0 -0.15249529157E+02  0.15423368669E+02 -0.11221471270E+02  0.24420275558E+02  0.51100000000E-03 0. -1.
        -11    1    3    3    0    0 -0.72180939091E+01 -0.46666100706E+01  0.10512925198E+02  0.13579386058E+02  0.51100000000E-03 0.  1.
        -12    1    3    3    0    0  0.28802474426E+02 -0.64373766513E+01  0.17793347767E+02  0.34461943880E+02  0.00000000000E+00 0.  1.
</event>
<event>
 7    1  0.2153242E-013  0.7246095E+02  0.7816164E-02  0.1226710E+00
        -11   -1    0    0    0    0  0.00000000000E+00  0.00000000000E+00  0.45593999997E+02  0.45594000000E+02  0.51100000000E-03 0.  1.
         11   -1    0    0    0    0 -0.00000000000E+00 -0.00000000000E+00 -0.45593999997E+02  0.45594000000E+02  0.51100000000E-03 0. -1.
    9900012    2    1    2    0    0 -0.85188435617E+01  0.97810598081E+01  0.13507869244E+02  0.72460951164E+02  0.69999193463E+02 0.  0.
         12    1    1    2    0    0  0.85188435617E+01 -0.97810598081E+01 -0.13507869244E+02  0.18727048836E+02  0.00000000000E+00 0. -1.
         11    1    3    3    0    0 -0.43101311491E+01  0.25534137775E+01  0.13952820185E+01  0.52003811989E+01  0.51100000000E-03 0. -1.
        -11    1    3    3    0    0  0.30891356650E+01  0.20485255421E+02 -0.21831006482E+02  0.30096200642E+02  0.51100000000E-03 0.  1.
         12    1    3    3    0    0 -0.72978480777E+01 -0.13257609390E+02  0.33943593708E+02  0.37164369322E+02  0.00000000000E+00 0. -1.
</event>
<event>
 7    1  0.2153242E-013  0.7246159E+02  0.7816164E-02  0.1226708E+00
        -11   -1    0    0    0    0  0.00000000000E+00  0.00000000000E+00  0.45593999997E+02  0.45594000000E+02  0.51100000000E-03 0.  1.
         11   -1    0    0    0    0 -0.00000000000E+00 -0.00000000000E+00 -0.45593999997E+02  0.45594000000E+02  0.51100000000E-03 0. -1.
    9900012    2    1    2    0    0  0.18342116791E+02 -0.37550393008E+01 -0.38038126018E+00  0.72461594621E+02  0.70000031689E+02 0.  0.
         12    1    1    2    0    0 -0.18342116791E+02  0.37550393008E+01  0.38038126018E+00  0.18726405379E+02  0.00000000000E+00 0. -1.
         11    1    3    3    0    0  0.11771970675E+02 -0.38097207415E+01  0.13265814871E+02  0.18140427508E+02  0.51100000000E-03 0. -1.
        -11    1    3    3    0    0 -0.76912495348E+01 -0.16625028569E+01  0.17957661808E+02  0.19606041238E+02  0.51100000000E-03 0.  1.
         12    1    3    3    0    0  0.14261395651E+02  0.17171842976E+01 -0.31603857940E+02  0.34715125875E+02  0.00000000000E+00 0. -1.
</event>
<event>
 7    1  0.2153242E-013  0.7246155E+02  0.7816164E-02  0.1226708E+00
        -11   -1    0    0    0    0  0.00000000000E+00  0.00000000000E+00  0.45593999997E+02  0.45594000000E+02  0.51100000000E-03 0. -1.
         11   -1    0    0    0    0 -0.00000000000E+00 -0.00000000000E+00 -0.45593999997E+02  0.45594000000E+02  0.51100000000E-03 0.  1.
    9900012    2    1    2    0    0 -0.89947192044E+01 -0.14210235640E+02  0.82367591235E+01  0.72461548885E+02  0.69999972110E+02 0.  0.
         12    1    1    2    0    0  0.89947192044E+01  0.14210235640E+02 -0.82367591235E+01  0.18726451115E+02  0.00000000000E+00 0. -1.
         11    1    3    3    0    0 -0.23341154985E+02  0.15762259330E+02 -0.19111364604E+00  0.28165490585E+02  0.51100000000E-03 0. -1.
        -11    1    3    3    0    0 -0.18200876062E+00 -0.54822104780E+01  0.14216695078E+02  0.15238181589E+02  0.51100000000E-03 0.  1.
        -12    1    3    3    0    0  0.14528444541E+02 -0.24490284492E+02 -0.57888223090E+01  0.29057876712E+02  0.00000000000E+00 0.  1.
</event>
<event>
 7    1  0.2153242E-013  0.7246158E+02  0.7816164E-02  0.1226708E+00
        -11   -1    0    0    0    0  0.00000000000E+00  0.00000000000E+00  0.45593999997E+02  0.45594000000E+02  0.51100000000E-03 0.  1.
         11   -1    0    0    0    0 -0.00000000000E+00 -0.00000000000E+00 -0.45593999997E+02  0.45594000000E+02  0.51100000000E-03 0. -1.
    9900012    2    1    2    0    0 -0.17131031362E+02 -0.37015114202E+01  0.65958482265E+01  0.72461584536E+02  0.70000018552E+02 0.  0.
         12    1    1    2    0    0  0.17131031362E+02  0.37015114202E+01 -0.65958482265E+01  0.18726415464E+02  0.00000000000E+00 0. -1.
         11    1    3    3    0    0  0.97071167444E+01 -0.94656680715E+01  0.14392047916E+02  0.19772658673E+02  0.51100000000E-03 0. -1.
        -11    1    3    3    0    0  0.40398699902E+01 -0.76002142122E+00  0.13831623484E+02  0.14429552680E+02  0.51100000000E-03 0.  1.
         12    1    3    3    0    0 -0.30878018096E+02  0.65241780725E+01 -0.21627823173E+02  0.38259373182E+02  0.00000000000E+00 0. -1.
</event>
<event>
 7    1  0.2153242E-013  0.7246152E+02  0.7816164E-02  0.1226708E+00
        -11   -1    0    0    0    0  0.00000000000E+00  0.00000000000E+00  0.45593999997E+02  0.45594000000E+02  0.51100000000E-03 0. -1.
         11   -1    0    0    0    0 -0.00000000000E+00 -0.00000000000E+00 -0.45593999997E+02  0.45594000000E+02  0.51100000000E-03 0.  1.
    9900012    2    1    2    0    0 -0.82832411968E+01  0.10793474818E+01 -0.16760190328E+02  0.72461519937E+02  0.69999934400E+02 0.  0.
         12    1    1    2    0    0  0.82832411968E+01 -0.10793474818E+01  0.16760190328E+02  0.18726480063E+02  0.00000000000E+00 0. -1.
         11    1    3    3    0    0  0.20720062239E+02  0.51704298949E+01  0.16309532110E+01  0.21417617354E+02  0.51100000000E-03 0. -1.
        -11    1    3    3    0    0  0.54995614622E+01  0.36896465988E+01  0.52924015967E+01  0.84775104378E+01  0.51100000000E-03 0.  1.
        -12    1    3    3    0    0 -0.34502864898E+02 -0.77807290119E+01 -0.23683545136E+02  0.42566392146E+02  0.00000000000E+00 0.  1.
</event>
<event>
 7    1  0.2153242E-013  0.7246162E+02  0.7816164E-02  0.1226708E+00
        -11   -1    0    0    0    0  0.00000000000E+00  0.00000000000E+00  0.45593999997E+02  0.45594000000E+02  0.51100000000E-03 0. -1.
         11   -1    0    0    0    0 -0.00000000000E+00 -0.00000000000E+00 -0.45593999997E+02  0.45594000000E+02  0.51100000000E-03 0.  1.
    9900012    2    1    2    0    0 -0.12249832502E+02  0.11421394698E+02 -0.83767941297E+01  0.72461619328E+02  0.70000063876E+02 0.  0.
         12    1    1    2    0    0  0.12249832502E+02 -0.11421394698E+02  0.83767941297E+01  0.18726380672E+02  0.00000000000E+00 0. -1.
         11    1    3    3    0    0 -0.88448952613E+01 -0.34834045813E+01  0.37192016751E+00  0.95133908010E+01  0.51100000000E-03 0. -1.
        -11    1    3    3    0    0 -0.27116268153E+02  0.23640923930E+01  0.11288471478E+02  0.29467109121E+02  0.51100000000E-03 0.  1.
         12    1    3    3    0    0  0.23711330913E+02  0.12540706887E+02 -0.20037185775E+02  0.33481119406E+02  0.00000000000E+00 0. -1.
</event>
<event>
 7    1  0.2153242E-013  0.7246153E+02  0.7816164E-02  0.1226708E+00
        -11   -1    0    0    0    0  0.00000000000E+00  0.00000000000E+00  0.45593999997E+02  0.45594000000E+02  0.51100000000E-03 0.  1.
         11   -1    0    0    0    0 -0.00000000000E+00 -0.00000000000E+00 -0.45593999997E+02  0.45594000000E+02  0.51100000000E-03 0. -1.
    9900012    2    1    2    0    0  0.15047719386E+02 -0.64842191393E+01  0.90665194938E+01  0.72461528568E+02  0.69999945643E+02 0.  0.
         12    1    1    2    0    0 -0.15047719386E+02  0.64842191393E+01 -0.90665194938E+01  0.18726471432E+02  0.00000000000E+00 0. -1.
         11    1    3    3    0    0  0.37743195250E+02 -0.10349026743E+01  0.21583463794E+01  0.37819019958E+02  0.51100000000E-03 0. -1.
        -11    1    3    3    0    0  0.12768380180E+01  0.58950921836E+01 -0.24618749918E+01  0.65148488788E+01  0.51100000000E-03 0.  1.
         12    1    3    3    0    0 -0.23972313882E+02 -0.11344408649E+02  0.93700481062E+01  0.28127659731E+02  0.00000000000E+00 0. -1.
</event>
<event>
 7    1  0.2153242E-013  0.7246157E+02  0.7816164E-02  0.1226708E+00
        -11   -1    0    0    0    0  0.00000000000E+00  0.00000000000E+00  0.45593999997E+02  0.45594000000E+02  0.51100000000E-03 0.  1.
         11   -1    0    0    0    0 -0.00000000000E+00 -0.00000000000E+00 -0.45593999997E+02  0.45594000000E+02  0.51100000000E-03 0. -1.
    9900012    2    1    2    0    0  0.12870032404E+01  0.10868615390E+02  0.15195259889E+02  0.72461572125E+02  0.70000002385E+02 0.  0.
         12    1    1    2    0    0 -0.12870032404E+01 -0.10868615390E+02 -0.15195259889E+02  0.18726427875E+02  0.00000000000E+00 0. -1.
         11    1    3    3    0    0 -0.30875283455E+02  0.10298416265E+02 -0.16529051111E+01  0.32589455374E+02  0.51100000000E-03 0. -1.
        -11    1    3    3    0    0  0.35622209795E+00  0.20201507088E+01 -0.20061449764E+01  0.28692370061E+01  0.51100000000E-03 0.  1.
        -12    1    3    3    0    0  0.31806064597E+02 -0.14499515836E+01  0.18854309977E+02  0.37002879746E+02  0.00000000000E+00 0.  1.
</event>
<event>
 7    1  0.2461933E-013  0.7246159E+02  0.7816164E-02  0.1226708E+00
        -11   -1    0    0    0    0  0.00000000000E+00  0.00000000000E+00  0.45593999997E+02  0.45594000000E+02  0.51100000000E-03 0.  1.
         11   -1    0    0    0    0 -0.00000000000E+00 -0.00000000000E+00 -0.45593999997E+02  0.45594000000E+02  0.51100000000E-03 0. -1.
    9900012    2    1    2    0    0 -0.80271448144E+01 -0.12678214951E+02  0.11202953798E+02  0.72461591855E+02  0.70000028086E+02 0.  0.
         12    1    1    2    0    0  0.80271448144E+01  0.12678214951E+02 -0.11202953798E+02  0.18726408145E+02  0.00000000000E+00 0. -1.
         11    1    3    3    0    0  0.34053638815E+01 -0.11889159438E+02 -0.67700504736E+00  0.12385755989E+02  0.51100000000E-03 0. -1.
        -11    1    3    3    0    0 -0.10820168350E+02 -0.85810330697E+01  0.33956118050E+02  0.36656897372E+02  0.51100000000E-03 0.  1.
         12    1    3    3    0    0 -0.61234034597E+00  0.77919775569E+01 -0.22076159205E+02  0.23418938494E+02  0.00000000000E+00 0. -1.
</event>
<event>
 7    1  0.2153242E-013  0.7246155E+02  0.7816164E-02  0.1226708E+00
        -11   -1    0    0    0    0  0.00000000000E+00  0.00000000000E+00  0.45593999997E+02  0.45594000000E+02  0.51100000000E-03 0.  1.
         11   -1    0    0    0    0 -0.00000000000E+00 -0.00000000000E+00 -0.45593999997E+02  0.45594000000E+02  0.51100000000E-03 0. -1.
    9900012    2    1    2    0    0 -0.21791131594E-01  0.17157306966E+02 -0.75037571082E+01  0.72461547375E+02  0.69999970143E+02 0.  0.
         12    1    1    2    0    0  0.21791131594E-01 -0.17157306966E+02  0.75037571082E+01  0.18726452625E+02  0.00000000000E+00 0. -1.
         11    1    3    3    0    0 -0.19171963742E+02  0.30830138575E+02 -0.82474599036E+01  0.37230125348E+02  0.51100000000E-03 0. -1.
        -11    1    3    3    0    0  0.13389621763E+02  0.26921331414E+01 -0.79740832415E+01  0.15815042068E+02  0.51100000000E-03 0.  1.
        -12    1    3    3    0    0  0.57605508471E+01 -0.16364964750E+02  0.87177860369E+01  0.19416379959E+02  0.00000000000E+00 0.  1.
</event>
<event>
 7    1  0.2153242E-013  0.7246133E+02  0.7816164E-02  0.1226709E+00
        -11   -1    0    0    0    0  0.00000000000E+00  0.00000000000E+00  0.45593999997E+02  0.45594000000E+02  0.51100000000E-03 0.  1.
         11   -1    0    0    0    0 -0.00000000000E+00 -0.00000000000E+00 -0.45593999997E+02  0.45594000000E+02  0.51100000000E-03 0. -1.
    9900012    2    1    2    0    0 -0.43634530116E+01 -0.11972736835E+02  0.13722312339E+02  0.72461334375E+02  0.69999692671E+02 0.  0.
         12    1    1    2    0    0  0.43634530116E+01  0.11972736835E+02 -0.13722312339E+02  0.18726665625E+02  0.00000000000E+00 0. -1.
         11    1    3    3    0    0 -0.60196656666E+00  0.21361270206E+01  0.81895488518E+01  0.84849344754E+01  0.51100000000E-03 0. -1.
        -11    1    3    3    0    0 -0.29678539841E+02 -0.21256302826E+02 -0.11218019720E+00  0.36505598496E+02  0.51100000000E-03 0.  1.
         12    1    3    3    0    0  0.25917053396E+02  0.71474389706E+01  0.56449436844E+01  0.27470801403E+02  0.00000000000E+00 0. -1.
</event>
<event>
 7    1  0.2153242E-013  0.7246160E+02  0.7816164E-02  0.1226708E+00
        -11   -1    0    0    0    0  0.00000000000E+00  0.00000000000E+00  0.45593999997E+02  0.45594000000E+02  0.51100000000E-03 0.  1.
         11   -1    0    0    0    0 -0.00000000000E+00 -0.00000000000E+00 -0.45593999997E+02  0.45594000000E+02  0.51100000000E-03 0. -1.
    9900012    2    1    2    0    0 -0.10926416464E+02  0.15145966271E+02 -0.13752477595E+01  0.72461596784E+02  0.70000034508E+02 0.  0.
         12    1    1    2    0    0  0.10926416464E+02 -0.15145966271E+02  0.13752477595E+01  0.18726403216E+02  0.00000000000E+00 0. -1.
         11    1    3    3    0    0 -0.12423335911E+02  0.11437703922E+02 -0.79868559525E+01  0.18680209164E+02  0.51100000000E-03 0. -1.
        -11    1    3    3    0    0 -0.20886333569E+02 -0.13141857856E+02  0.73715583319E+01  0.25754363327E+02  0.51100000000E-03 0.  1.
         12    1    3    3    0    0  0.22383253016E+02  0.16850120205E+02 -0.75995013892E+00  0.28027024293E+02  0.00000000000E+00 0. -1.
</event>
<event>
 7    1  0.2153242E-013  0.7246161E+02  0.7816164E-02  0.1226708E+00
        -11   -1    0    0    0    0  0.00000000000E+00  0.00000000000E+00  0.45593999997E+02  0.45594000000E+02  0.51100000000E-03 0. -1.
         11   -1    0    0    0    0 -0.00000000000E+00 -0.00000000000E+00 -0.45593999997E+02  0.45594000000E+02  0.51100000000E-03 0.  1.
    9900012    2    1    2    0    0  0.36725242147E+01 -0.15003802207E+02 -0.10586603654E+02  0.72461609752E+02  0.70000051401E+02 0.  0.
         12    1    1    2    0    0 -0.36725242147E+01  0.15003802207E+02  0.10586603654E+02  0.18726390248E+02  0.00000000000E+00 0. -1.
         11    1    3    3    0    0  0.20138193296E+02  0.14013052323E+02  0.14615520533E+02  0.28557414192E+02  0.51100000000E-03 0. -1.
        -11    1    3    3    0    0 -0.60309534703E+01 -0.40331058641E+01 -0.11402597664E+02  0.13515086992E+02  0.51100000000E-03 0.  1.
        -12    1    3    3    0    0 -0.10434715611E+02 -0.24983748666E+02 -0.13799526523E+02  0.30389108568E+02  0.00000000000E+00 0.  1.
</event>
<event>
 7    1  0.2153242E-013  0.7246163E+02  0.7816164E-02  0.1226708E+00
        -11   -1    0    0    0    0  0.00000000000E+00  0.00000000000E+00  0.45593999997E+02  0.45594000000E+02  0.51100000000E-03 0. -1.
         11   -1    0    0    0    0 -0.00000000000E+00 -0.00000000000E+00 -0.45593999997E+02  0.45594000000E+02  0.51100000000E-03 0.  1.
    9900012    2    1    2    0    0  0.17677972795E+02  0.19651781712E+01 -0.58569773416E+01  0.72461632734E+02  0.70000081339E+02 0.  0.
         12    1    1    2    0    0 -0.17677972795E+02 -0.19651781712E+01  0.58569773416E+01  0.18726367266E+02  0.00000000000E+00 0. -1.
         11    1    3    3    0    0  0.17043074741E+02  0.15760938045E+02 -0.80100379330E+01  0.24556756150E+02  0.51100000000E-03 0. -1.
        -11    1    3    3    0    0  0.12757211334E+02 -0.18807884227E+02 -0.14308911631E+02  0.26855686594E+02  0.51100000000E-03 0.  1.
         12    1    3    3    0    0 -0.12122313279E+02  0.50121243540E+01  0.16461972222E+02  0.21049189990E+02  0.00000000000E+00 0. -1.
</event>
<event>
 7    1  0.2153242E-013  0.7246157E+02  0.7816164E-02  0.1226708E+00
        -11   -1    0    0    0    0  0.00000000000E+00  0.00000000000E+00  0.45593999997E+02  0.45594000000E+02  0.51100000000E-03 0. -1.
         11   -1    0    0    0    0 -0.00000000000E+00 -0.00000000000E+00 -0.45593999997E+02  0.45594000000E+02  0.51100000000E-03 0.  1.
    9900012    2    1    2    0    0  0.15243929819E+02  0.56668194943E+01 -0.92838070219E+01  0.72461566482E+02  0.69999995033E+02 0.  0.
         12    1    1    2    0    0 -0.15243929819E+02 -0.56668194943E+01  0.92838070219E+01  0.18726433518E+02  0.00000000000E+00 0. -1.
         11    1    3    3    0    0  0.80804831838E+01  0.23307176535E+02 -0.14336799280E+02  0.28531780533E+02  0.51100000000E-03 0. -1.
        -11    1    3    3    0    0  0.20214475922E+02 -0.80519230793E+01 -0.79448285670E+01  0.23164170680E+02  0.51100000000E-03 0.  1.
         12    1    3    3    0    0 -0.13051029287E+02 -0.95884339611E+01  0.12997820825E+02  0.20765615269E+02  0.00000000000E+00 0. -1.
</event>
<event>
 7    1  0.2153242E-013  0.7246154E+02  0.7816164E-02  0.1226708E+00
        -11   -1    0    0    0    0  0.00000000000E+00  0.00000000000E+00  0.45593999997E+02  0.45594000000E+02  0.51100000000E-03 0.  1.
         11   -1    0    0    0    0 -0.00000000000E+00 -0.00000000000E+00 -0.45593999997E+02  0.45594000000E+02  0.51100000000E-03 0. -1.
    9900012    2    1    2    0    0  0.51659400959E+01 -0.18653455489E+01  0.17902902301E+02  0.72461538457E+02  0.69999958527E+02 0.  0.
         12    1    1    2    0    0 -0.51659400959E+01  0.18653455489E+01 -0.17902902301E+02  0.18726461543E+02  0.00000000000E+00 0. -1.
         11    1    3    3    0    0 -0.12919013679E+02  0.13350276731E+02 -0.14714542907E+02  0.23699126069E+02  0.51100000000E-03 0. -1.
        -11    1    3    3    0    0  0.91344152291E+01 -0.13289715084E+01 -0.28293937048E+01  0.96544899319E+01  0.51100000000E-03 0.  1.
        -12    1    3    3    0    0  0.89505385460E+01 -0.13886650771E+02  0.35446838913E+02  0.39107922456E+02  0.00000000000E+00 0.  1.
</event>
<event>
 7    1  0.2153242E-013  0.7246158E+02  0.7816164E-02  0.1226708E+00
        -11   -1    0    0    0    0  0.00000000000E+00  0.00000000000E+00  0.45593999997E+02  0.45594000000E+02  0.51100000000E-03 0.  1.
         11   -1    0    0    0    0 -0.00000000000E+00 -0.00000000000E+00 -0.45593999997E+02  0.45594000000E+02  0.51100000000E-03 0. -1.
    9900012    2    1    2    0    0 -0.15777773670E+02  0.49591018067E+01  0.87833985403E+01  0.72461576887E+02  0.70000008588E+02 0.  0.
         12    1    1    2    0    0  0.15777773670E+02 -0.49591018067E+01 -0.87833985403E+01  0.18726423113E+02  0.00000000000E+00 0. -1.
         11    1    3    3    0    0  0.90774642337E+00  0.36522602711E+01 -0.26375438192E+02  0.26642573988E+02  0.51100000000E-03 0. -1.
        -11    1    3    3    0    0  0.30185654691E+01 -0.53380548487E+01  0.17482673029E+02  0.18527018744E+02  0.51100000000E-03 0.  1.
        -12    1    3    3    0    0 -0.19704085562E+02  0.66448963842E+01  0.17676163703E+02  0.27291984154E+02  0.00000000000E+00 0.  1.
</event>
<event>
 7    1  0.2153242E-013  0.7246157E+02  0.7816164E-02  0.1226708E+00
        -11   -1    0    0    0    0  0.00000000000E+00  0.00000000000E+00  0.45593999997E+02  0.45594000000E+02  0.51100000000E-03 0.  1.
         11   -1    0    0    0    0 -0.00000000000E+00 -0.00000000000E+00 -0.45593999997E+02  0.45594000000E+02  0.51100000000E-03 0. -1.
    9900012    2    1    2    0    0  0.11695516770E+02  0.14243989845E+02 -0.33170271400E+01  0.72461574066E+02  0.70000004913E+02 0.  0.
         12    1    1    2    0    0 -0.11695516770E+02 -0.14243989845E+02  0.33170271400E+01  0.18726425934E+02  0.00000000000E+00 0. -1.
         11    1    3    3    0    0  0.77271102976E+01  0.19365255411E+02 -0.42018876756E+01  0.21269161032E+02  0.51100000000E-03 0. -1.
        -11    1    3    3    0    0  0.15410354342E+02  0.18772029766E+02 -0.27906472330E+01  0.24447000526E+02  0.51100000000E-03 0.  1.
        -12    1    3    3    0    0 -0.11441947870E+02 -0.23893295332E+02  0.36755077686E+01  0.26745412508E+02  0.00000000000E+00 0.  1.
</event>
<event>
 7    1  0.2153242E-013  0.7246158E+02  0.7816164E-02  0.1226708E+00
        -11   -1    0    0    0    0  0.00000000000E+00  0.00000000000E+00  0.45593999997E+02  0.45594000000E+02  0.51100000000E-03 0. -1.
         11   -1    0    0    0    0 -0.00000000000E+00 -0.00000000000E+00 -0.45593999997E+02  0.45594000000E+02  0.51100000000E-03 0.  1.
    9900012    2    1    2    0    0 -0.76619138995E-01 -0.37422584514E+01 -0.18348531798E+02  0.72461575142E+02  0.70000006315E+02 0.  0.
         12    1    1    2    0    0  0.76619138995E-01  0.37422584514E+01  0.18348531798E+02  0.18726424858E+02  0.00000000000E+00 0. -1.
         11    1    3    3    0    0  0.17133691960E+01  0.17922209305E+02  0.83399139538E+01  0.19841758626E+02  0.51100000000E-03 0. -1.
        -11    1    3    3    0    0  0.48624497666E+01 -0.45722778196E+01 -0.32656890136E+02  0.33331990877E+02  0.51100000000E-03 0.  1.
         12    1    3    3    0    0 -0.66524381016E+01 -0.17092189937E+02  0.59684443836E+01  0.19287825639E+02  0.00000000000E+00 0. -1.
</event>
<event>
 7    1  0.2153242E-013  0.7246155E+02  0.7816164E-02  0.1226708E+00
        -11   -1    0    0    0    0  0.00000000000E+00  0.00000000000E+00  0.45593999997E+02  0.45594000000E+02  0.51100000000E-03 0.  1.
         11   -1    0    0    0    0 -0.00000000000E+00 -0.00000000000E+00 -0.45593999997E+02  0.45594000000E+02  0.51100000000E-03 0. -1.
    9900012    2    1    2    0    0  0.12266359434E+02 -0.80074539227E+00  0.14127103438E+02  0.72461552967E+02  0.69999977428E+02 0.  0.
         12    1    1    2    0    0 -0.12266359434E+02  0.80074539227E+00 -0.14127103438E+02  0.18726447033E+02  0.00000000000E+00 0. -1.
         11    1    3    3    0    0  0.14406175663E+02  0.61283145843E+01  0.80451330589E+00  0.15676140430E+02  0.51100000000E-03 0. -1.
        -11    1    3    3    0    0  0.18904607888E+02 -0.13733151986E+01  0.25555780588E+02  0.31817732725E+02  0.51100000000E-03 0.  1.
         12    1    3    3    0    0 -0.21044424116E+02 -0.55557447779E+01 -0.12233190457E+02  0.24967679811E+02  0.00000000000E+00 0. -1.
</event>
<event>
 7    1  0.2153242E-013  0.7246161E+02  0.7816164E-02  0.1226708E+00
        -11   -1    0    0    0    0  0.00000000000E+00  0.00000000000E+00  0.45593999997E+02  0.45594000000E+02  0.51100000000E-03 0.  1.
         11   -1    0    0    0    0 -0.00000000000E+00 -0.00000000000E+00 -0.45593999997E+02  0.45594000000E+02  0.51100000000E-03 0. -1.
    9900012    2    1    2    0    0 -0.54031755449E+01  0.14583306580E+02 -0.10431232271E+02  0.72461608370E+02  0.70000049601E+02 0.  0.
         12    1    1    2    0    0  0.54031755449E+01 -0.14583306580E+02  0.10431232271E+02  0.18726391630E+02  0.00000000000E+00 0. -1.
         11    1    3    3    0    0  0.12186188128E+02  0.31670161671E+02 -0.29687227294E+01  0.34063406117E+02  0.51100000000E-03 0. -1.
        -11    1    3    3    0    0  0.73401987918E+01 -0.12031729991E+00 -0.29291275465E+01  0.79039726089E+01  0.51100000000E-03 0.  1.
         12    1    3    3    0    0 -0.24929562465E+02 -0.16966537791E+02 -0.45333819948E+01  0.30494229645E+02  0.00000000000E+00 0. -1.
</event>
<event>
 7    1  0.2153242E-013  0.7246230E+02  0.7816164E-02  0.1226706E+00
        -11   -1    0    0    0    0  0.00000000000E+00  0.00000000000E+00  0.45593999997E+02  0.45594000000E+02  0.51100000000E-03 0.  1.
         11   -1    0    0    0    0 -0.00000000000E+00 -0.00000000000E+00 -0.45593999997E+02  0.45594000000E+02  0.51100000000E-03 0. -1.
    9900012    2    1    2    0    0 -0.30408043834E+01  0.70566714666E+01  0.17076550610E+02  0.72462304172E+02  0.70000956006E+02 0.  0.
         12    1    1    2    0    0  0.30408043834E+01 -0.70566714666E+01 -0.17076550610E+02  0.18725695828E+02  0.00000000000E+00 0. -1.
         11    1    3    3    0    0  0.69460006499E+01 -0.13666843477E+02 -0.13493531852E+02  0.20423147107E+02  0.51100000000E-03 0. -1.
        -11    1    3    3    0    0  0.12462834360E+02  0.65711764395E+01  0.43809544525E+01  0.14754503118E+02  0.51100000000E-03 0.  1.
        -12    1    3    3    0    0 -0.22449639394E+02  0.14152338504E+02  0.26189128010E+02  0.37284653947E+02  0.00000000000E+00 0.  1.
</event>
<event>
 7    1  0.2153242E-013  0.7246159E+02  0.7816164E-02  0.1226708E+00
        -11   -1    0    0    0    0  0.00000000000E+00  0.00000000000E+00  0.45593999997E+02  0.45594000000E+02  0.51100000000E-03 0.  1.
         11   -1    0    0    0    0 -0.00000000000E+00 -0.00000000000E+00 -0.45593999997E+02  0.45594000000E+02  0.51100000000E-03 0. -1.
    9900012    2    1    2    0    0 -0.40417306950E+01 -0.13607301047E+02  0.12214105553E+02  0.72461585414E+02  0.70000019696E+02 0.  0.
         12    1    1    2    0    0  0.40417306950E+01  0.13607301047E+02 -0.12214105553E+02  0.18726414586E+02  0.00000000000E+00 0. -1.
         11    1    3    3    0    0  0.18033617541E+02  0.62047642154E+01 -0.78444564658E+01  0.20621492626E+02  0.51100000000E-03 0. -1.
        -11    1    3    3    0    0 -0.99741637540E+01 -0.15350103351E+02 -0.87399299660E+01  0.20285363974E+02  0.51100000000E-03 0.  1.
        -12    1    3    3    0    0 -0.12101184482E+02 -0.44619619108E+01  0.28798491985E+02  0.31554728815E+02  0.00000000000E+00 0.  1.
</event>
<event>
 7    1  0.2153242E-013  0.7246159E+02  0.7816164E-02  0.1226708E+00
        -11   -1    0    0    0    0  0.00000000000E+00  0.00000000000E+00  0.45593999997E+02  0.45594000000E+02  0.51100000000E-03 0. -1.
         11   -1    0    0    0    0 -0.00000000000E+00 -0.00000000000E+00 -0.45593999997E+02  0.45594000000E+02  0.51100000000E-03 0.  1.
    9900012    2    1    2    0    0  0.12706912575E+02 -0.10189032556E+02 -0.92410277140E+01  0.72461585372E+02  0.70000019641E+02 0.  0.
         12    1    1    2    0    0 -0.12706912575E+02  0.10189032556E+02  0.92410277140E+01  0.18726414628E+02  0.00000000000E+00 0. -1.
         11    1    3    3    0    0  0.67546885313E+01  0.14790253030E+02 -0.28345577022E+00  0.16262156969E+02  0.51100000000E-03 0. -1.
        -11    1    3    3    0    0  0.23212899980E+02 -0.10911991471E+01 -0.12714502121E+02  0.26489394208E+02  0.51100000000E-03 0.  1.
        -12    1    3    3    0    0 -0.17260675936E+02 -0.23888086439E+02  0.37569301769E+01  0.29710034195E+02  0.00000000000E+00 0.  1.
</event>
<event>
 7    1  0.2153242E-013  0.7246156E+02  0.7816164E-02  0.1226708E+00
        -11   -1    0    0    0    0  0.00000000000E+00  0.00000000000E+00  0.45593999997E+02  0.45594000000E+02  0.51100000000E-03 0. -1.
         11   -1    0    0    0    0 -0.00000000000E+00 -0.00000000000E+00 -0.45593999997E+02  0.45594000000E+02  0.51100000000E-03 0.  1.
    9900012    2    1    2    0    0 -0.47343819502E+01 -0.82992852350E+01 -0.16105501130E+02  0.72461556811E+02  0.69999982435E+02 0.  0.
         12    1    1    2    0    0  0.47343819502E+01  0.82992852350E+01  0.16105501130E+02  0.18726443189E+02  0.00000000000E+00 0. -1.
         11    1    3    3    0    0  0.10130083708E+02  0.14643799673E+02 -0.24387887643E+02  0.30196498618E+02  0.51100000000E-03 0. -1.
        -11    1    3    3    0    0  0.55552340075E+01  0.43048643350E+01  0.35939803210E+01  0.78936161947E+01  0.51100000000E-03 0.  1.
         12    1    3    3    0    0 -0.20419699666E+02 -0.27247949243E+02  0.46884061918E+01  0.34371441998E+02  0.00000000000E+00 0. -1.
</event>
<event>
 7    1  0.2153242E-013  0.7246145E+02  0.7816164E-02  0.1226708E+00
        -11   -1    0    0    0    0  0.00000000000E+00  0.00000000000E+00  0.45593999997E+02  0.45594000000E+02  0.51100000000E-03 0. -1.
         11   -1    0    0    0    0 -0.00000000000E+00 -0.00000000000E+00 -0.45593999997E+02  0.45594000000E+02  0.51100000000E-03 0.  1.
    9900012    2    1    2    0    0 -0.94437436075E+01  0.68919919848E+01 -0.14628728436E+02  0.72461453536E+02  0.69999847900E+02 0.  0.
         12    1    1    2    0    0  0.94437436075E+01 -0.68919919848E+01  0.14628728436E+02  0.18726546464E+02  0.00000000000E+00 0. -1.
         11    1    3    3    0    0  0.11942368030E+01 -0.28547848045E+01 -0.12065954649E+00  0.30968624136E+01  0.51100000000E-03 0. -1.
        -11    1    3    3    0    0  0.12841570922E+02  0.32549309040E+02 -0.94652569948E+01  0.36248511045E+02  0.51100000000E-03 0.  1.
         12    1    3    3    0    0 -0.23479551333E+02 -0.22802532251E+02 -0.50428118943E+01  0.33116080077E+02  0.00000000000E+00 0. -1.
</event>
<event>
 7    1  0.2153242E-013  0.7246105E+02  0.7816164E-02  0.1226709E+00
        -11   -1    0    0    0    0  0.00000000000E+00  0.00000000000E+00  0.45593999997E+02  0.45594000000E+02  0.51100000000E-03 0.  1.
         11   -1    0    0    0    0 -0.00000000000E+00 -0.00000000000E+00 -0.45593999997E+02  0.45594000000E+02  0.51100000000E-03 0. -1.
    9900012    2    1    2    0    0  0.60153828194E+01 -0.15436225215E+02  0.87313719106E+01  0.72461047904E+02  0.69999319487E+02 0.  0.
         12    1    1    2    0    0 -0.60153828194E+01  0.15436225215E+02 -0.87313719106E+01  0.18726952096E+02  0.00000000000E+00 0. -1.
         11    1    3    3    0    0 -0.93971227717E+00  0.17412470678E+01 -0.61483189045E+01  0.64588564102E+01  0.51100000000E-03 0. -1.
        -11    1    3    3    0    0 -0.75642355534E+01 -0.51322466067E+01 -0.22415175460E+02  0.24207389490E+02  0.51100000000E-03 0.  1.
         12    1    3    3    0    0  0.14519330650E+02 -0.12045225676E+02  0.37294866275E+02  0.41794802004E+02  0.00000000000E+00 0. -1.
</event>
<event>
 7    1  0.2153242E-013  0.7246159E+02  0.7816164E-02  0.1226708E+00
        -11   -1    0    0    0    0  0.00000000000E+00  0.00000000000E+00  0.45593999997E+02  0.45594000000E+02  0.51100000000E-03 0.  1.
         11   -1    0    0    0    0 -0.00000000000E+00 -0.00000000000E+00 -0.45593999997E+02  0.45594000000E+02  0.51100000000E-03 0. -1.
    9900012    2    1    2    0    0 -0.15306997046E+01 -0.16002371689E+02  0.96051766686E+01  0.72461591906E+02  0.70000028153E+02 0.  0.
         12    1    1    2    0    0  0.15306997046E+01  0.16002371689E+02 -0.96051766686E+01  0.18726408094E+02  0.00000000000E+00 0. -1.
         11    1    3    3    0    0 -0.95431658921E+01 -0.92594259521E+01 -0.17339741997E+02  0.21851215915E+02  0.51100000000E-03 0. -1.
        -11    1    3    3    0    0 -0.10444790823E+02 -0.18154409259E+02  0.10814167189E+02  0.23571644896E+02  0.51100000000E-03 0.  1.
        -12    1    3    3    0    0  0.18457257010E+02  0.11411463522E+02  0.16130751476E+02  0.27038731095E+02  0.00000000000E+00 0.  1.
</event>
<event>
 7    1  0.2153242E-013  0.7246152E+02  0.7816164E-02  0.1226708E+00
        -11   -1    0    0    0    0  0.00000000000E+00  0.00000000000E+00  0.45593999997E+02  0.45594000000E+02  0.51100000000E-03 0. -1.
         11   -1    0    0    0    0 -0.00000000000E+00 -0.00000000000E+00 -0.45593999997E+02  0.45594000000E+02  0.51100000000E-03 0.  1.
    9900012    2    1    2    0    0 -0.16277927612E+01  0.16023300884E+02 -0.95543332922E+01  0.72461517010E+02  0.69999930588E+02 0.  0.
         12    1    1    2    0    0  0.16277927612E+01 -0.16023300884E+02  0.95543332922E+01  0.18726482990E+02  0.00000000000E+00 0. -1.
         11    1    3    3    0    0  0.49569452779E+01 -0.24810082622E+01 -0.12211106880E+02  0.13410363156E+02  0.51100000000E-03 0. -1.
        -11    1    3    3    0    0  0.18876462071E+02  0.25702653425E+02 -0.28781980499E+01  0.32019232309E+02  0.51100000000E-03 0.  1.
         12    1    3    3    0    0 -0.25461200110E+02 -0.71983442785E+01  0.55349716375E+01  0.27031921545E+02  0.00000000000E+00 0. -1.
</event>
<event>
 7    1  0.2153242E-013  0.7246158E+02  0.7816164E-02  0.1226708E+00
        -11   -1    0    0    0    0  0.00000000000E+00  0.00000000000E+00  0.45593999997E+02  0.45594000000E+02  0.51100000000E-03 0.  1.
         11   -1    0    0    0    0 -0.00000000000E+00 -0.00000000000E+00 -0.45593999997E+02  0.45594000000E+02  0.51100000000E-03 0. -1.
    9900012    2    1    2    0    0  0.53137870240E+01 -0.17693326703E+02  0.30641015316E+01  0.72461578544E+02  0.70000010747E+02 0.  0.
         12    1    1    2    0    0 -0.53137870240E+01  0.17693326703E+02 -0.30641015316E+01  0.18726421456E+02  0.00000000000E+00 0. -1.
         11    1    3    3    0    0 -0.53154817232E+01  0.29443013867E+01  0.14234345622E+02  0.15477075052E+02  0.51100000000E-03 0. -1.
        -11    1    3    3    0    0 -0.99315102121E+01  0.15339386017E+01  0.14280205268E+02  0.17461733175E+02  0.51100000000E-03 0.  1.
         12    1    3    3    0    0  0.20560778959E+02 -0.22171566692E+02 -0.25450449358E+02  0.39522770317E+02  0.00000000000E+00 0. -1.
</event>
<event>
 7    1  0.2153242E-013  0.7246154E+02  0.7816164E-02  0.1226708E+00
        -11   -1    0    0    0    0  0.00000000000E+00  0.00000000000E+00  0.45593999997E+02  0.45594000000E+02  0.51100000000E-03 0.  1.
         11   -1    0    0    0    0 -0.00000000000E+00 -0.00000000000E+00 -0.45593999997E+02  0.45594000000E+02  0.51100000000E-03 0. -1.
    9900012    2    1    2    0    0  0.12365547130E+02  0.13933576674E+02 -0.19049673561E+01  0.72461542370E+02  0.69999963624E+02 0.  0.
         12    1    1    2    0    0 -0.12365547130E+02 -0.13933576674E+02  0.19049673561E+01  0.18726457630E+02  0.00000000000E+00 0. -1.
         11    1    3    3    0    0 -0.50567630713E+01  0.57193843916E+00  0.72393414513E+01  0.88490695130E+01  0.51100000000E-03 0. -1.
        -11    1    3    3    0    0  0.31462689106E+02  0.27746147613E+02 -0.11061363049E+01  0.41963949420E+02  0.51100000000E-03 0.  1.
         12    1    3    3    0    0 -0.14040378905E+02 -0.14384509378E+02 -0.80381725024E+01  0.21648523437E+02  0.00000000000E+00 0. -1.
</event>
<event>
 7    1  0.2153242E-013  0.7246158E+02  0.7816164E-02  0.1226708E+00
        -11   -1    0    0    0    0  0.00000000000E+00  0.00000000000E+00  0.45593999997E+02  0.45594000000E+02  0.51100000000E-03 0.  1.
         11   -1    0    0    0    0 -0.00000000000E+00 -0.00000000000E+00 -0.45593999997E+02  0.45594000000E+02  0.51100000000E-03 0. -1.
    9900012    2    1    2    0    0  0.10121361771E+02  0.15747557467E+02 -0.50139624491E+00  0.72461576730E+02  0.70000008384E+02 0.  0.
         12    1    1    2    0    0 -0.10121361771E+02 -0.15747557467E+02  0.50139624491E+00  0.18726423270E+02  0.00000000000E+00 0. -1.
         11    1    3    3    0    0  0.22655382872E+02 -0.19898313357E+01  0.35696410629E+01  0.23021036888E+02  0.51100000000E-03 0. -1.
        -11    1    3    3    0    0  0.13397168650E+02 -0.54309791744E+01 -0.21372017517E+01  0.14613257482E+02  0.51100000000E-03 0.  1.
         12    1    3    3    0    0 -0.25931189751E+02  0.23168367977E+02 -0.19338355561E+01  0.34827282360E+02  0.00000000000E+00 0. -1.
</event>
<event>
 7    1  0.2153242E-013  0.7246149E+02  0.7816164E-02  0.1226708E+00
        -11   -1    0    0    0    0  0.00000000000E+00  0.00000000000E+00  0.45593999997E+02  0.45594000000E+02  0.51100000000E-03 0. -1.
         11   -1    0    0    0    0 -0.00000000000E+00 -0.00000000000E+00 -0.45593999997E+02  0.45594000000E+02  0.51100000000E-03 0.  1.
    9900012    2    1    2    0    0 -0.46642253479E+01  0.13563743682E+02 -0.12039603696E+02  0.72461489435E+02  0.69999894666E+02 0.  0.
         12    1    1    2    0    0  0.46642253479E+01 -0.13563743682E+02  0.12039603696E+02  0.18726510565E+02  0.00000000000E+00 0. -1.
         11    1    3    3    0    0 -0.87366406653E+01 -0.20394607152E+02  0.73312113345E+00  0.22199242281E+02  0.51100000000E-03 0. -1.
        -11    1    3    3    0    0  0.25515919149E+01 -0.70307220970E+01 -0.73720703570E+00  0.75156602491E+01  0.51100000000E-03 0.  1.
        -12    1    3    3    0    0  0.15208234025E+01  0.40989072930E+02 -0.12035517794E+02  0.42746586906E+02  0.00000000000E+00 0.  1.
</event>
<event>
 7    1  0.2153242E-013  0.7246156E+02  0.7816164E-02  0.1226708E+00
        -11   -1    0    0    0    0  0.00000000000E+00  0.00000000000E+00  0.45593999997E+02  0.45594000000E+02  0.51100000000E-03 0.  1.
         11   -1    0    0    0    0 -0.00000000000E+00 -0.00000000000E+00 -0.45593999997E+02  0.45594000000E+02  0.51100000000E-03 0. -1.
    9900012    2    1    2    0    0  0.17832621969E+02 -0.56602594141E+01  0.79919681815E+00  0.72461557239E+02  0.69999982993E+02 0.  0.
         12    1    1    2    0    0 -0.17832621969E+02  0.56602594141E+01 -0.79919681815E+00  0.18726442761E+02  0.00000000000E+00 0. -1.
         11    1    3    3    0    0  0.41966065107E+01 -0.51220009552E+01  0.21443831497E+01  0.69602283975E+01  0.51100000000E-03 0. -1.
        -11    1    3    3    0    0  0.34902524907E+02 -0.15730320436E+02  0.49944346051E+01  0.38607947409E+02  0.51100000000E-03 0.  1.
         12    1    3    3    0    0 -0.21266509449E+02  0.15192061977E+02 -0.63396209366E+01  0.26893381432E+02  0.00000000000E+00 0. -1.
</event>
<event>
 7    1  0.2153242E-013  0.7246160E+02  0.7816164E-02  0.1226708E+00
        -11   -1    0    0    0    0  0.00000000000E+00  0.00000000000E+00  0.45593999997E+02  0.45594000000E+02  0.51100000000E-03 0.  1.
         11   -1    0    0    0    0 -0.00000000000E+00 -0.00000000000E+00 -0.45593999997E+02  0.45594000000E+02  0.51100000000E-03 0. -1.
    9900012    2    1    2    0    0  0.84077716416E+01  0.63316220226E+01  0.15488641648E+02  0.72461599344E+02  0.70000037843E+02 0.  0.
         12    1    1    2    0    0 -0.84077716416E+01 -0.63316220226E+01 -0.15488641648E+02  0.18726400656E+02  0.00000000000E+00 0. -1.
         11    1    3    3    0    0  0.96359932270E+01  0.11217299985E+02  0.14957559723E+02  0.21033515578E+02  0.51100000000E-03 0. -1.
        -11    1    3    3    0    0 -0.10926722605E+01 -0.23738942348E+02  0.14611551784E+02  0.27896751823E+02  0.51100000000E-03 0.  1.
         12    1    3    3    0    0 -0.13554932488E+00  0.18853264385E+02 -0.14080469859E+02  0.23531331944E+02  0.00000000000E+00 0. -1.
</event>
<event>
 7    1  0.2153242E-013  0.7246158E+02  0.7816164E-02  0.1226708E+00
        -11   -1    0    0    0    0  0.00000000000E+00  0.00000000000E+00  0.45593999997E+02  0.45594000000E+02  0.51100000000E-03 0.  1.
         11   -1    0    0    0    0 -0.00000000000E+00 -0.00000000000E+00 -0.45593999997E+02  0.45594000000E+02  0.51100000000E-03 0. -1.
    9900012    2    1    2    0    0 -0.13094108560E+02 -0.48394668129E+01  0.12482090227E+02  0.72461582979E+02  0.70000016524E+02 0.  0.
         12    1    1    2    0    0  0.13094108560E+02  0.48394668129E+01 -0.12482090227E+02  0.18726417021E+02  0.00000000000E+00 0. -1.
         11    1    3    3    0    0  0.69206680557E+01 -0.11265187836E+01 -0.23954667560E+01  0.74096526333E+01  0.51100000000E-03 0. -1.
        -11    1    3    3    0    0  0.16218731444E+02 -0.71415278580E+01  0.21706140086E+02  0.28021512941E+02  0.51100000000E-03 0.  1.
         12    1    3    3    0    0 -0.36233508060E+02  0.34285798286E+01 -0.68285831029E+01  0.37030417405E+02  0.00000000000E+00 0. -1.
</event>
<event>
 7    1  0.2153242E-013  0.7246156E+02  0.7816164E-02  0.1226708E+00
        -11   -1    0    0    0    0  0.00000000000E+00  0.00000000000E+00  0.45593999997E+02  0.45594000000E+02  0.51100000000E-03 0. -1.
         11   -1    0    0    0    0 -0.00000000000E+00 -0.00000000000E+00 -0.45593999997E+02  0.45594000000E+02  0.51100000000E-03 0.  1.
    9900012    2    1    2    0    0 -0.10647759048E+01  0.13541243614E+02 -0.12891108687E+02  0.72461555876E+02  0.69999981217E+02 0.  0.
         12    1    1    2    0    0  0.10647759048E+01 -0.13541243614E+02  0.12891108687E+02  0.18726444124E+02  0.00000000000E+00 0. -1.
         11    1    3    3    0    0  0.39564395580E+01 -0.31485826082E+01  0.29550310536E+01  0.58565514772E+01  0.51100000000E-03 0. -1.
        -11    1    3    3    0    0 -0.20646556166E+02  0.25202372034E+02  0.11009340200E+02  0.34389611942E+02  0.51100000000E-03 0.  1.
         12    1    3    3    0    0  0.15625340703E+02 -0.85125458110E+01 -0.26855479941E+02  0.32215392456E+02  0.00000000000E+00 0. -1.
</event>
<event>
 7    1  0.2153242E-013  0.7246153E+02  0.7816164E-02  0.1226708E+00
        -11   -1    0    0    0    0  0.00000000000E+00  0.00000000000E+00  0.45593999997E+02  0.45594000000E+02  0.51100000000E-03 0.  1.
         11   -1    0    0    0    0 -0.00000000000E+00 -0.00000000000E+00 -0.45593999997E+02  0.45594000000E+02  0.51100000000E-03 0. -1.
    9900012    2    1    2    0    0 -0.14850402250E+02  0.84689174102E+01  0.76435377692E+01  0.72461529998E+02  0.69999947507E+02 0.  0.
         12    1    1    2    0    0  0.14850402250E+02 -0.84689174102E+01 -0.76435377692E+01  0.18726470002E+02  0.00000000000E+00 0. -1.
         11    1    3    3    0    0 -0.27895448596E+02  0.69964842323E+01  0.14550305354E+02  0.32230703221E+02  0.51100000000E-03 0. -1.
        -11    1    3    3    0    0  0.50117407828E+01  0.12531302636E+02  0.11204053236E+02  0.17540863737E+02  0.51100000000E-03 0.  1.
         12    1    3    3    0    0  0.80333055629E+01 -0.11058869459E+02 -0.18110820821E+02  0.22689963041E+02  0.00000000000E+00 0. -1.
</event>
<event>
 7    1  0.2153242E-013  0.7246167E+02  0.7816164E-02  0.1226708E+00
        -11   -1    0    0    0    0  0.00000000000E+00  0.00000000000E+00  0.45593999997E+02  0.45594000000E+02  0.51100000000E-03 0.  1.
         11   -1    0    0    0    0 -0.00000000000E+00 -0.00000000000E+00 -0.45593999997E+02  0.45594000000E+02  0.51100000000E-03 0. -1.
    9900012    2    1    2    0    0 -0.81210475091E+01 -0.16851757002E+02 -0.86156998904E+00  0.72461670153E+02  0.70000130084E+02 0.  0.
         12    1    1    2    0    0  0.81210475091E+01  0.16851757002E+02  0.86156998904E+00  0.18726329847E+02  0.00000000000E+00 0. -1.
         11    1    3    3    0    0 -0.24930651040E+02 -0.12731118667E+02  0.13089312019E+02  0.30902246410E+02  0.51100000000E-03 0. -1.
        -11    1    3    3    0    0  0.22017579143E+01  0.11373058114E+02  0.54047077818E+01  0.12782998680E+02  0.51100000000E-03 0.  1.
         12    1    3    3    0    0  0.14607845617E+02 -0.15493696450E+02 -0.19355589790E+02  0.28776425062E+02  0.00000000000E+00 0. -1.
</event>
<event>
 7    1  0.2153242E-013  0.7246155E+02  0.7816164E-02  0.1226708E+00
        -11   -1    0    0    0    0  0.00000000000E+00  0.00000000000E+00  0.45593999997E+02  0.45594000000E+02  0.51100000000E-03 0.  1.
         11   -1    0    0    0    0 -0.00000000000E+00 -0.00000000000E+00 -0.45593999997E+02  0.45594000000E+02  0.51100000000E-03 0. -1.
    9900012    2    1    2    0    0  0.16649539807E+02 -0.25840941240E+01  0.81728425397E+01  0.72461546160E+02  0.69999968561E+02 0.  0.
         12    1    1    2    0    0 -0.16649539807E+02  0.25840941240E+01 -0.81728425397E+01  0.18726453840E+02  0.00000000000E+00 0. -1.
         11    1    3    3    0    0  0.94860787963E+01 -0.79481862243E+01  0.87039865554E+00  0.12406326985E+02  0.51100000000E-03 0. -1.
        -11    1    3    3    0    0  0.40963671032E+00 -0.26329345563E+02  0.83753905038E+01  0.27632397767E+02  0.51100000000E-03 0.  1.
         12    1    3    3    0    0  0.67538243008E+01  0.31693437663E+02 -0.10729466196E+01  0.32422821408E+02  0.00000000000E+00 0. -1.
</event>
<event>
 7    1  0.2153242E-013  0.7246142E+02  0.7816164E-02  0.1226708E+00
        -11   -1    0    0    0    0  0.00000000000E+00  0.00000000000E+00  0.45593999997E+02  0.45594000000E+02  0.51100000000E-03 0. -1.
         11   -1    0    0    0    0 -0.00000000000E+00 -0.00000000000E+00 -0.45593999997E+02  0.45594000000E+02  0.51100000000E-03 0.  1.
    9900012    2    1    2    0    0 -0.11705586484E+02 -0.80317222675E+01 -0.12212928015E+02  0.72461416536E+02  0.69999799701E+02 0.  0.
         12    1    1    2    0    0  0.11705586484E+02  0.80317222675E+01  0.12212928015E+02  0.18726583464E+02  0.00000000000E+00 0. -1.
         11    1    3    3    0    0 -0.24204168280E+01  0.10948584664E+01  0.19450139088E+02  0.19630716836E+02  0.51100000000E-03 0. -1.
        -11    1    3    3    0    0 -0.25730294765E+01 -0.33182754924E+01  0.96768399256E+01  0.10548585883E+02  0.51100000000E-03 0.  1.
        -12    1    3    3    0    0 -0.67121401800E+01 -0.58083052415E+01 -0.41339907029E+02  0.42282113816E+02  0.00000000000E+00 0.  1.
</event>
<event>
 7    1  0.2153242E-013  0.7246160E+02  0.7816164E-02  0.1226708E+00
        -11   -1    0    0    0    0  0.00000000000E+00  0.00000000000E+00  0.45593999997E+02  0.45594000000E+02  0.51100000000E-03 0.  1.
         11   -1    0    0    0    0 -0.00000000000E+00 -0.00000000000E+00 -0.45593999997E+02  0.45594000000E+02  0.51100000000E-03 0. -1.
    9900012    2    1    2    0    0  0.13139558633E+02 -0.11904140214E+02  0.60267311492E+01  0.72461600355E+02  0.70000039160E+02 0.  0.
         12    1    1    2    0    0 -0.13139558633E+02  0.11904140214E+02 -0.60267311492E+01  0.18726399645E+02  0.00000000000E+00 0. -1.
         11    1    3    3    0    0 -0.36736423689E+01 -0.56273117878E+01  0.11232181917E+02  0.13089086946E+02  0.51100000000E-03 0. -1.
        -11    1    3    3    0    0  0.25939581882E+02 -0.11301605307E+02  0.18275876298E+02  0.33683762341E+02  0.51100000000E-03 0.  1.
         12    1    3    3    0    0 -0.91263808809E+01  0.50247768800E+01 -0.23481327066E+02  0.25688751068E+02  0.00000000000E+00 0. -1.
</event>
<event>
 7    1  0.2153242E-013  0.7246138E+02  0.7816164E-02  0.1226709E+00
        -11   -1    0    0    0    0  0.00000000000E+00  0.00000000000E+00  0.45593999997E+02  0.45594000000E+02  0.51100000000E-03 0. -1.
         11   -1    0    0    0    0 -0.00000000000E+00 -0.00000000000E+00 -0.45593999997E+02  0.45594000000E+02  0.51100000000E-03 0.  1.
    9900012    2    1    2    0    0 -0.18564847802E+02 -0.52371295870E+00  0.23997042107E+01  0.72461376453E+02  0.69999747485E+02 0.  0.
         12    1    1    2    0    0  0.18564847802E+02  0.52371295870E+00 -0.23997042107E+01  0.18726623547E+02  0.00000000000E+00 0. -1.
         11    1    3    3    0    0 -0.23000148010E+02  0.10251392040E+02  0.18965472097E+02  0.31524387058E+02  0.51100000000E-03 0. -1.
        -11    1    3    3    0    0 -0.11118632017E+02 -0.16135501319E+02 -0.34495026891E+01  0.19896669315E+02  0.51100000000E-03 0.  1.
         12    1    3    3    0    0  0.15553932225E+02  0.53603963203E+01 -0.13116265197E+02  0.21040320080E+02  0.00000000000E+00 0. -1.
</event>
<event>
 7    1  0.2153242E-013  0.7246157E+02  0.7816164E-02  0.1226708E+00
        -11   -1    0    0    0    0  0.00000000000E+00  0.00000000000E+00  0.45593999997E+02  0.45594000000E+02  0.51100000000E-03 0.  1.
         11   -1    0    0    0    0 -0.00000000000E+00 -0.00000000000E+00 -0.45593999997E+02  0.45594000000E+02  0.51100000000E-03 0. -1.
    9900012    2    1    2    0    0  0.91864917546E+01  0.10285201767E+01  0.16285868569E+02  0.72461574832E+02  0.70000005911E+02 0.  0.
         12    1    1    2    0    0 -0.91864917546E+01 -0.10285201767E+01 -0.16285868569E+02  0.18726425168E+02  0.00000000000E+00 0. -1.
         11    1    3    3    0    0 -0.14547618481E+02 -0.19568713058E+02  0.52377237850E+01  0.24939957597E+02  0.51100000000E-03 0. -1.
        -11    1    3    3    0    0 -0.17360500970E+01  0.65052528328E+00 -0.91810758023E+01  0.93663870426E+01  0.51100000000E-03 0.  1.
        -12    1    3    3    0    0  0.25470160333E+02  0.19946707952E+02  0.20229220587E+02  0.38155230192E+02  0.00000000000E+00 0.  1.
</event>
<event>
 7    1  0.2153242E-013  0.7246155E+02  0.7816164E-02  0.1226708E+00
        -11   -1    0    0    0    0  0.00000000000E+00  0.00000000000E+00  0.45593999997E+02  0.45594000000E+02  0.51100000000E-03 0. -1.
         11   -1    0    0    0    0 -0.00000000000E+00 -0.00000000000E+00 -0.45593999997E+02  0.45594000000E+02  0.51100000000E-03 0.  1.
    9900012    2    1    2    0    0  0.11532352236E+02 -0.13699235167E+02 -0.54786648887E+01  0.72461549156E+02  0.69999972463E+02 0.  0.
         12    1    1    2    0    0 -0.11532352236E+02  0.13699235167E+02  0.54786648887E+01  0.18726450844E+02  0.00000000000E+00 0. -1.
         11    1    3    3    0    0  0.78204850362E+01  0.16674737659E+02  0.22601154479E+00  0.18418956096E+02  0.51100000000E-03 0. -1.
        -11    1    3    3    0    0  0.23549085372E+00  0.10273282378E+02  0.56091332859E+01  0.11707184257E+02  0.51100000000E-03 0.  1.
        -12    1    3    3    0    0  0.34763763457E+01 -0.40647255204E+02 -0.11313809719E+02  0.42335408802E+02  0.00000000000E+00 0.  1.
</event>
<event>
 7    1  0.2153242E-013  0.7246157E+02  0.7816164E-02  0.1226708E+00
        -11   -1    0    0    0    0  0.00000000000E+00  0.00000000000E+00  0.45593999997E+02  0.45594000000E+02  0.51100000000E-03 0.  1.
         11   -1    0    0    0    0 -0.00000000000E+00 -0.00000000000E+00 -0.45593999997E+02  0.45594000000E+02  0.51100000000E-03 0. -1.
    9900012    2    1    2    0    0 -0.13251306931E+02  0.12358319094E+02  0.47280111012E+01  0.72461567473E+02  0.69999996324E+02 0.  0.
         12    1    1    2    0    0  0.13251306931E+02 -0.12358319094E+02 -0.47280111012E+01  0.18726432527E+02  0.00000000000E+00 0. -1.
         11    1    3    3    0    0  0.13150920005E+02  0.21128121299E+02 -0.42586073684E+01  0.25248365166E+02  0.51100000000E-03 0. -1.
        -11    1    3    3    0    0  0.46499281721E+01 -0.12252737217E+01 -0.92463015179E+01  0.10421958536E+02  0.51100000000E-03 0.  1.
        -12    1    3    3    0    0 -0.31052155108E+02 -0.75445284829E+01  0.18232919987E+02  0.36791243770E+02  0.00000000000E+00 0.  1.
</event>
<event>
 7    1  0.2153242E-013  0.7246156E+02  0.7816164E-02  0.1226708E+00
        -11   -1    0    0    0    0  0.00000000000E+00  0.00000000000E+00  0.45593999997E+02  0.45594000000E+02  0.51100000000E-03 0. -1.
         11   -1    0    0    0    0 -0.00000000000E+00 -0.00000000000E+00 -0.45593999997E+02  0.45594000000E+02  0.51100000000E-03 0.  1.
    9900012    2    1    2    0    0 -0.19613791779E+01  0.60052538490E+01 -0.17628656109E+02  0.72461558846E+02  0.69999985087E+02 0.  0.
         12    1    1    2    0    0  0.19613791779E+01 -0.60052538490E+01  0.17628656109E+02  0.18726441154E+02  0.00000000000E+00 0. -1.
         11    1    3    3    0    0  0.18023869608E+02  0.53742688002E+01  0.15726295687E+00  0.18808704705E+02  0.51100000000E-03 0.  1.
        -11    1    3    3    0    0  0.13446771967E+02 -0.79952487112E+01 -0.89088074712E+01  0.18002958899E+02  0.51100000000E-03 0. -1.
        -12    1    3    3    0    0 -0.33432020753E+02  0.86262337600E+01 -0.88771115947E+01  0.35649895242E+02  0.00000000000E+00 0.  1.
</event>
<event>
 7    1  0.2153242E-013  0.7246159E+02  0.7816164E-02  0.1226708E+00
        -11   -1    0    0    0    0  0.00000000000E+00  0.00000000000E+00  0.45593999997E+02  0.45594000000E+02  0.51100000000E-03 0. -1.
         11   -1    0    0    0    0 -0.00000000000E+00 -0.00000000000E+00 -0.45593999997E+02  0.45594000000E+02  0.51100000000E-03 0.  1.
    9900012    2    1    2    0    0  0.74254039825E+01 -0.17115345009E+02 -0.16146045699E+01  0.72461585314E+02  0.70000019565E+02 0.  0.
         12    1    1    2    0    0 -0.74254039825E+01  0.17115345009E+02  0.16146045699E+01  0.18726414686E+02  0.00000000000E+00 0. -1.
         11    1    3    3    0    0 -0.85042548774E+01 -0.23670069890E+02  0.97844521673E+01  0.26987590928E+02  0.51100000000E-03 0.  1.
        -11    1    3    3    0    0  0.33601368964E+01 -0.16491841016E+02  0.59439169138E-01  0.16830771620E+02  0.51100000000E-03 0. -1.
         12    1    3    3    0    0  0.12569521963E+02  0.23046565896E+02 -0.11458495906E+02  0.28643222766E+02  0.00000000000E+00 0. -1.
</event>
<event>
 7    1  0.2153242E-013  0.7246156E+02  0.7816164E-02  0.1226708E+00
        -11   -1    0    0    0    0  0.00000000000E+00  0.00000000000E+00  0.45593999997E+02  0.45594000000E+02  0.51100000000E-03 0. -1.
         11   -1    0    0    0    0 -0.00000000000E+00 -0.00000000000E+00 -0.45593999997E+02  0.45594000000E+02  0.51100000000E-03 0.  1.
    9900012    2    1    2    0    0  0.42044111408E+01 -0.14087429967E+02 -0.11599428387E+02  0.72461561603E+02  0.69999988678E+02 0.  0.
         12    1    1    2    0    0 -0.42044111408E+01  0.14087429967E+02  0.11599428387E+02  0.18726438397E+02  0.00000000000E+00 0. -1.
         11    1    3    3    0    0  0.13145165417E+02 -0.20201257591E+02 -0.59901504172E+01  0.24834815973E+02  0.51100000000E-03 0. -1.
        -11    1    3    3    0    0  0.18283283637E+02  0.50312834729E+01 -0.73219862421E+01  0.20327413921E+02  0.51100000000E-03 0.  1.
        -12    1    3    3    0    0 -0.27224037913E+02  0.10825441513E+01  0.17127082719E+01  0.27299331709E+02  0.00000000000E+00 0.  1.
</event>
<event>
 7    1  0.2153242E-013  0.7246157E+02  0.7816164E-02  0.1226708E+00
        -11   -1    0    0    0    0  0.00000000000E+00  0.00000000000E+00  0.45593999997E+02  0.45594000000E+02  0.51100000000E-03 0.  1.
         11   -1    0    0    0    0 -0.00000000000E+00 -0.00000000000E+00 -0.45593999997E+02  0.45594000000E+02  0.51100000000E-03 0. -1.
    9900012    2    1    2    0    0  0.17380882808E+02  0.45818101101E+01  0.52527355312E+01  0.72461566767E+02  0.69999995405E+02 0.  0.
         12    1    1    2    0    0 -0.17380882808E+02 -0.45818101101E+01 -0.52527355312E+01  0.18726433233E+02  0.00000000000E+00 0. -1.
         11    1    3    3    0    0  0.20607102974E+02  0.54419380889E+00  0.30213969212E+02  0.36576396429E+02  0.51100000000E-03 0. -1.
        -11    1    3    3    0    0  0.60303493424E+01  0.48440224684E+01  0.14654867003E+01  0.78725674589E+01  0.51100000000E-03 0.  1.
         12    1    3    3    0    0 -0.92565695083E+01 -0.80640616714E+00 -0.26426720381E+02  0.28012602879E+02  0.00000000000E+00 0. -1.
</event>
<event>
 7    1  0.2153242E-013  0.7246157E+02  0.7816164E-02  0.1226708E+00
        -11   -1    0    0    0    0  0.00000000000E+00  0.00000000000E+00  0.45593999997E+02  0.45594000000E+02  0.51100000000E-03 0. -1.
         11   -1    0    0    0    0 -0.00000000000E+00 -0.00000000000E+00 -0.45593999997E+02  0.45594000000E+02  0.51100000000E-03 0.  1.
    9900012    2    1    2    0    0 -0.12931243809E+02  0.13539942901E+02 -0.36360758589E+00  0.72461565991E+02  0.69999994394E+02 0.  0.
         12    1    1    2    0    0  0.12931243809E+02 -0.13539942901E+02  0.36360758589E+00  0.18726434009E+02  0.00000000000E+00 0. -1.
         11    1    3    3    0    0  0.40868913909E+01 -0.88964308389E+01 -0.15652139729E+02  0.18461815763E+02  0.51100000000E-03 0. -1.
        -11    1    3    3    0    0 -0.21398901648E+02  0.92230109211E+01 -0.98231125740E+01  0.25287753223E+02  0.51100000000E-03 0.  1.
         12    1    3    3    0    0  0.43807664475E+01  0.13213362819E+02  0.25111644717E+02  0.28711997005E+02  0.00000000000E+00 0. -1.
</event>
<event>
 7    1  0.2153242E-013  0.7246159E+02  0.7816164E-02  0.1226708E+00
        -11   -1    0    0    0    0  0.00000000000E+00  0.00000000000E+00  0.45593999997E+02  0.45594000000E+02  0.51100000000E-03 0.  1.
         11   -1    0    0    0    0 -0.00000000000E+00 -0.00000000000E+00 -0.45593999997E+02  0.45594000000E+02  0.51100000000E-03 0. -1.
    9900012    2    1    2    0    0 -0.17528581582E+02 -0.65807579233E+01  0.34778800916E+00  0.72461588074E+02  0.70000023161E+02 0.  0.
         12    1    1    2    0    0  0.17528581582E+02  0.65807579233E+01 -0.34778800916E+00  0.18726411926E+02  0.00000000000E+00 0. -1.
         11    1    3    3    0    0 -0.50071099483E+01 -0.63017925900E+01 -0.23589066357E+01  0.83873822292E+01  0.51100000000E-03 0. -1.
        -11    1    3    3    0    0  0.23718830410E+02 -0.79643474382E+01  0.88151448621E+01  0.26527731251E+02  0.51100000000E-03 0.  1.
         12    1    3    3    0    0 -0.36240302044E+02  0.76853821049E+01 -0.61084502172E+01  0.37546474593E+02  0.00000000000E+00 0. -1.
</event>
<event>
 7    1  0.2153242E-013  0.7246159E+02  0.7816164E-02  0.1226708E+00
        -11   -1    0    0    0    0  0.00000000000E+00  0.00000000000E+00  0.45593999997E+02  0.45594000000E+02  0.51100000000E-03 0.  1.
         11   -1    0    0    0    0 -0.00000000000E+00 -0.00000000000E+00 -0.45593999997E+02  0.45594000000E+02  0.51100000000E-03 0. -1.
    9900012    2    1    2    0    0  0.75140715853E+01 -0.42439910060E+01  0.16619437553E+02  0.72461589879E+02  0.70000025513E+02 0.  0.
         12    1    1    2    0    0 -0.75140715853E+01  0.42439910060E+01 -0.16619437553E+02  0.18726410121E+02  0.00000000000E+00 0. -1.
         11    1    3    3    0    0  0.11739817614E+02  0.16270945746E+02  0.20972547974E+01  0.20173385214E+02  0.51100000000E-03 0. -1.
        -11    1    3    3    0    0  0.13783317817E+02 -0.24700723770E+02  0.17926519906E+02  0.33488292298E+02  0.51100000000E-03 0.  1.
         12    1    3    3    0    0 -0.18009063846E+02  0.41857870186E+01 -0.34043371506E+01  0.18799912367E+02  0.00000000000E+00 0. -1.
</event>
<event>
 7    1  0.2153242E-013  0.7246165E+02  0.7816164E-02  0.1226708E+00
        -11   -1    0    0    0    0  0.00000000000E+00  0.00000000000E+00  0.45593999997E+02  0.45594000000E+02  0.51100000000E-03 0.  1.
         11   -1    0    0    0    0 -0.00000000000E+00 -0.00000000000E+00 -0.45593999997E+02  0.45594000000E+02  0.51100000000E-03 0. -1.
    9900012    2    1    2    0    0  0.12008304646E+02  0.10812389196E+02 -0.94641013949E+01  0.72461645422E+02  0.70000097867E+02 0.  0.
         12    1    1    2    0    0 -0.12008304646E+02 -0.10812389196E+02  0.94641013949E+01  0.18726354578E+02  0.00000000000E+00 0. -1.
         11    1    3    3    0    0 -0.32119429500E+01 -0.40873277785E+01 -0.39215459277E+01  0.65116317930E+01  0.51100000000E-03 0. -1.
        -11    1    3    3    0    0 -0.18223187170E+02  0.10392778247E+02  0.15586833058E+02  0.26135105804E+02  0.51100000000E-03 0.  1.
        -12    1    3    3    0    0  0.33443434766E+02  0.45069387274E+01 -0.21129388525E+02  0.39814907825E+02  0.00000000000E+00 0.  1.
</event>
<event>
 7    1  0.2153242E-013  0.7246158E+02  0.7816164E-02  0.1226708E+00
        -11   -1    0    0    0    0  0.00000000000E+00  0.00000000000E+00  0.45593999997E+02  0.45594000000E+02  0.51100000000E-03 0. -1.
         11   -1    0    0    0    0 -0.00000000000E+00 -0.00000000000E+00 -0.45593999997E+02  0.45594000000E+02  0.51100000000E-03 0.  1.
    9900012    2    1    2    0    0 -0.34144936681E+01 -0.37740389134E+01 -0.18021563633E+02  0.72461577691E+02  0.70000009636E+02 0.  0.
         12    1    1    2    0    0  0.34144936681E+01  0.37740389134E+01  0.18021563633E+02  0.18726422309E+02  0.00000000000E+00 0. -1.
         11    1    3    3    0    0 -0.48850940439E+01 -0.66822484032E+01 -0.23053589473E+02  0.24494582573E+02  0.51100000000E-03 0. -1.
        -11    1    3    3    0    0 -0.20860089495E+02  0.11412876020E+02  0.33440120561E+01  0.24012069666E+02  0.51100000000E-03 0.  1.
         12    1    3    3    0    0  0.22330689870E+02 -0.85046665298E+01  0.16880137847E+01  0.23954925452E+02  0.00000000000E+00 0. -1.
</event>
<event>
 7    1  0.2153242E-013  0.7246156E+02  0.7816164E-02  0.1226708E+00
        -11   -1    0    0    0    0  0.00000000000E+00  0.00000000000E+00  0.45593999997E+02  0.45594000000E+02  0.51100000000E-03 0. -1.
         11   -1    0    0    0    0 -0.00000000000E+00 -0.00000000000E+00 -0.45593999997E+02  0.45594000000E+02  0.51100000000E-03 0.  1.
    9900012    2    1    2    0    0 -0.94961414467E+01 -0.12757887652E+02 -0.98863156401E+01  0.72461557822E+02  0.69999983752E+02 0.  0.
         12    1    1    2    0    0  0.94961414467E+01  0.12757887652E+02  0.98863156401E+01  0.18726442178E+02  0.00000000000E+00 0. -1.
         11    1    3    3    0    0 -0.30387815807E+01  0.17903179104E+02 -0.15573369646E+02  0.23922538701E+02  0.51100000000E-03 0.  1.
        -11    1    3    3    0    0 -0.20492720691E+02 -0.99020677007E+01 -0.35487091651E+00  0.22762435716E+02  0.51100000000E-03 0. -1.
        -12    1    3    3    0    0  0.14035360825E+02 -0.20758999055E+02  0.60419249224E+01  0.25776583405E+02  0.00000000000E+00 0.  1.
</event>
<event>
 7    1  0.2153242E-013  0.7246160E+02  0.7816164E-02  0.1226708E+00
        -11   -1    0    0    0    0  0.00000000000E+00  0.00000000000E+00  0.45593999997E+02  0.45594000000E+02  0.51100000000E-03 0.  1.
         11   -1    0    0    0    0 -0.00000000000E+00 -0.00000000000E+00 -0.45593999997E+02  0.45594000000E+02  0.51100000000E-03 0. -1.
    9900012    2    1    2    0    0 -0.86837646743E+00 -0.30243968671E+01  0.18460142061E+02  0.72461604217E+02  0.70000044191E+02 0.  0.
         12    1    1    2    0    0  0.86837646743E+00  0.30243968671E+01 -0.18460142061E+02  0.18726395783E+02  0.00000000000E+00 0. -1.
         11    1    3    3    0    0  0.83324676606E+01 -0.96701851842E+01 -0.21520955764E+02  0.25021871154E+02  0.51100000000E-03 0. -1.
        -11    1    3    3    0    0 -0.74741519264E+00  0.94846959785E+01  0.39159247461E+01  0.10288467046E+02  0.51100000000E-03 0.  1.
        -12    1    3    3    0    0 -0.84534289354E+01 -0.28389076613E+01  0.36065173079E+02  0.37151266017E+02  0.00000000000E+00 0.  1.
</event>
<event>
 7    1  0.2153242E-013  0.7246152E+02  0.7816164E-02  0.1226708E+00
        -11   -1    0    0    0    0  0.00000000000E+00  0.00000000000E+00  0.45593999997E+02  0.45594000000E+02  0.51100000000E-03 0.  1.
         11   -1    0    0    0    0 -0.00000000000E+00 -0.00000000000E+00 -0.45593999997E+02  0.45594000000E+02  0.51100000000E-03 0. -1.
    9900012    2    1    2    0    0  0.15513455043E+02 -0.10232102353E+02 -0.23060146658E+01  0.72461523834E+02  0.69999939477E+02 0.  0.
         12    1    1    2    0    0 -0.15513455043E+02  0.10232102353E+02  0.23060146658E+01  0.18726476166E+02  0.00000000000E+00 0. -1.
         11    1    3    3    0    0  0.61828643854E+01 -0.19569883220E+01 -0.68374155537E-01  0.64855447409E+01  0.51100000000E-03 0. -1.
        -11    1    3    3    0    0  0.91067969381E+01 -0.18253832731E+02  0.27709884305E+02  0.34408921057E+02  0.51100000000E-03 0.  1.
         12    1    3    3    0    0  0.22379371953E+00  0.99787186999E+01 -0.29947524815E+02  0.31567058036E+02  0.00000000000E+00 0. -1.
</event>
<event>
 7    1  0.2153242E-013  0.7246154E+02  0.7816164E-02  0.1226708E+00
        -11   -1    0    0    0    0  0.00000000000E+00  0.00000000000E+00  0.45593999997E+02  0.45594000000E+02  0.51100000000E-03 0.  1.
         11   -1    0    0    0    0 -0.00000000000E+00 -0.00000000000E+00 -0.45593999997E+02  0.45594000000E+02  0.51100000000E-03 0. -1.
    9900012    2    1    2    0    0  0.11586247020E+02 -0.14621695049E+02  0.16264026899E+01  0.72461540863E+02  0.69999961660E+02 0.  0.
         12    1    1    2    0    0 -0.11586247020E+02  0.14621695049E+02 -0.16264026899E+01  0.18726459137E+02  0.00000000000E+00 0. -1.
         11    1    3    3    0    0 -0.88681779872E+01  0.18723102185E+02  0.32962125688E+01  0.20977706114E+02  0.51100000000E-03 0. -1.
        -11    1    3    3    0    0  0.60507744164E+01  0.55661125729E+01 -0.53826047784E+01  0.98267957481E+01  0.51100000000E-03 0.  1.
         12    1    3    3    0    0  0.14403650591E+02 -0.38910909807E+02  0.37127948996E+01  0.41657039001E+02  0.00000000000E+00 0. -1.
</event>
<event>
 7    1  0.2153242E-013  0.7246167E+02  0.7816164E-02  0.1226708E+00
        -11   -1    0    0    0    0  0.00000000000E+00  0.00000000000E+00  0.45593999997E+02  0.45594000000E+02  0.51100000000E-03 0. -1.
         11   -1    0    0    0    0 -0.00000000000E+00 -0.00000000000E+00 -0.45593999997E+02  0.45594000000E+02  0.51100000000E-03 0.  1.
    9900012    2    1    2    0    0  0.98637199104E+01  0.12999611146E+02 -0.91865344208E+01  0.72461674277E+02  0.70000135456E+02 0.  0.
         12    1    1    2    0    0 -0.98637199104E+01 -0.12999611146E+02  0.91865344208E+01  0.18726325723E+02  0.00000000000E+00 0. -1.
         11    1    3    3    0    0  0.10937797919E+02  0.18839230725E+02  0.18212500982E+02  0.28394492950E+02  0.51100000000E-03 0. -1.
        -11    1    3    3    0    0 -0.33301520038E+01 -0.10916668385E+02  0.40656124234E+01  0.12115806438E+02  0.51100000000E-03 0.  1.
        -12    1    3    3    0    0  0.22560739955E+01  0.50770488064E+01 -0.31464647826E+02  0.31951374889E+02  0.00000000000E+00 0.  1.
</event>
<event>
 7    1  0.2153242E-013  0.7246156E+02  0.7816164E-02  0.1226708E+00
        -11   -1    0    0    0    0  0.00000000000E+00  0.00000000000E+00  0.45593999997E+02  0.45594000000E+02  0.51100000000E-03 0.  1.
         11   -1    0    0    0    0 -0.00000000000E+00 -0.00000000000E+00 -0.45593999997E+02  0.45594000000E+02  0.51100000000E-03 0. -1.
    9900012    2    1    2    0    0 -0.17830453680E+02  0.17737978956E+01 -0.54413370787E+01  0.72461559158E+02  0.69999985493E+02 0.  0.
         12    1    1    2    0    0  0.17830453680E+02 -0.17737978956E+01  0.54413370787E+01  0.18726440842E+02  0.00000000000E+00 0. -1.
         11    1    3    3    0    0  0.11171979064E+02 -0.65984948597E+01 -0.16587035359E+02  0.21059035896E+02  0.51100000000E-03 0. -1.
        -11    1    3    3    0    0  0.78753143042E-01 -0.57918906653E+01 -0.10840314124E+02  0.12290834394E+02  0.51100000000E-03 0.  1.
        -12    1    3    3    0    0 -0.29081185887E+02  0.14164183421E+02  0.21986012405E+02  0.39111688867E+02  0.00000000000E+00 0.  1.
</event>
<event>
 7    1  0.2153242E-013  0.7246160E+02  0.7816164E-02  0.1226708E+00
        -11   -1    0    0    0    0  0.00000000000E+00  0.00000000000E+00  0.45593999997E+02  0.45594000000E+02  0.51100000000E-03 0.  1.
         11   -1    0    0    0    0 -0.00000000000E+00 -0.00000000000E+00 -0.45593999997E+02  0.45594000000E+02  0.51100000000E-03 0. -1.
    9900012    2    1    2    0    0  0.23324685378E+01 -0.17125176343E+02 -0.72087331960E+01  0.72461603963E+02  0.70000043859E+02 0.  0.
         12    1    1    2    0    0 -0.23324685378E+01  0.17125176343E+02  0.72087331960E+01  0.18726396037E+02  0.00000000000E+00 0. -1.
         11    1    3    3    0    0 -0.20495377647E+02 -0.13028718406E+02 -0.66109697191E+01  0.25169682737E+02  0.51100000000E-03 0. -1.
        -11    1    3    3    0    0  0.76617360529E+01 -0.21377197814E+02  0.57778744756E+01  0.23432255962E+02  0.51100000000E-03 0.  1.
         12    1    3    3    0    0  0.15166110132E+02  0.17280739877E+02 -0.63756379525E+01  0.23859665264E+02  0.00000000000E+00 0. -1.
</event>
<event>
 7    1  0.2153242E-013  0.7246155E+02  0.7816164E-02  0.1226708E+00
        -11   -1    0    0    0    0  0.00000000000E+00  0.00000000000E+00  0.45593999997E+02  0.45594000000E+02  0.51100000000E-03 0.  1.
         11   -1    0    0    0    0 -0.00000000000E+00 -0.00000000000E+00 -0.45593999997E+02  0.45594000000E+02  0.51100000000E-03 0. -1.
    9900012    2    1    2    0    0  0.14983005894E+02  0.83365588323E+01  0.75293498285E+01  0.72461553791E+02  0.69999978501E+02 0.  0.
         12    1    1    2    0    0 -0.14983005894E+02 -0.83365588323E+01 -0.75293498285E+01  0.18726446209E+02  0.00000000000E+00 0. -1.
         11    1    3    3    0    0 -0.20581178173E+01  0.37684228640E+01 -0.45530643585E+01  0.62583748007E+01  0.51100000000E-03 0. -1.
        -11    1    3    3    0    0  0.45104243682E+01 -0.24008611713E+02  0.22595555197E+02  0.33276365176E+02  0.51100000000E-03 0.  1.
         12    1    3    3    0    0  0.12530699343E+02  0.28576747682E+02 -0.10513141010E+02  0.32926813815E+02  0.00000000000E+00 0. -1.
</event>
<event>
 7    1  0.2153242E-013  0.7246157E+02  0.7816164E-02  0.1226708E+00
        -11   -1    0    0    0    0  0.00000000000E+00  0.00000000000E+00  0.45593999997E+02  0.45594000000E+02  0.51100000000E-03 0.  1.
         11   -1    0    0    0    0 -0.00000000000E+00 -0.00000000000E+00 -0.45593999997E+02  0.45594000000E+02  0.51100000000E-03 0. -1.
    9900012    2    1    2    0    0 -0.11849739058E+02 -0.13588155868E+02 -0.50621012717E+01  0.72461570418E+02  0.70000000160E+02 0.  0.
         12    1    1    2    0    0  0.11849739058E+02  0.13588155868E+02  0.50621012717E+01  0.18726429582E+02  0.00000000000E+00 0. -1.
         11    1    3    3    0    0 -0.73526012830E+01 -0.82703439610E+01 -0.16589481240E+02  0.19941670515E+02  0.51100000000E-03 0. -1.
        -11    1    3    3    0    0 -0.21534863695E+02  0.98283390107E+01 -0.52105312980E+01  0.24238321698E+02  0.51100000000E-03 0.  1.
        -12    1    3    3    0    0  0.17037725920E+02 -0.15146150917E+02  0.16737911266E+02  0.28281578204E+02  0.00000000000E+00 0.  1.
</event>
<event>
 7    1  0.2153242E-013  0.7246132E+02  0.7816164E-02  0.1226709E+00
        -11   -1    0    0    0    0  0.00000000000E+00  0.00000000000E+00  0.45593999997E+02  0.45594000000E+02  0.51100000000E-03 0.  1.
         11   -1    0    0    0    0 -0.00000000000E+00 -0.00000000000E+00 -0.45593999997E+02  0.45594000000E+02  0.51100000000E-03 0. -1.
    9900012    2    1    2    0    0 -0.17183407789E+02 -0.31096882368E+01  0.67637819027E+01  0.72461323579E+02  0.69999678606E+02 0.  0.
         12    1    1    2    0    0  0.17183407789E+02  0.31096882368E+01 -0.67637819027E+01  0.18726676421E+02  0.00000000000E+00 0. -1.
         11    1    3    3    0    0  0.49332097648E+00 -0.80062796271E+01  0.19423937313E+02  0.21015071260E+02  0.51100000000E-03 0. -1.
        -11    1    3    3    0    0 -0.26522539057E+02 -0.12715533969E+02 -0.32061817361E+01  0.29587319645E+02  0.51100000000E-03 0.  1.
         12    1    3    3    0    0  0.88458102921E+01  0.17612125360E+02 -0.94539736746E+01  0.21858932674E+02  0.00000000000E+00 0. -1.
</event>
<event>
 7    1  0.2153242E-013  0.7246160E+02  0.7816164E-02  0.1226708E+00
        -11   -1    0    0    0    0  0.00000000000E+00  0.00000000000E+00  0.45593999997E+02  0.45594000000E+02  0.51100000000E-03 0.  1.
         11   -1    0    0    0    0 -0.00000000000E+00 -0.00000000000E+00 -0.45593999997E+02  0.45594000000E+02  0.51100000000E-03 0. -1.
    9900012    2    1    2    0    0 -0.17880718981E+02 -0.10693671839E+01 -0.54602666417E+01  0.72461597002E+02  0.70000034792E+02 0.  0.
         12    1    1    2    0    0  0.17880718981E+02  0.10693671839E+01  0.54602666417E+01  0.18726402998E+02  0.00000000000E+00 0. -1.
         11    1    3    3    0    0  0.47060735353E+01 -0.17545842700E+01  0.84905822212E+01  0.98648710482E+01  0.51100000000E-03 0.  1.
        -11    1    3    3    0    0 -0.26503935858E+02 -0.21852270931E+02 -0.18878468572E+02  0.39196644457E+02  0.51100000000E-03 0. -1.
         12    1    3    3    0    0  0.39171433416E+01  0.22537488017E+02  0.49276197089E+01  0.23400081497E+02  0.00000000000E+00 0. -1.
</event>
<event>
 7    1  0.2153242E-013  0.7246152E+02  0.7816164E-02  0.1226708E+00
        -11   -1    0    0    0    0  0.00000000000E+00  0.00000000000E+00  0.45593999997E+02  0.45594000000E+02  0.51100000000E-03 0.  1.
         11   -1    0    0    0    0 -0.00000000000E+00 -0.00000000000E+00 -0.45593999997E+02  0.45594000000E+02  0.51100000000E-03 0. -1.
    9900012    2    1    2    0    0  0.12944319839E+02 -0.12899299030E+02  0.40907047968E+01  0.72461516152E+02  0.69999929470E+02 0.  0.
         12    1    1    2    0    0 -0.12944319839E+02  0.12899299030E+02 -0.40907047968E+01  0.18726483848E+02  0.00000000000E+00 0. -1.
         11    1    3    3    0    0 -0.65725651147E+01  0.18209412938E+01  0.99152120995E+00  0.68918469189E+01  0.51100000000E-03 0. -1.
        -11    1    3    3    0    0  0.27168719031E+02  0.11417411955E+02  0.17992620558E+02  0.34528697982E+02  0.51100000000E-03 0.  1.
         12    1    3    3    0    0 -0.76518340772E+01 -0.26137652279E+02 -0.14893436971E+02  0.31040971251E+02  0.00000000000E+00 0. -1.
</event>
<event>
 7    1  0.2153242E-013  0.7246166E+02  0.7816164E-02  0.1226708E+00
        -11   -1    0    0    0    0  0.00000000000E+00  0.00000000000E+00  0.45593999997E+02  0.45594000000E+02  0.51100000000E-03 0. -1.
         11   -1    0    0    0    0 -0.00000000000E+00 -0.00000000000E+00 -0.45593999997E+02  0.45594000000E+02  0.51100000000E-03 0.  1.
    9900012    2    1    2    0    0  0.90003427066E+01 -0.12965136892E+02 -0.10078427059E+02  0.72461664655E+02  0.70000122922E+02 0.  0.
         12    1    1    2    0    0 -0.90003427066E+01  0.12965136892E+02  0.10078427059E+02  0.18726335345E+02  0.00000000000E+00 0. -1.
         11    1    3    3    0    0  0.11161389864E+02 -0.79934898201E+00 -0.10240429832E+02  0.15168453642E+02  0.51100000000E-03 0. -1.
        -11    1    3    3    0    0  0.10136439826E+02 -0.49877424714E+01 -0.25530768631E+02  0.27918544634E+02  0.51100000000E-03 0.  1.
         12    1    3    3    0    0 -0.12297486984E+02 -0.71780454385E+01  0.25692771404E+02  0.29374666379E+02  0.00000000000E+00 0. -1.
</event>
<event>
 7    1  0.2153242E-013  0.7246158E+02  0.7816164E-02  0.1226708E+00
        -11   -1    0    0    0    0  0.00000000000E+00  0.00000000000E+00  0.45593999997E+02  0.45594000000E+02  0.51100000000E-03 0.  1.
         11   -1    0    0    0    0 -0.00000000000E+00 -0.00000000000E+00 -0.45593999997E+02  0.45594000000E+02  0.51100000000E-03 0. -1.
    9900012    2    1    2    0    0  0.36126539687E+01  0.17811943702E+02  0.45124579943E+01  0.72461577910E+02  0.70000009921E+02 0.  0.
         12    1    1    2    0    0 -0.36126539687E+01 -0.17811943702E+02 -0.45124579943E+01  0.18726422090E+02  0.00000000000E+00 0. -1.
         11    1    3    3    0    0  0.64914034432E+01 -0.37168468341E+01 -0.39994622357E+01  0.84822737215E+01  0.51100000000E-03 0. -1.
        -11    1    3    3    0    0  0.71393188030E+01  0.32182507451E+02 -0.15057943531E+02  0.36241210278E+02  0.51100000000E-03 0.  1.
        -12    1    3    3    0    0 -0.10018068278E+02 -0.10653716915E+02  0.23569863761E+02  0.27738093911E+02  0.00000000000E+00 0.  1.
</event>
<event>
 7    1  0.2153242E-013  0.7246186E+02  0.7816164E-02  0.1226707E+00
        -11   -1    0    0    0    0  0.00000000000E+00  0.00000000000E+00  0.45593999997E+02  0.45594000000E+02  0.51100000000E-03 0.  1.
         11   -1    0    0    0    0 -0.00000000000E+00 -0.00000000000E+00 -0.45593999997E+02  0.45594000000E+02  0.51100000000E-03 0. -1.
    9900012    2    1    2    0    0  0.14602156727E+02 -0.27364044140E+01  0.11399885259E+02  0.72461861207E+02  0.70000378966E+02 0.  0.
         12    1    1    2    0    0 -0.14602156727E+02  0.27364044140E+01 -0.11399885259E+02  0.18726138793E+02  0.00000000000E+00 0. -1.
         11    1    3    3    0    0  0.18661544603E+02 -0.92733664171E+01 -0.17688880093E+02  0.27333954176E+02  0.51100000000E-03 0. -1.
        -11    1    3    3    0    0  0.12471752033E+02  0.85536053740E+01  0.51697654969E+01  0.15982341481E+02  0.51100000000E-03 0.  1.
         12    1    3    3    0    0 -0.16531139909E+02 -0.20166433708E+01  0.23918999855E+02  0.29145565550E+02  0.00000000000E+00 0. -1.
</event>
<event>
 7    1  0.2153242E-013  0.7246157E+02  0.7816164E-02  0.1226708E+00
        -11   -1    0    0    0    0  0.00000000000E+00  0.00000000000E+00  0.45593999997E+02  0.45594000000E+02  0.51100000000E-03 0.  1.
         11   -1    0    0    0    0 -0.00000000000E+00 -0.00000000000E+00 -0.45593999997E+02  0.45594000000E+02  0.51100000000E-03 0. -1.
    9900012    2    1    2    0    0  0.15421256695E+02  0.12742706545E+01  0.10547044599E+02  0.72461572858E+02  0.70000003339E+02 0.  0.
         12    1    1    2    0    0 -0.15421256695E+02 -0.12742706545E+01 -0.10547044599E+02  0.18726427142E+02  0.00000000000E+00 0. -1.
         11    1    3    3    0    0 -0.91156312840E+01 -0.38942932894E+01 -0.11454850159E+02  0.15148394184E+02  0.51100000000E-03 0. -1.
        -11    1    3    3    0    0 -0.56639062945E+01  0.17700687566E+02  0.13372608693E+01  0.18632832359E+02  0.51100000000E-03 0.  1.
        -12    1    3    3    0    0  0.30200794273E+02 -0.12532123622E+02  0.20664633889E+02  0.38680346314E+02  0.00000000000E+00 0.  1.
</event>
<event>
 7    1  0.2153242E-013  0.7246168E+02  0.7816164E-02  0.1226708E+00
        -11   -1    0    0    0    0  0.00000000000E+00  0.00000000000E+00  0.45593999997E+02  0.45594000000E+02  0.51100000000E-03 0. -1.
         11   -1    0    0    0    0 -0.00000000000E+00 -0.00000000000E+00 -0.45593999997E+02  0.45594000000E+02  0.51100000000E-03 0.  1.
    9900012    2    1    2    0    0 -0.15824688648E+02 -0.71821861217E+01 -0.69764324074E+01  0.72461676885E+02  0.70000138854E+02 0.  0.
         12    1    1    2    0    0  0.15824688648E+02  0.71821861217E+01  0.69764324074E+01  0.18726323115E+02  0.00000000000E+00 0. -1.
         11    1    3    3    0    0  0.86989051306E+01 -0.30507375256E+01 -0.73479375440E+01  0.11788559553E+02  0.51100000000E-03 0. -1.
        -11    1    3    3    0    0  0.85629993605E+01 -0.21344873847E+02 -0.31396563697E+01  0.23211765120E+02  0.51100000000E-03 0.  1.
         12    1    3    3    0    0 -0.33086593139E+02  0.17213425251E+02  0.35111615063E+01  0.37461352212E+02  0.00000000000E+00 0. -1.
</event>
<event>
 7    1  0.2153242E-013  0.7246149E+02  0.7816164E-02  0.1226708E+00
        -11   -1    0    0    0    0  0.00000000000E+00  0.00000000000E+00  0.45593999997E+02  0.45594000000E+02  0.51100000000E-03 0. -1.
         11   -1    0    0    0    0 -0.00000000000E+00 -0.00000000000E+00 -0.45593999997E+02  0.45594000000E+02  0.51100000000E-03 0.  1.
    9900012    2    1    2    0    0 -0.10930806109E+02 -0.11385584699E+02 -0.10078099026E+02  0.72461490953E+02  0.69999896642E+02 0.  0.
         12    1    1    2    0    0  0.10930806109E+02  0.11385584699E+02  0.10078099026E+02  0.18726509047E+02  0.00000000000E+00 0. -1.
         11    1    3    3    0    0  0.13428588084E+02  0.23125446783E-01 -0.16930564071E+01  0.13534916069E+02  0.51100000000E-03 0. -1.
        -11    1    3    3    0    0 -0.31098016420E+01 -0.14939659733E+02  0.18817941242E+02  0.24227653870E+02  0.51100000000E-03 0.  1.
        -12    1    3    3    0    0 -0.21249592552E+02  0.35309495879E+01 -0.27202983861E+02  0.34698921014E+02  0.00000000000E+00 0.  1.
</event>
<event>
 7    1  0.2153242E-013  0.7246156E+02  0.7816164E-02  0.1226708E+00
        -11   -1    0    0    0    0  0.00000000000E+00  0.00000000000E+00  0.45593999997E+02  0.45594000000E+02  0.51100000000E-03 0. -1.
         11   -1    0    0    0    0 -0.00000000000E+00 -0.00000000000E+00 -0.45593999997E+02  0.45594000000E+02  0.51100000000E-03 0.  1.
    9900012    2    1    2    0    0 -0.13187705764E+02  0.13063636865E+02 -0.24709174203E+01  0.72461558150E+02  0.69999984180E+02 0.  0.
         12    1    1    2    0    0  0.13187705764E+02 -0.13063636865E+02  0.24709174203E+01  0.18726441850E+02  0.00000000000E+00 0. -1.
         11    1    3    3    0    0 -0.16010628411E+02  0.16460992288E+02 -0.16772162172E+02  0.28436067122E+02  0.51100000000E-03 0. -1.
        -11    1    3    3    0    0 -0.15580436476E+01 -0.87601536846E+01 -0.13059259302E+02  0.15802279784E+02  0.51100000000E-03 0.  1.
         12    1    3    3    0    0  0.43809662939E+01  0.53627982620E+01  0.27360504053E+02  0.28223211244E+02  0.00000000000E+00 0. -1.
</event>
<event>
 7    1  0.2153242E-013  0.7246191E+02  0.7816164E-02  0.1226707E+00
        -11   -1    0    0    0    0  0.00000000000E+00  0.00000000000E+00  0.45593999997E+02  0.45594000000E+02  0.51100000000E-03 0. -1.
         11   -1    0    0    0    0 -0.00000000000E+00 -0.00000000000E+00 -0.45593999997E+02  0.45594000000E+02  0.51100000000E-03 0.  1.
    9900012    2    1    2    0    0  0.50244159023E+01 -0.89571293045E+01 -0.15658593975E+02  0.72461908955E+02  0.70000441168E+02 0.  0.
         12    1    1    2    0    0 -0.50244159023E+01  0.89571293045E+01  0.15658593975E+02  0.18726091045E+02  0.00000000000E+00 0. -1.
         11    1    3    3    0    0 -0.19016278875E+02 -0.17879769424E+02  0.13827945916E+02  0.29538400523E+02  0.51100000000E-03 0. -1.
        -11    1    3    3    0    0  0.59374968079E+01  0.42001891491E+01  0.80784121123E+00  0.73176543315E+01  0.51100000000E-03 0.  1.
        -12    1    3    3    0    0  0.18103197970E+02  0.47224509707E+01 -0.30294381102E+02  0.35605854101E+02  0.00000000000E+00 0.  1.
</event>
<event>
 7    1  0.2153242E-013  0.7246143E+02  0.7816164E-02  0.1226708E+00
        -11   -1    0    0    0    0  0.00000000000E+00  0.00000000000E+00  0.45593999997E+02  0.45594000000E+02  0.51100000000E-03 0.  1.
         11   -1    0    0    0    0 -0.00000000000E+00 -0.00000000000E+00 -0.45593999997E+02  0.45594000000E+02  0.51100000000E-03 0. -1.
    9900012    2    1    2    0    0 -0.76568183589E+01 -0.60243037880E+01  0.15992664066E+02  0.72461430441E+02  0.69999817815E+02 0.  0.
         12    1    1    2    0    0  0.76568183589E+01  0.60243037880E+01 -0.15992664066E+02  0.18726569559E+02  0.00000000000E+00 0. -1.
         11    1    3    3    0    0  0.50334188109E+00  0.11987065504E+02 -0.13002869237E+01  0.12067884603E+02  0.51100000000E-03 0. -1.
        -11    1    3    3    0    0 -0.29483403356E+02  0.59778658526E+00  0.10347155665E+02  0.31252072777E+02  0.51100000000E-03 0.  1.
         12    1    3    3    0    0  0.21323243116E+02 -0.18609155877E+02  0.69457953246E+01  0.29141473061E+02  0.00000000000E+00 0. -1.
</event>
<event>
 7    1  0.2153242E-013  0.7246157E+02  0.7816164E-02  0.1226708E+00
        -11   -1    0    0    0    0  0.00000000000E+00  0.00000000000E+00  0.45593999997E+02  0.45594000000E+02  0.51100000000E-03 0.  1.
         11   -1    0    0    0    0 -0.00000000000E+00 -0.00000000000E+00 -0.45593999997E+02  0.45594000000E+02  0.51100000000E-03 0. -1.
    9900012    2    1    2    0    0  0.18366369429E+02 -0.18533283656E+00  0.36498190843E+01  0.72461573389E+02  0.70000004032E+02 0.  0.
         12    1    1    2    0    0 -0.18366369429E+02  0.18533283656E+00 -0.36498190843E+01  0.18726426611E+02  0.00000000000E+00 0. -1.
         11    1    3    3    0    0  0.39913139077E+01 -0.14977196634E+01  0.97755279047E+01  0.10664647063E+02  0.51100000000E-03 0. -1.
        -11    1    3    3    0    0  0.25563723635E+02  0.22358205868E+02 -0.13943300992E+02  0.36712518009E+02  0.51100000000E-03 0.  1.
         12    1    3    3    0    0 -0.11188668114E+02 -0.21045819041E+02  0.78175921721E+01  0.25084408318E+02  0.00000000000E+00 0. -1.
</event>
<event>
 7    1  0.2153242E-013  0.7246153E+02  0.7816164E-02  0.1226708E+00
        -11   -1    0    0    0    0  0.00000000000E+00  0.00000000000E+00  0.45593999997E+02  0.45594000000E+02  0.51100000000E-03 0.  1.
         11   -1    0    0    0    0 -0.00000000000E+00 -0.00000000000E+00 -0.45593999997E+02  0.45594000000E+02  0.51100000000E-03 0. -1.
    9900012    2    1    2    0    0 -0.17612656191E+02 -0.77031843240E-01  0.63615387851E+01  0.72461527622E+02  0.69999944411E+02 0.  0.
         12    1    1    2    0    0  0.17612656191E+02  0.77031843240E-01 -0.63615387851E+01  0.18726472378E+02  0.00000000000E+00 0. -1.
         11    1    3    3    0    0  0.32719086903E+01 -0.14275521079E+02  0.39786021480E+01  0.15176467437E+02  0.51100000000E-03 0. -1.
        -11    1    3    3    0    0  0.11290772702E+01 -0.17773689006E+02  0.46325015161E+01  0.18402144084E+02  0.51100000000E-03 0.  1.
         12    1    3    3    0    0 -0.22013642152E+02  0.31972178242E+02 -0.22495648789E+01  0.38882916100E+02  0.00000000000E+00 0. -1.
</event>
<event>
 7    1  0.2153242E-013  0.7246228E+02  0.7816164E-02  0.1226706E+00
        -11   -1    0    0    0    0  0.00000000000E+00  0.00000000000E+00  0.45593999997E+02  0.45594000000E+02  0.51100000000E-03 0. -1.
         11   -1    0    0    0    0 -0.00000000000E+00 -0.00000000000E+00 -0.45593999997E+02  0.45594000000E+02  0.51100000000E-03 0.  1.
    9900012    2    1    2    0    0  0.17353225724E+02  0.47726547520E+01 -0.51710635559E+01  0.72462280396E+02  0.70000925033E+02 0.  0.
         12    1    1    2    0    0 -0.17353225724E+02 -0.47726547520E+01  0.51710635559E+01  0.18725719604E+02  0.00000000000E+00 0. -1.
         11    1    3    3    0    0 -0.11238823796E+02  0.46904776728E+01 -0.16354223827E+02  0.20390497257E+02  0.51100000000E-03 0. -1.
        -11    1    3    3    0    0 -0.17104269930E+01  0.12525800149E+02 -0.71588891789E+01  0.14528280160E+02  0.51100000000E-03 0.  1.
         12    1    3    3    0    0  0.30302476513E+02 -0.12443623070E+02  0.18342049450E+02  0.37543502979E+02  0.00000000000E+00 0. -1.
</event>
<event>
 7    1  0.2153242E-013  0.7246157E+02  0.7816164E-02  0.1226708E+00
        -11   -1    0    0    0    0  0.00000000000E+00  0.00000000000E+00  0.45593999997E+02  0.45594000000E+02  0.51100000000E-03 0. -1.
         11   -1    0    0    0    0 -0.00000000000E+00 -0.00000000000E+00 -0.45593999997E+02  0.45594000000E+02  0.51100000000E-03 0.  1.
    9900012    2    1    2    0    0 -0.88209432117E+01 -0.78654027026E+01 -0.14526029675E+02  0.72461571165E+02  0.70000001134E+02 0.  0.
         12    1    1    2    0    0  0.88209432117E+01  0.78654027026E+01  0.14526029675E+02  0.18726428835E+02  0.00000000000E+00 0. -1.
         11    1    3    3    0    0  0.11080879425E+01 -0.16614483693E+02 -0.37634673533E+02  0.41153828248E+02  0.51100000000E-03 0. -1.
        -11    1    3    3    0    0 -0.13619832585E+00  0.96212077184E+01  0.53506463550E+01  0.11009795848E+02  0.51100000000E-03 0.  1.
        -12    1    3    3    0    0 -0.97928328283E+01 -0.87212672806E+00  0.17757997504E+02  0.20297947068E+02  0.00000000000E+00 0.  1.
</event>
<event>
 7    1  0.2153242E-013  0.7246159E+02  0.7816164E-02  0.1226708E+00
        -11   -1    0    0    0    0  0.00000000000E+00  0.00000000000E+00  0.45593999997E+02  0.45594000000E+02  0.51100000000E-03 0. -1.
         11   -1    0    0    0    0 -0.00000000000E+00 -0.00000000000E+00 -0.45593999997E+02  0.45594000000E+02  0.51100000000E-03 0.  1.
    9900012    2    1    2    0    0  0.29982902958E+01  0.97729278128E+01 -0.15690077174E+02  0.72461591256E+02  0.70000027306E+02 0.  0.
         12    1    1    2    0    0 -0.29982902958E+01 -0.97729278128E+01  0.15690077174E+02  0.18726408744E+02  0.00000000000E+00 0. -1.
         11    1    3    3    0    0 -0.14289567142E+02 -0.36047723198E+01 -0.20947375585E+02  0.25612080289E+02  0.51100000000E-03 0. -1.
        -11    1    3    3    0    0  0.79439624031E+01  0.13465985723E+02 -0.16766742738E+02  0.22925160249E+02  0.51100000000E-03 0.  1.
         12    1    3    3    0    0  0.93438950344E+01 -0.88285590257E-01  0.22024041148E+02  0.23924350718E+02  0.00000000000E+00 0. -1.
</event>
<event>
 7    1  0.2153242E-013  0.7246159E+02  0.7816164E-02  0.1226708E+00
        -11   -1    0    0    0    0  0.00000000000E+00  0.00000000000E+00  0.45593999997E+02  0.45594000000E+02  0.51100000000E-03 0. -1.
         11   -1    0    0    0    0 -0.00000000000E+00 -0.00000000000E+00 -0.45593999997E+02  0.45594000000E+02  0.51100000000E-03 0.  1.
    9900012    2    1    2    0    0 -0.17436419079E+02  0.40183972537E+01 -0.55228952097E+01  0.72461585546E+02  0.70000019868E+02 0.  0.
         12    1    1    2    0    0  0.17436419079E+02 -0.40183972537E+01  0.55228952097E+01  0.18726414454E+02  0.00000000000E+00 0. -1.
         11    1    3    3    0    0  0.70141587146E+01 -0.98394839133E+01  0.37085970642E+01  0.12639919248E+02  0.51100000000E-03 0. -1.
        -11    1    3    3    0    0 -0.19865927759E+02  0.32736215428E+02 -0.12156141492E+02  0.40175697412E+02  0.51100000000E-03 0.  1.
         12    1    3    3    0    0 -0.45846500348E+01 -0.18878334261E+02  0.29246492182E+01  0.19645968886E+02  0.00000000000E+00 0. -1.
</event>
<event>
 7    1  0.2153242E-013  0.7246139E+02  0.7816164E-02  0.1226708E+00
        -11   -1    0    0    0    0  0.00000000000E+00  0.00000000000E+00  0.45593999997E+02  0.45594000000E+02  0.51100000000E-03 0.  1.
         11   -1    0    0    0    0 -0.00000000000E+00 -0.00000000000E+00 -0.45593999997E+02  0.45594000000E+02  0.51100000000E-03 0. -1.
    9900012    2    1    2    0    0 -0.40528278662E+01 -0.10050520834E+02  0.15272442936E+02  0.72461390698E+02  0.69999766042E+02 0.  0.
         12    1    1    2    0    0  0.40528278662E+01  0.10050520834E+02 -0.15272442936E+02  0.18726609302E+02  0.00000000000E+00 0. -1.
         11    1    3    3    0    0 -0.22538761779E+02 -0.11558318242E+02  0.15893999706E+02  0.29903339781E+02  0.51100000000E-03 0.  1.
        -11    1    3    3    0    0  0.64588976623E+01 -0.48919428860E+01 -0.18432126813E+02  0.20134342883E+02  0.51100000000E-03 0. -1.
        -12    1    3    3    0    0  0.12027036250E+02  0.63997402947E+01  0.17810570042E+02  0.22423708034E+02  0.00000000000E+00 0.  1.
</event>
<event>
 7    1  0.2153242E-013  0.7246163E+02  0.7816164E-02  0.1226708E+00
        -11   -1    0    0    0    0  0.00000000000E+00  0.00000000000E+00  0.45593999997E+02  0.45594000000E+02  0.51100000000E-03 0.  1.
         11   -1    0    0    0    0 -0.00000000000E+00 -0.00000000000E+00 -0.45593999997E+02  0.45594000000E+02  0.51100000000E-03 0. -1.
    9900012    2    1    2    0    0 -0.17109279123E+02  0.63060862398E+01 -0.42641217442E+01  0.72461631158E+02  0.70000079286E+02 0.  0.
         12    1    1    2    0    0  0.17109279123E+02 -0.63060862398E+01  0.42641217442E+01  0.18726368842E+02  0.00000000000E+00 0. -1.
         11    1    3    3    0    0  0.11197154435E+01  0.18662598717E+02 -0.88748028070E+00  0.18717210664E+02  0.51100000000E-03 0. -1.
        -11    1    3    3    0    0 -0.25953034247E+02  0.10799638444E+02  0.36412998189E+01  0.28345215501E+02  0.51100000000E-03 0.  1.
        -12    1    3    3    0    0  0.77240396807E+01 -0.23156150921E+02 -0.70179412825E+01  0.25399204993E+02  0.00000000000E+00 0.  1.
</event>
<event>
 7    1  0.2153242E-013  0.7246160E+02  0.7816164E-02  0.1226708E+00
        -11   -1    0    0    0    0  0.00000000000E+00  0.00000000000E+00  0.45593999997E+02  0.45594000000E+02  0.51100000000E-03 0.  1.
         11   -1    0    0    0    0 -0.00000000000E+00 -0.00000000000E+00 -0.45593999997E+02  0.45594000000E+02  0.51100000000E-03 0. -1.
    9900012    2    1    2    0    0  0.80348755287E+01 -0.16115104190E+02 -0.51402435724E+01  0.72461603876E+02  0.70000043746E+02 0.  0.
         12    1    1    2    0    0 -0.80348755287E+01  0.16115104190E+02  0.51402435724E+01  0.18726396124E+02  0.00000000000E+00 0. -1.
         11    1    3    3    0    0 -0.30500178410E+01  0.42356530123E+01  0.90371098695E+01  0.10436125734E+02  0.51100000000E-03 0. -1.
        -11    1    3    3    0    0  0.64681878313E+01  0.47781654285E+01  0.18718728732E+02  0.20372999884E+02  0.51100000000E-03 0.  1.
         12    1    3    3    0    0  0.46167055384E+01 -0.25128922631E+02 -0.32896082174E+02  0.41652478258E+02  0.00000000000E+00 0. -1.
</event>
<event>
 7    1  0.2153242E-013  0.7246149E+02  0.7816164E-02  0.1226708E+00
        -11   -1    0    0    0    0  0.00000000000E+00  0.00000000000E+00  0.45593999997E+02  0.45594000000E+02  0.51100000000E-03 0.  1.
         11   -1    0    0    0    0 -0.00000000000E+00 -0.00000000000E+00 -0.45593999997E+02  0.45594000000E+02  0.51100000000E-03 0. -1.
    9900012    2    1    2    0    0 -0.73228087354E+01  0.31667258155E+01 -0.16941972972E+02  0.72461491293E+02  0.69999897086E+02 0.  0.
         12    1    1    2    0    0  0.73228087354E+01 -0.31667258155E+01  0.16941972972E+02  0.18726508707E+02  0.00000000000E+00 0. -1.
         11    1    3    3    0    0  0.18419168864E+02 -0.96821482971E+01  0.13495140795E+01  0.20852600936E+02  0.51100000000E-03 0. -1.
        -11    1    3    3    0    0 -0.14467905883E+01 -0.58859013888E+01  0.87962024320E+01  0.10682238326E+02  0.51100000000E-03 0.  1.
        -12    1    3    3    0    0 -0.24295187011E+02  0.18734775501E+02 -0.27087689483E+02  0.40926652032E+02  0.00000000000E+00 0.  1.
</event>
<event>
 7    1  0.2153242E-013  0.7246154E+02  0.7816164E-02  0.1226708E+00
        -11   -1    0    0    0    0  0.00000000000E+00  0.00000000000E+00  0.45593999997E+02  0.45594000000E+02  0.51100000000E-03 0.  1.
         11   -1    0    0    0    0 -0.00000000000E+00 -0.00000000000E+00 -0.45593999997E+02  0.45594000000E+02  0.51100000000E-03 0. -1.
    9900012    2    1    2    0    0  0.13287521050E+02  0.11764768054E+02  0.59759715495E+01  0.72461542273E+02  0.69999963497E+02 0.  0.
         12    1    1    2    0    0 -0.13287521050E+02 -0.11764768054E+02 -0.59759715495E+01  0.18726457727E+02  0.00000000000E+00 0. -1.
         11    1    3    3    0    0  0.16546446824E+01 -0.53002601105E+01 -0.15753120984E+02  0.16703036468E+02  0.51100000000E-03 0. -1.
        -11    1    3    3    0    0  0.71425136346E+01  0.17108299553E+02 -0.11769839811E+02  0.21959930420E+02  0.51100000000E-03 0.  1.
        -12    1    3    3    0    0  0.44903627331E+01 -0.43271388146E-01  0.33498932344E+02  0.33798575385E+02  0.00000000000E+00 0.  1.
</event>
<event>
 7    1  0.2153242E-013  0.7246147E+02  0.7816164E-02  0.1226708E+00
        -11   -1    0    0    0    0  0.00000000000E+00  0.00000000000E+00  0.45593999997E+02  0.45594000000E+02  0.51100000000E-03 0.  1.
         11   -1    0    0    0    0 -0.00000000000E+00 -0.00000000000E+00 -0.45593999997E+02  0.45594000000E+02  0.51100000000E-03 0. -1.
    9900012    2    1    2    0    0  0.11955720764E+01  0.18344701720E+02  0.35672762105E+01  0.72461469799E+02  0.69999869086E+02 0.  0.
         12    1    1    2    0    0 -0.11955720764E+01 -0.18344701720E+02 -0.35672762105E+01  0.18726530201E+02  0.00000000000E+00 0. -1.
         11    1    3    3    0    0  0.24001457180E+02 -0.29784307711E+01  0.13981387353E+02  0.27936001668E+02  0.51100000000E-03 0. -1.
        -11    1    3    3    0    0  0.57455708508E+01  0.64109631442E+01 -0.87445560228E+01  0.12271075468E+02  0.51100000000E-03 0.  1.
        -12    1    3    3    0    0 -0.28551455955E+02  0.14912169347E+02 -0.16695551197E+01  0.32254392663E+02  0.00000000000E+00 0.  1.
</event>
<event>
 7    1  0.2153242E-013  0.7246158E+02  0.7816164E-02  0.1226708E+00
        -11   -1    0    0    0    0  0.00000000000E+00  0.00000000000E+00  0.45593999997E+02  0.45594000000E+02  0.51100000000E-03 0. -1.
         11   -1    0    0    0    0 -0.00000000000E+00 -0.00000000000E+00 -0.45593999997E+02  0.45594000000E+02  0.51100000000E-03 0.  1.
    9900012    2    1    2    0    0  0.24580542018E+01  0.16705541415E+01 -0.18489080922E+02  0.72461577626E+02  0.70000009551E+02 0.  0.
         12    1    1    2    0    0 -0.24580542018E+01 -0.16705541415E+01  0.18489080922E+02  0.18726422374E+02  0.00000000000E+00 0. -1.
         11    1    3    3    0    0  0.22979822049E+01  0.18958276292E+02  0.22291802036E+01  0.19226705564E+02  0.51100000000E-03 0. -1.
        -11    1    3    3    0    0  0.55459265516E+01 -0.11800749699E+02 -0.34815616398E+02  0.37177172300E+02  0.51100000000E-03 0.  1.
         12    1    3    3    0    0 -0.53858545547E+01 -0.54869724513E+01  0.14097355273E+02  0.16057699762E+02  0.00000000000E+00 0. -1.
</event>
<event>
 7    1  0.2153242E-013  0.7246161E+02  0.7816164E-02  0.1226708E+00
        -11   -1    0    0    0    0  0.00000000000E+00  0.00000000000E+00  0.45593999997E+02  0.45594000000E+02  0.51100000000E-03 0. -1.
         11   -1    0    0    0    0 -0.00000000000E+00 -0.00000000000E+00 -0.45593999997E+02  0.45594000000E+02  0.51100000000E-03 0.  1.
    9900012    2    1    2    0    0  0.10564193424E+02 -0.15119091860E+02 -0.32386320711E+01  0.72461605284E+02  0.70000045581E+02 0.  0.
         12    1    1    2    0    0 -0.10564193424E+02  0.15119091860E+02  0.32386320711E+01  0.18726394716E+02  0.00000000000E+00 0. -1.
         11    1    3    3    0    0 -0.60485331974E+01  0.18730517223E+02 -0.15027217005E+02  0.24763567604E+02  0.51100000000E-03 0. -1.
        -11    1    3    3    0    0 -0.48246341588E+01 -0.11633944700E+02  0.11147059512E+02  0.16819117102E+02  0.51100000000E-03 0.  1.
        -12    1    3    3    0    0  0.21437360780E+02 -0.22215664383E+02  0.64152542186E+00  0.30878920578E+02  0.00000000000E+00 0.  1.
</event>
<event>
 7    1  0.2153242E-013  0.7246159E+02  0.7816164E-02  0.1226708E+00
        -11   -1    0    0    0    0  0.00000000000E+00  0.00000000000E+00  0.45593999997E+02  0.45594000000E+02  0.51100000000E-03 0.  1.
         11   -1    0    0    0    0 -0.00000000000E+00 -0.00000000000E+00 -0.45593999997E+02  0.45594000000E+02  0.51100000000E-03 0. -1.
    9900012    2    1    2    0    0  0.16170958031E+02  0.85390284576E+01  0.40328258249E+01  0.72461586174E+02  0.70000020687E+02 0.  0.
         12    1    1    2    0    0 -0.16170958031E+02 -0.85390284576E+01 -0.40328258249E+01  0.18726413826E+02  0.00000000000E+00 0. -1.
         11    1    3    3    0    0  0.28640509061E+00 -0.68281269631E+01 -0.22932523473E+02  0.23929186756E+02  0.51100000000E-03 0. -1.
        -11    1    3    3    0    0 -0.63361365891E+01 -0.28538052684E+01  0.16579705315E+02  0.17977137146E+02  0.51100000000E-03 0.  1.
        -12    1    3    3    0    0  0.22220689529E+02  0.18220960689E+02  0.10385643983E+02  0.30555262272E+02  0.00000000000E+00 0.  1.
</event>
<event>
 7    1  0.2153242E-013  0.7246155E+02  0.7816164E-02  0.1226708E+00
        -11   -1    0    0    0    0  0.00000000000E+00  0.00000000000E+00  0.45593999997E+02  0.45594000000E+02  0.51100000000E-03 0.  1.
         11   -1    0    0    0    0 -0.00000000000E+00 -0.00000000000E+00 -0.45593999997E+02  0.45594000000E+02  0.51100000000E-03 0. -1.
    9900012    2    1    2    0    0 -0.74296584327E+01 -0.90915149479E+00  0.17165479656E+02  0.72461546179E+02  0.69999968586E+02 0.  0.
         12    1    1    2    0    0  0.74296584327E+01  0.90915149479E+00 -0.17165479656E+02  0.18726453821E+02  0.00000000000E+00 0. -1.
         11    1    3    3    0    0  0.14037009799E+02 -0.42856200993E+01  0.24316115649E+02  0.28402071478E+02  0.51100000000E-03 0. -1.
        -11    1    3    3    0    0 -0.43187871464E+01 -0.13430123114E+00  0.15124747681E+02  0.15729842717E+02  0.51100000000E-03 0.  1.
         12    1    3    3    0    0 -0.17147881085E+02  0.35107698357E+01 -0.22275383674E+02  0.28329631984E+02  0.00000000000E+00 0. -1.
</event>
<event>
 7    1  0.2153242E-013  0.7246161E+02  0.7816164E-02  0.1226708E+00
        -11   -1    0    0    0    0  0.00000000000E+00  0.00000000000E+00  0.45593999997E+02  0.45594000000E+02  0.51100000000E-03 0.  1.
         11   -1    0    0    0    0 -0.00000000000E+00 -0.00000000000E+00 -0.45593999997E+02  0.45594000000E+02  0.51100000000E-03 0. -1.
    9900012    2    1    2    0    0  0.26795093216E+01 -0.97769981930E+01  0.15745105295E+02  0.72461606738E+02  0.70000047474E+02 0.  0.
         12    1    1    2    0    0 -0.26795093216E+01  0.97769981930E+01 -0.15745105295E+02  0.18726393262E+02  0.00000000000E+00 0. -1.
         11    1    3    3    0    0  0.44015078787E+01  0.81790157920E+00 -0.18729770929E+02  0.19257376611E+02  0.51100000000E-03 0. -1.
        -11    1    3    3    0    0  0.98837066589E+01  0.11685822862E+02  0.11291675998E+02  0.19019675612E+02  0.51100000000E-03 0.  1.
        -12    1    3    3    0    0 -0.11605705216E+02 -0.22280722634E+02  0.23183200226E+02  0.34184554515E+02  0.00000000000E+00 0.  1.
</event>
<event>
 7    1  0.2153242E-013  0.7246169E+02  0.7816164E-02  0.1226708E+00
        -11   -1    0    0    0    0  0.00000000000E+00  0.00000000000E+00  0.45593999997E+02  0.45594000000E+02  0.51100000000E-03 0.  1.
         11   -1    0    0    0    0 -0.00000000000E+00 -0.00000000000E+00 -0.45593999997E+02  0.45594000000E+02  0.51100000000E-03 0. -1.
    9900012    2    1    2    0    0  0.75344165379E+01  0.16731258225E+02  0.37379478724E+01  0.72461689935E+02  0.70000155854E+02 0.  0.
         12    1    1    2    0    0 -0.75344165379E+01 -0.16731258225E+02 -0.37379478724E+01  0.18726310065E+02  0.00000000000E+00 0. -1.
         11    1    3    3    0    0  0.24114230551E+02 -0.30476522983E+01  0.41956924822E+01  0.24665525238E+02  0.51100000000E-03 0. -1.
        -11    1    3    3    0    0  0.76273723636E+01  0.10254982012E+02  0.13235507043E+02  0.18398916060E+02  0.51100000000E-03 0.  1.
         12    1    3    3    0    0 -0.24207186377E+02  0.95239285110E+01 -0.13693251653E+02  0.29397248637E+02  0.00000000000E+00 0. -1.
</event>
<event>
 7    1  0.2153242E-013  0.7246160E+02  0.7816164E-02  0.1226708E+00
        -11   -1    0    0    0    0  0.00000000000E+00  0.00000000000E+00  0.45593999997E+02  0.45594000000E+02  0.51100000000E-03 0.  1.
         11   -1    0    0    0    0 -0.00000000000E+00 -0.00000000000E+00 -0.45593999997E+02  0.45594000000E+02  0.51100000000E-03 0. -1.
    9900012    2    1    2    0    0 -0.13389115189E+02 -0.13090883347E+02  0.19594013374E+00  0.72461600856E+02  0.70000039813E+02 0.  0.
         12    1    1    2    0    0  0.13389115189E+02  0.13090883347E+02 -0.19594013374E+00  0.18726399144E+02  0.00000000000E+00 0. -1.
         11    1    3    3    0    0  0.14212705188E+02  0.16472745396E+02 -0.73361078003E+01  0.22960200512E+02  0.51100000000E-03 0. -1.
        -11    1    3    3    0    0  0.24011199651E+01 -0.50557376998E+01  0.91513849324E+01  0.10727241361E+02  0.51100000000E-03 0.  1.
        -12    1    3    3    0    0 -0.30002940342E+02 -0.24507891043E+02 -0.16193369984E+01  0.38774158983E+02  0.00000000000E+00 0.  1.
</event>
<event>
 7    1  0.2153242E-013  0.7246169E+02  0.7816164E-02  0.1226708E+00
        -11   -1    0    0    0    0  0.00000000000E+00  0.00000000000E+00  0.45593999997E+02  0.45594000000E+02  0.51100000000E-03 0.  1.
         11   -1    0    0    0    0 -0.00000000000E+00 -0.00000000000E+00 -0.45593999997E+02  0.45594000000E+02  0.51100000000E-03 0. -1.
    9900012    2    1    2    0    0 -0.16616470383E+02 -0.85667797994E+01 -0.10852750945E+01  0.72461691604E+02  0.70000158028E+02 0.  0.
         12    1    1    2    0    0  0.16616470383E+02  0.85667797994E+01  0.10852750945E+01  0.18726308396E+02  0.00000000000E+00 0. -1.
         11    1    3    3    0    0  0.62709610441E+01  0.97491851702E+01 -0.66064579817E+01  0.13342295576E+02  0.51100000000E-03 0. -1.
        -11    1    3    3    0    0  0.10979461021E+02  0.90739998920E+01 -0.34336297695E+01  0.14651820775E+02  0.51100000000E-03 0.  1.
         12    1    3    3    0    0 -0.33866892448E+02 -0.27389964862E+02  0.89548126567E+01  0.44467575254E+02  0.00000000000E+00 0. -1.
</event>
<event>
 7    1  0.2153242E-013  0.7246176E+02  0.7816164E-02  0.1226707E+00
        -11   -1    0    0    0    0  0.00000000000E+00  0.00000000000E+00  0.45593999997E+02  0.45594000000E+02  0.51100000000E-03 0. -1.
         11   -1    0    0    0    0 -0.00000000000E+00 -0.00000000000E+00 -0.45593999997E+02  0.45594000000E+02  0.51100000000E-03 0.  1.
    9900012    2    1    2    0    0  0.13176973498E+02 -0.15084200514E+01 -0.13219830730E+02  0.72461764763E+02  0.70000253332E+02 0.  0.
         12    1    1    2    0    0 -0.13176973498E+02  0.15084200514E+01  0.13219830730E+02  0.18726235237E+02  0.00000000000E+00 0. -1.
         11    1    3    3    0    0 -0.80820507690E+01  0.10067497462E+02  0.56461127795E+01  0.14090870788E+02  0.51100000000E-03 0. -1.
        -11    1    3    3    0    0  0.10255945460E+01  0.16318609627E+02 -0.17403942835E+02  0.23879826021E+02  0.51100000000E-03 0.  1.
        -12    1    3    3    0    0  0.20233429721E+02 -0.27894527141E+02 -0.14620006749E+01  0.34491067954E+02  0.00000000000E+00 0.  1.
</event>
<event>
 7    1  0.2153242E-013  0.7246156E+02  0.7816164E-02  0.1226708E+00
        -11   -1    0    0    0    0  0.00000000000E+00  0.00000000000E+00  0.45593999997E+02  0.45594000000E+02  0.51100000000E-03 0. -1.
         11   -1    0    0    0    0 -0.00000000000E+00 -0.00000000000E+00 -0.45593999997E+02  0.45594000000E+02  0.51100000000E-03 0.  1.
    9900012    2    1    2    0    0  0.17856588991E+02 -0.52215539872E+01  0.21347196497E+01  0.72461563489E+02  0.69999991135E+02 0.  0.
         12    1    1    2    0    0 -0.17856588991E+02  0.52215539872E+01 -0.21347196497E+01  0.18726436511E+02  0.00000000000E+00 0. -1.
         11    1    3    3    0    0 -0.15256629392E+02 -0.88811973070E+01 -0.14016564155E+02  0.22541172928E+02  0.51100000000E-03 0. -1.
        -11    1    3    3    0    0  0.14387608600E+02 -0.35541839111E+01 -0.93100335588E+01  0.17501777899E+02  0.51100000000E-03 0.  1.
        -12    1    3    3    0    0  0.18725609783E+02  0.72138272309E+01  0.25461317363E+02  0.32418612662E+02  0.00000000000E+00 0.  1.
</event>
<event>
 7    1  0.2153242E-013  0.7246157E+02  0.7816164E-02  0.1226708E+00
        -11   -1    0    0    0    0  0.00000000000E+00  0.00000000000E+00  0.45593999997E+02  0.45594000000E+02  0.51100000000E-03 0.  1.
         11   -1    0    0    0    0 -0.00000000000E+00 -0.00000000000E+00 -0.45593999997E+02  0.45594000000E+02  0.51100000000E-03 0. -1.
    9900012    2    1    2    0    0 -0.17458860426E+02 -0.67239559697E+01 -0.80974702425E+00  0.72461572645E+02  0.70000003062E+02 0.  0.
         12    1    1    2    0    0  0.17458860426E+02  0.67239559697E+01  0.80974702425E+00  0.18726427355E+02  0.00000000000E+00 0. -1.
         11    1    3    3    0    0 -0.27997703521E+00 -0.61300317459E+01  0.57076462403E+01  0.83805072765E+01  0.51100000000E-03 0. -1.
        -11    1    3    3    0    0 -0.59583902971E+01 -0.68729649490E+01  0.26835685049E+02  0.28335385200E+02  0.51100000000E-03 0.  1.
         12    1    3    3    0    0 -0.11220493093E+02  0.62790407252E+01 -0.33353078314E+02  0.35745680168E+02  0.00000000000E+00 0. -1.
</event>
<event>
 7    1  0.2153242E-013  0.7246158E+02  0.7816164E-02  0.1226708E+00
        -11   -1    0    0    0    0  0.00000000000E+00  0.00000000000E+00  0.45593999997E+02  0.45594000000E+02  0.51100000000E-03 0. -1.
         11   -1    0    0    0    0 -0.00000000000E+00 -0.00000000000E+00 -0.45593999997E+02  0.45594000000E+02  0.51100000000E-03 0.  1.
    9900012    2    1    2    0    0  0.80256898434E+01 -0.89577029821E+01 -0.14353632601E+02  0.72461577250E+02  0.70000009061E+02 0.  0.
         12    1    1    2    0    0 -0.80256898434E+01  0.89577029821E+01  0.14353632601E+02  0.18726422750E+02  0.00000000000E+00 0. -1.
         11    1    3    3    0    0  0.31226111427E+01  0.10194862882E+02  0.16906106939E+02  0.19987555669E+02  0.51100000000E-03 0. -1.
        -11    1    3    3    0    0  0.10129762428E+02 -0.23342693430E+02 -0.57340664575E+01  0.26083959473E+02  0.51100000000E-03 0.  1.
        -12    1    3    3    0    0 -0.52266837271E+01  0.41901275659E+01 -0.25525673082E+02  0.26390062108E+02  0.00000000000E+00 0.  1.
</event>
<event>
 7    1  0.2153242E-013  0.7246160E+02  0.7816164E-02  0.1226708E+00
        -11   -1    0    0    0    0  0.00000000000E+00  0.00000000000E+00  0.45593999997E+02  0.45594000000E+02  0.51100000000E-03 0.  1.
         11   -1    0    0    0    0 -0.00000000000E+00 -0.00000000000E+00 -0.45593999997E+02  0.45594000000E+02  0.51100000000E-03 0. -1.
    9900012    2    1    2    0    0  0.18244285742E+02  0.11440040341E+01 -0.40639088560E+01  0.72461599848E+02  0.70000038499E+02 0.  0.
         12    1    1    2    0    0 -0.18244285742E+02 -0.11440040341E+01  0.40639088560E+01  0.18726400152E+02  0.00000000000E+00 0. -1.
         11    1    3    3    0    0 -0.99590408310E+01 -0.62597402406E+01 -0.29528551425E+01  0.12127909791E+02  0.51100000000E-03 0. -1.
        -11    1    3    3    0    0  0.14332259281E+02  0.24900704717E+02  0.15368110610E+02  0.32582780353E+02  0.51100000000E-03 0.  1.
         12    1    3    3    0    0  0.13871067293E+02 -0.17496960443E+02 -0.16479164324E+02  0.27750909704E+02  0.00000000000E+00 0. -1.
</event>
<event>
 7    1  0.2153242E-013  0.7246154E+02  0.7816164E-02  0.1226708E+00
        -11   -1    0    0    0    0  0.00000000000E+00  0.00000000000E+00  0.45593999997E+02  0.45594000000E+02  0.51100000000E-03 0.  1.
         11   -1    0    0    0    0 -0.00000000000E+00 -0.00000000000E+00 -0.45593999997E+02  0.45594000000E+02  0.51100000000E-03 0. -1.
    9900012    2    1    2    0    0  0.15957441932E+02 -0.10901956058E+01  0.97391882870E+01  0.72461540966E+02  0.69999961794E+02 0.  0.
         12    1    1    2    0    0 -0.15957441932E+02  0.10901956058E+01 -0.97391882870E+01  0.18726459034E+02  0.00000000000E+00 0. -1.
         11    1    3    3    0    0 -0.74905156606E+01 -0.77908554816E+01 -0.53459256557E+01  0.12057536041E+02  0.51100000000E-03 0. -1.
        -11    1    3    3    0    0  0.38248022841E+02 -0.44323111135E+01  0.16370554133E+02  0.41839594595E+02  0.51100000000E-03 0.  1.
        -12    1    3    3    0    0 -0.14800065248E+02  0.11132970989E+02 -0.12854401900E+01  0.18564410330E+02  0.00000000000E+00 0.  1.
</event>
<event>
 7    1  0.2153242E-013  0.7246155E+02  0.7816164E-02  0.1226708E+00
        -11   -1    0    0    0    0  0.00000000000E+00  0.00000000000E+00  0.45593999997E+02  0.45594000000E+02  0.51100000000E-03 0.  1.
         11   -1    0    0    0    0 -0.00000000000E+00 -0.00000000000E+00 -0.45593999997E+02  0.45594000000E+02  0.51100000000E-03 0. -1.
    9900012    2    1    2    0    0  0.96673622543E+00  0.18515496042E+02  0.26309496794E+01  0.72461546283E+02  0.69999968721E+02 0.  0.
         12    1    1    2    0    0 -0.96673622543E+00 -0.18515496042E+02 -0.26309496794E+01  0.18726453717E+02  0.00000000000E+00 0. -1.
         11    1    3    3    0    0  0.12871026727E+02 -0.15883726993E+02 -0.15267831036E+02  0.25515931828E+02  0.51100000000E-03 0. -1.
        -11    1    3    3    0    0 -0.43225824058E+01 -0.25615672277E+01  0.49548028299E+01  0.70566576126E+01  0.51100000000E-03 0.  1.
        -12    1    3    3    0    0 -0.75817080961E+01  0.36960790263E+02  0.12943977886E+02  0.39888956843E+02  0.00000000000E+00 0.  1.
</event>
<event>
 7    1  0.2311428E-013  0.7246156E+02  0.7816164E-02  0.1226708E+00
        -11   -1    0    0    0    0  0.00000000000E+00  0.00000000000E+00  0.45593999997E+02  0.45594000000E+02  0.51100000000E-03 0.  1.
         11   -1    0    0    0    0 -0.00000000000E+00 -0.00000000000E+00 -0.45593999997E+02  0.45594000000E+02  0.51100000000E-03 0. -1.
    9900012    2    1    2    0    0  0.18712807391E+02 -0.70901532784E+00 -0.88472809431E-01  0.72461556381E+02  0.69999981876E+02 0.  0.
         12    1    1    2    0    0 -0.18712807391E+02  0.70901532784E+00  0.88472809431E-01  0.18726443619E+02  0.00000000000E+00 0. -1.
         11    1    3    3    0    0  0.36620877893E+01 -0.35398646151E+00  0.11159604343E+02  0.11750445214E+02  0.51100000000E-03 0. -1.
        -11    1    3    3    0    0  0.36190621585E+02 -0.99434448360E+00  0.10995054397E+01  0.36220970779E+02  0.51100000000E-03 0.  1.
         12    1    3    3    0    0 -0.21139901984E+02  0.63931561727E+00 -0.12347582592E+02  0.24490140388E+02  0.00000000000E+00 0. -1.
</event>
<event>
 7    1  0.2153242E-013  0.7246152E+02  0.7816164E-02  0.1226708E+00
        -11   -1    0    0    0    0  0.00000000000E+00  0.00000000000E+00  0.45593999997E+02  0.45594000000E+02  0.51100000000E-03 0.  1.
         11   -1    0    0    0    0 -0.00000000000E+00 -0.00000000000E+00 -0.45593999997E+02  0.45594000000E+02  0.51100000000E-03 0. -1.
    9900012    2    1    2    0    0 -0.97298390273E+01 -0.28337325475E+01  0.15747425362E+02  0.72461515728E+02  0.69999928917E+02 0.  0.
         12    1    1    2    0    0  0.97298390273E+01  0.28337325475E+01 -0.15747425362E+02  0.18726484272E+02  0.00000000000E+00 0. -1.
         11    1    3    3    0    0  0.18691268348E+02 -0.13056888649E+02  0.13911168923E+02  0.26708921256E+02  0.51100000000E-03 0. -1.
        -11    1    3    3    0    0  0.35291547895E+01 -0.63601865389E+01  0.61136447950E+01  0.95017661137E+01  0.51100000000E-03 0.  1.
        -12    1    3    3    0    0 -0.31950262164E+02  0.16583342640E+02 -0.42773883557E+01  0.36250828358E+02  0.00000000000E+00 0.  1.
</event>
<event>
 7    1  0.2153242E-013  0.7246155E+02  0.7816164E-02  0.1226708E+00
        -11   -1    0    0    0    0  0.00000000000E+00  0.00000000000E+00  0.45593999997E+02  0.45594000000E+02  0.51100000000E-03 0. -1.
         11   -1    0    0    0    0 -0.00000000000E+00 -0.00000000000E+00 -0.45593999997E+02  0.45594000000E+02  0.51100000000E-03 0.  1.
    9900012    2    1    2    0    0  0.17516107922E+02  0.66201070878E+01  0.20028269880E+00  0.72461548982E+02  0.69999972237E+02 0.  0.
         12    1    1    2    0    0 -0.17516107922E+02 -0.66201070878E+01 -0.20028269880E+00  0.18726451018E+02  0.00000000000E+00 0. -1.
         11    1    3    3    0    0 -0.27137425862E+01 -0.25391728475E+02 -0.92119295067E+00  0.25552942501E+02  0.51100000000E-03 0. -1.
        -11    1    3    3    0    0 -0.95383375310E+00 -0.12306077228E+01  0.68959340033E+01  0.70695190950E+01  0.51100000000E-03 0.  1.
        -12    1    3    3    0    0  0.21183684261E+02  0.33242443285E+02 -0.57744583538E+01  0.39839087386E+02  0.00000000000E+00 0.  1.
</event>
<event>
 7    1  0.2153242E-013  0.7246152E+02  0.7816164E-02  0.1226708E+00
        -11   -1    0    0    0    0  0.00000000000E+00  0.00000000000E+00  0.45593999997E+02  0.45594000000E+02  0.51100000000E-03 0. -1.
         11   -1    0    0    0    0 -0.00000000000E+00 -0.00000000000E+00 -0.45593999997E+02  0.45594000000E+02  0.51100000000E-03 0.  1.
    9900012    2    1    2    0    0 -0.79518711950E+01 -0.56116635934E+01 -0.15998683254E+02  0.72461524367E+02  0.69999940171E+02 0.  0.
         12    1    1    2    0    0  0.79518711950E+01  0.56116635934E+01  0.15998683254E+02  0.18726475633E+02  0.00000000000E+00 0. -1.
         11    1    3    3    0    0 -0.47184181299E+01 -0.18891998463E+02 -0.31886927085E+02  0.37362376728E+02  0.51100000000E-03 0.  1.
        -11    1    3    3    0    0 -0.74595771817E+00 -0.88017912821E+01  0.26030011918E+01  0.92088869119E+01  0.51100000000E-03 0. -1.
        -12    1    3    3    0    0 -0.24874953469E+01  0.22082126152E+02  0.13285242640E+02  0.25890260727E+02  0.00000000000E+00 0.  1.
</event>
<event>
 7    1  0.2153242E-013  0.7246155E+02  0.7816164E-02  0.1226708E+00
        -11   -1    0    0    0    0  0.00000000000E+00  0.00000000000E+00  0.45593999997E+02  0.45594000000E+02  0.51100000000E-03 0.  1.
         11   -1    0    0    0    0 -0.00000000000E+00 -0.00000000000E+00 -0.45593999997E+02  0.45594000000E+02  0.51100000000E-03 0. -1.
    9900012    2    1    2    0    0 -0.55931004742E+01 -0.24443606420E+01  0.17703730973E+02  0.72461554469E+02  0.69999979384E+02 0.  0.
         12    1    1    2    0    0  0.55931004742E+01  0.24443606420E+01 -0.17703730973E+02  0.18726445531E+02  0.00000000000E+00 0. -1.
         11    1    3    3    0    0 -0.11267863234E+02 -0.11752733933E+02 -0.46658115792E+01  0.16936980094E+02  0.51100000000E-03 0. -1.
        -11    1    3    3    0    0 -0.16668922536E+02  0.19199426375E+02  0.16763502756E+02  0.30454654432E+02  0.51100000000E-03 0.  1.
         12    1    3    3    0    0  0.22343685296E+02 -0.98910530844E+01  0.56060397963E+01  0.25069919942E+02  0.00000000000E+00 0. -1.
</event>
<event>
 7    1  0.2153242E-013  0.7246149E+02  0.7816164E-02  0.1226708E+00
        -11   -1    0    0    0    0  0.00000000000E+00  0.00000000000E+00  0.45593999997E+02  0.45594000000E+02  0.51100000000E-03 0. -1.
         11   -1    0    0    0    0 -0.00000000000E+00 -0.00000000000E+00 -0.45593999997E+02  0.45594000000E+02  0.51100000000E-03 0.  1.
    9900012    2    1    2    0    0 -0.60344572685E+01  0.17824089019E+01 -0.17637755808E+02  0.72461492425E+02  0.69999898561E+02 0.  0.
         12    1    1    2    0    0  0.60344572685E+01 -0.17824089019E+01  0.17637755808E+02  0.18726507575E+02  0.00000000000E+00 0. -1.
         11    1    3    3    0    0  0.55490200720E+01  0.17399326492E+02  0.10596132422E+01  0.18293467867E+02  0.51100000000E-03 0. -1.
        -11    1    3    3    0    0  0.32798662499E+01 -0.72739082628E+01  0.14669832548E+02  0.16699438652E+02  0.51100000000E-03 0.  1.
        -12    1    3    3    0    0 -0.14863343590E+02 -0.83430093271E+01 -0.33367201598E+02  0.37468585906E+02  0.00000000000E+00 0.  1.
</event>
<event>
 7    1  0.2153242E-013  0.7246160E+02  0.7816164E-02  0.1226708E+00
        -11   -1    0    0    0    0  0.00000000000E+00  0.00000000000E+00  0.45593999997E+02  0.45594000000E+02  0.51100000000E-03 0. -1.
         11   -1    0    0    0    0 -0.00000000000E+00 -0.00000000000E+00 -0.45593999997E+02  0.45594000000E+02  0.51100000000E-03 0.  1.
    9900012    2    1    2    0    0  0.11067715713E+02 -0.55617756367E+01  0.14044590972E+02  0.72461595783E+02  0.70000033204E+02 0.  0.
         12    1    1    2    0    0 -0.11067715713E+02  0.55617756367E+01 -0.14044590972E+02  0.18726404217E+02  0.00000000000E+00 0. -1.
         11    1    3    3    0    0  0.10147760713E+02 -0.12774108156E+02  0.27694558575E+02  0.32142549084E+02  0.51100000000E-03 0. -1.
        -11    1    3    3    0    0  0.65032916577E+00 -0.83522568813E+01  0.93450106494E+01  0.12550392318E+02  0.51100000000E-03 0.  1.
        -12    1    3    3    0    0  0.26962583380E+00  0.15564589401E+02 -0.22994978253E+02  0.27768654381E+02  0.00000000000E+00 0.  1.
</event>
<event>
 7    1  0.2153242E-013  0.7246182E+02  0.7816164E-02  0.1226707E+00
        -11   -1    0    0    0    0  0.00000000000E+00  0.00000000000E+00  0.45593999997E+02  0.45594000000E+02  0.51100000000E-03 0.  1.
         11   -1    0    0    0    0 -0.00000000000E+00 -0.00000000000E+00 -0.45593999997E+02  0.45594000000E+02  0.51100000000E-03 0. -1.
    9900012    2    1    2    0    0  0.11171651701E+02  0.11002467900E+02  0.10237669290E+02  0.72461815815E+02  0.70000319836E+02 0.  0.
         12    1    1    2    0    0 -0.11171651701E+02 -0.11002467900E+02 -0.10237669290E+02  0.18726184185E+02  0.00000000000E+00 0. -1.
         11    1    3    3    0    0  0.32477979682E+01 -0.87753181425E+01 -0.99819014434E+01  0.13681840404E+02  0.51100000000E-03 0. -1.
        -11    1    3    3    0    0  0.28886538574E+02  0.44604407739E+01  0.10919038057E+02  0.31201811406E+02  0.51100000000E-03 0.  1.
         12    1    3    3    0    0 -0.20962684841E+02  0.15317345269E+02  0.93005326771E+01  0.27578164006E+02  0.00000000000E+00 0. -1.
</event>
<event>
 7    1  0.2153242E-013  0.7246161E+02  0.7816164E-02  0.1226708E+00
        -11   -1    0    0    0    0  0.00000000000E+00  0.00000000000E+00  0.45593999997E+02  0.45594000000E+02  0.51100000000E-03 0.  1.
         11   -1    0    0    0    0 -0.00000000000E+00 -0.00000000000E+00 -0.45593999997E+02  0.45594000000E+02  0.51100000000E-03 0. -1.
    9900012    2    1    2    0    0  0.69823714609E+01 -0.12655598797E+02  0.11906301646E+02  0.72461609237E+02  0.70000050730E+02 0.  0.
         12    1    1    2    0    0 -0.69823714609E+01  0.12655598797E+02 -0.11906301646E+02  0.18726390763E+02  0.00000000000E+00 0. -1.
         11    1    3    3    0    0  0.46963550659E+01 -0.14385038315E+02 -0.33951709591E+01  0.15508457832E+02  0.51100000000E-03 0. -1.
        -11    1    3    3    0    0  0.93741856516E+01 -0.13823503325E+02  0.30048597511E+02  0.34378522560E+02  0.51100000000E-03 0.  1.
         12    1    3    3    0    0 -0.70881692567E+01  0.15552942843E+02 -0.14747124906E+02  0.22574628844E+02  0.00000000000E+00 0. -1.
</event>
<event>
 7    1  0.2153242E-013  0.7246160E+02  0.7816164E-02  0.1226708E+00
        -11   -1    0    0    0    0  0.00000000000E+00  0.00000000000E+00  0.45593999997E+02  0.45594000000E+02  0.51100000000E-03 0.  1.
         11   -1    0    0    0    0 -0.00000000000E+00 -0.00000000000E+00 -0.45593999997E+02  0.45594000000E+02  0.51100000000E-03 0. -1.
    9900012    2    1    2    0    0  0.15353817544E+02 -0.91090315278E+01 -0.56536695051E+01  0.72461597584E+02  0.70000035550E+02 0.  0.
         12    1    1    2    0    0 -0.15353817544E+02  0.91090315278E+01  0.56536695051E+01  0.18726402416E+02  0.00000000000E+00 0. -1.
         11    1    3    3    0    0  0.67573710410E+01 -0.12532892972E+01 -0.16141563934E+02  0.17543742016E+02  0.51100000000E-03 0. -1.
        -11    1    3    3    0    0  0.29042972817E+02 -0.42762495564E+01 -0.39674580874E+01  0.29622986079E+02  0.51100000000E-03 0.  1.
        -12    1    3    3    0    0 -0.20446526314E+02 -0.35794926741E+01  0.14455352516E+02  0.25294869489E+02  0.00000000000E+00 0.  1.
</event>
<event>
 7    1  0.2153242E-013  0.7246156E+02  0.7816164E-02  0.1226708E+00
        -11   -1    0    0    0    0  0.00000000000E+00  0.00000000000E+00  0.45593999997E+02  0.45594000000E+02  0.51100000000E-03 0. -1.
         11   -1    0    0    0    0 -0.00000000000E+00 -0.00000000000E+00 -0.45593999997E+02  0.45594000000E+02  0.51100000000E-03 0.  1.
    9900012    2    1    2    0    0  0.33460555605E+01 -0.18178081230E+02 -0.30067734010E+01  0.72461563839E+02  0.69999991591E+02 0.  0.
         12    1    1    2    0    0 -0.33460555605E+01  0.18178081230E+02  0.30067734010E+01  0.18726436161E+02  0.00000000000E+00 0. -1.
         11    1    3    3    0    0  0.19539427934E+02 -0.19326188351E+02  0.10190387603E+02  0.29311001346E+02  0.51100000000E-03 0. -1.
        -11    1    3    3    0    0 -0.26830026491E+02  0.12733300049E+00 -0.88057404458E+00  0.26844775025E+02  0.51100000000E-03 0.  1.
        -12    1    3    3    0    0  0.10636654118E+02  0.10207741209E+01 -0.12316586959E+02  0.16305787468E+02  0.00000000000E+00 0.  1.
</event>
<event>
 7    1  0.2153242E-013  0.7246155E+02  0.7816164E-02  0.1226708E+00
        -11   -1    0    0    0    0  0.00000000000E+00  0.00000000000E+00  0.45593999997E+02  0.45594000000E+02  0.51100000000E-03 0.  1.
         11   -1    0    0    0    0 -0.00000000000E+00 -0.00000000000E+00 -0.45593999997E+02  0.45594000000E+02  0.51100000000E-03 0. -1.
    9900012    2    1    2    0    0 -0.13150605759E+01  0.17327561460E+00  0.18679409911E+02  0.72461554438E+02  0.69999979344E+02 0.  0.
         12    1    1    2    0    0  0.13150605759E+01 -0.17327561460E+00 -0.18679409911E+02  0.18726445562E+02  0.00000000000E+00 0. -1.
         11    1    3    3    0    0 -0.73099363741E+01  0.19083715368E+01 -0.73715100063E+01  0.10555387807E+02  0.51100000000E-03 0. -1.
        -11    1    3    3    0    0 -0.19694827140E+02  0.59686500546E+01 -0.46932165783E+01  0.21107754064E+02  0.51100000000E-03 0.  1.
        -12    1    3    3    0    0  0.25689702938E+02 -0.77037459767E+01  0.30744136496E+02  0.40798412567E+02  0.00000000000E+00 0.  1.
</event>
<event>
 7    1  0.2153242E-013  0.7246157E+02  0.7816164E-02  0.1226708E+00
        -11   -1    0    0    0    0  0.00000000000E+00  0.00000000000E+00  0.45593999997E+02  0.45594000000E+02  0.51100000000E-03 0. -1.
         11   -1    0    0    0    0 -0.00000000000E+00 -0.00000000000E+00 -0.45593999997E+02  0.45594000000E+02  0.51100000000E-03 0.  1.
    9900012    2    1    2    0    0  0.63595705014E-01  0.18348965008E+02 -0.37403793790E+01  0.72461574842E+02  0.70000005925E+02 0.  0.
         12    1    1    2    0    0 -0.63595705014E-01 -0.18348965008E+02  0.37403793790E+01  0.18726425158E+02  0.00000000000E+00 0. -1.
         11    1    3    3    0    0 -0.63611177782E+01 -0.52923303060E+01  0.19956755070E+02  0.21604273944E+02  0.51100000000E-03 0. -1.
        -11    1    3    3    0    0 -0.14671983382E+02  0.17866336350E+02 -0.12640753416E+02  0.26348846618E+02  0.51100000000E-03 0.  1.
        -12    1    3    3    0    0  0.21096696865E+02  0.57749589645E+01 -0.11056381032E+02  0.24508454280E+02  0.00000000000E+00 0.  1.
</event>
<event>
 7    1  0.2153242E-013  0.7246156E+02  0.7816164E-02  0.1226708E+00
        -11   -1    0    0    0    0  0.00000000000E+00  0.00000000000E+00  0.45593999997E+02  0.45594000000E+02  0.51100000000E-03 0. -1.
         11   -1    0    0    0    0 -0.00000000000E+00 -0.00000000000E+00 -0.45593999997E+02  0.45594000000E+02  0.51100000000E-03 0.  1.
    9900012    2    1    2    0    0  0.50525564184E+01  0.15405913394E+02 -0.93706483468E+01  0.72461560287E+02  0.69999986964E+02 0.  0.
         12    1    1    2    0    0 -0.50525564184E+01 -0.15405913394E+02  0.93706483468E+01  0.18726439713E+02  0.00000000000E+00 0. -1.
         11    1    3    3    0    0 -0.19215141728E+02  0.28082824907E+01 -0.14102171297E+02  0.23999569949E+02  0.51100000000E-03 0. -1.
        -11    1    3    3    0    0  0.43453625323E+01  0.22575135656E+01 -0.16714889999E+02  0.17417407699E+02  0.51100000000E-03 0.  1.
         12    1    3    3    0    0  0.19922335614E+02  0.10340117338E+02  0.21446412948E+02  0.31044582639E+02  0.00000000000E+00 0. -1.
</event>
<event>
 7    1  0.2153242E-013  0.7246153E+02  0.7816164E-02  0.1226708E+00
        -11   -1    0    0    0    0  0.00000000000E+00  0.00000000000E+00  0.45593999997E+02  0.45594000000E+02  0.51100000000E-03 0. -1.
         11   -1    0    0    0    0 -0.00000000000E+00 -0.00000000000E+00 -0.45593999997E+02  0.45594000000E+02  0.51100000000E-03 0.  1.
    9900012    2    1    2    0    0 -0.84313576384E+01  0.13968594141E+02 -0.91908291835E+01  0.72461527962E+02  0.69999944855E+02 0.  0.
         12    1    1    2    0    0  0.84313576384E+01 -0.13968594141E+02  0.91908291835E+01  0.18726472038E+02  0.00000000000E+00 0. -1.
         11    1    3    3    0    0 -0.56012216402E+01  0.27904285945E+02  0.99494481251E+01  0.30149865277E+02  0.51100000000E-03 0. -1.
        -11    1    3    3    0    0 -0.72348716598E+01  0.63313733996E+01  0.47092102849E+01  0.10705434079E+02  0.51100000000E-03 0.  1.
        -12    1    3    3    0    0  0.44047356616E+01 -0.20267065204E+02 -0.23849487593E+02  0.31606228606E+02  0.00000000000E+00 0.  1.
</event>
<event>
 7    1  0.2153242E-013  0.7246162E+02  0.7816164E-02  0.1226708E+00
        -11   -1    0    0    0    0  0.00000000000E+00  0.00000000000E+00  0.45593999997E+02  0.45594000000E+02  0.51100000000E-03 0.  1.
         11   -1    0    0    0    0 -0.00000000000E+00 -0.00000000000E+00 -0.45593999997E+02  0.45594000000E+02  0.51100000000E-03 0. -1.
    9900012    2    1    2    0    0 -0.81228046889E-02  0.10923020111E+02 -0.15210679354E+02  0.72461622861E+02  0.70000068478E+02 0.  0.
         12    1    1    2    0    0  0.81228046889E-02 -0.10923020111E+02  0.15210679354E+02  0.18726377139E+02  0.00000000000E+00 0. -1.
         11    1    3    3    0    0 -0.23674073564E+02 -0.20544277961E+00 -0.59587278135E+01  0.24413324297E+02  0.51100000000E-03 0. -1.
        -11    1    3    3    0    0 -0.95602969619E+01 -0.40361502458E+01 -0.24397951179E-01  0.10377397666E+02  0.51100000000E-03 0.  1.
        -12    1    3    3    0    0  0.33226247721E+02  0.15164613137E+02 -0.92275535890E+01  0.37670900898E+02  0.00000000000E+00 0.  1.
</event>
<event>
 7    1  0.2153242E-013  0.7246158E+02  0.7816164E-02  0.1226708E+00
        -11   -1    0    0    0    0  0.00000000000E+00  0.00000000000E+00  0.45593999997E+02  0.45594000000E+02  0.51100000000E-03 0.  1.
         11   -1    0    0    0    0 -0.00000000000E+00 -0.00000000000E+00 -0.45593999997E+02  0.45594000000E+02  0.51100000000E-03 0. -1.
    9900012    2    1    2    0    0 -0.15081760079E+01  0.14251843360E+02  0.12053596763E+02  0.72461579387E+02  0.70000011846E+02 0.  0.
         12    1    1    2    0    0  0.15081760079E+01 -0.14251843360E+02 -0.12053596763E+02  0.18726420613E+02  0.00000000000E+00 0. -1.
         11    1    3    3    0    0 -0.15428576824E+01 -0.25309645916E+00 -0.91713171777E+01  0.93036297584E+01  0.51100000000E-03 0. -1.
        -11    1    3    3    0    0  0.20494718657E+02 -0.11081155871E+02  0.19448542250E+02  0.30349156564E+02  0.51100000000E-03 0.  1.
         12    1    3    3    0    0 -0.20460036983E+02  0.25586095690E+02  0.17763716916E+01  0.32808793065E+02  0.00000000000E+00 0. -1.
</event>
<event>
 7    1  0.2153242E-013  0.7246158E+02  0.7816164E-02  0.1226708E+00
        -11   -1    0    0    0    0  0.00000000000E+00  0.00000000000E+00  0.45593999997E+02  0.45594000000E+02  0.51100000000E-03 0.  1.
         11   -1    0    0    0    0 -0.00000000000E+00 -0.00000000000E+00 -0.45593999997E+02  0.45594000000E+02  0.51100000000E-03 0. -1.
    9900012    2    1    2    0    0 -0.16987519589E+02  0.69507722352E+01  0.37134373293E+01  0.72461583545E+02  0.70000017261E+02 0.  0.
         12    1    1    2    0    0  0.16987519589E+02 -0.69507722352E+01 -0.37134373293E+01  0.18726416455E+02  0.00000000000E+00 0. -1.
         11    1    3    3    0    0 -0.13828488713E+00  0.22754653149E+02 -0.16174471816E+02  0.27917859900E+02  0.51100000000E-03 0. -1.
        -11    1    3    3    0    0 -0.16308701418E+02 -0.29070823546E+01 -0.43108343227E+01  0.17117481198E+02  0.51100000000E-03 0.  1.
        -12    1    3    3    0    0 -0.54053328416E+00 -0.12896798559E+02  0.24198743468E+02  0.27426242446E+02  0.00000000000E+00 0.  1.
</event>
<event>
 7    1  0.2153242E-013  0.7246154E+02  0.7816164E-02  0.1226708E+00
        -11   -1    0    0    0    0  0.00000000000E+00  0.00000000000E+00  0.45593999997E+02  0.45594000000E+02  0.51100000000E-03 0.  1.
         11   -1    0    0    0    0 -0.00000000000E+00 -0.00000000000E+00 -0.45593999997E+02  0.45594000000E+02  0.51100000000E-03 0. -1.
    9900012    2    1    2    0    0 -0.29463326902E+01  0.18375312328E+02 -0.20850328163E+01  0.72461539008E+02  0.69999959243E+02 0.  0.
         12    1    1    2    0    0  0.29463326902E+01 -0.18375312328E+02  0.20850328163E+01  0.18726460992E+02  0.00000000000E+00 0. -1.
         11    1    3    3    0    0 -0.19402531908E+02 -0.51241811294E+01 -0.12824724839E+02  0.23815731023E+02  0.51100000000E-03 0. -1.
        -11    1    3    3    0    0 -0.59500340088E+01 -0.44384741239E+01 -0.55831556187E+01  0.92884112839E+01  0.51100000000E-03 0.  1.
        -12    1    3    3    0    0  0.22406233227E+02  0.27937967581E+02  0.16322847641E+02  0.39357396701E+02  0.00000000000E+00 0.  1.
</event>
<event>
 7    1  0.2153242E-013  0.7246154E+02  0.7816164E-02  0.1226708E+00
        -11   -1    0    0    0    0  0.00000000000E+00  0.00000000000E+00  0.45593999997E+02  0.45594000000E+02  0.51100000000E-03 0. -1.
         11   -1    0    0    0    0 -0.00000000000E+00 -0.00000000000E+00 -0.45593999997E+02  0.45594000000E+02  0.51100000000E-03 0.  1.
    9900012    2    1    2    0    0  0.11379677613E+02  0.13275835898E+02  0.67033973369E+01  0.72461536981E+02  0.69999956603E+02 0.  0.
         12    1    1    2    0    0 -0.11379677613E+02 -0.13275835898E+02 -0.67033973369E+01  0.18726463019E+02  0.00000000000E+00 0. -1.
         11    1    3    3    0    0  0.35030353749E+02  0.10668419632E+02  0.17723455075E+02  0.40682449795E+02  0.51100000000E-03 0. -1.
        -11    1    3    3    0    0  0.21624698652E+01  0.85673084189E+00  0.17652449579E+01  0.29199920678E+01  0.51100000000E-03 0.  1.
        -12    1    3    3    0    0 -0.25813146002E+02  0.17506854238E+01 -0.12785302696E+02  0.28859095118E+02  0.00000000000E+00 0.  1.
</event>
<event>
 7    1  0.2153242E-013  0.7246156E+02  0.7816164E-02  0.1226708E+00
        -11   -1    0    0    0    0  0.00000000000E+00  0.00000000000E+00  0.45593999997E+02  0.45594000000E+02  0.51100000000E-03 0. -1.
         11   -1    0    0    0    0 -0.00000000000E+00 -0.00000000000E+00 -0.45593999997E+02  0.45594000000E+02  0.51100000000E-03 0.  1.
    9900012    2    1    2    0    0 -0.15394689095E+01 -0.92967057807E+01 -0.16182731288E+02  0.72461561608E+02  0.69999988684E+02 0.  0.
         12    1    1    2    0    0  0.15394689095E+01  0.92967057807E+01  0.16182731288E+02  0.18726438392E+02  0.00000000000E+00 0. -1.
         11    1    3    3    0    0 -0.63549317026E+01 -0.98600226422E+01  0.29789343399E+01  0.12102861377E+02  0.51100000000E-03 0. -1.
        -11    1    3    3    0    0  0.27745067728E+02  0.56552443435E+01  0.24753328944E+01  0.28423543851E+02  0.51100000000E-03 0.  1.
         12    1    3    3    0    0 -0.22929604935E+02 -0.50919274821E+01 -0.21636998523E+02  0.31935156380E+02  0.00000000000E+00 0. -1.
</event>
<event>
 7    1  0.2153242E-013  0.7246161E+02  0.7816164E-02  0.1226708E+00
        -11   -1    0    0    0    0  0.00000000000E+00  0.00000000000E+00  0.45593999997E+02  0.45594000000E+02  0.51100000000E-03 0.  1.
         11   -1    0    0    0    0 -0.00000000000E+00 -0.00000000000E+00 -0.45593999997E+02  0.45594000000E+02  0.51100000000E-03 0. -1.
    9900012    2    1    2    0    0 -0.38084209367E+01  0.22729646317E+01  0.18193603945E+02  0.72461610526E+02  0.70000052409E+02 0.  0.
         12    1    1    2    0    0  0.38084209367E+01 -0.22729646317E+01 -0.18193603945E+02  0.18726389474E+02  0.00000000000E+00 0. -1.
         11    1    3    3    0    0  0.20040873144E+02 -0.20279903487E+01  0.12349082943E+02  0.23627297581E+02  0.51100000000E-03 0. -1.
        -11    1    3    3    0    0  0.11020826923E+02 -0.22937609173E+01 -0.40978238396E+01  0.11979654657E+02  0.51100000000E-03 0.  1.
        -12    1    3    3    0    0 -0.34870121003E+02  0.65947158976E+01  0.99423448415E+01  0.36854658288E+02  0.00000000000E+00 0.  1.
</event>
<event>
 7    1  0.2153242E-013  0.7246156E+02  0.7816164E-02  0.1226708E+00
        -11   -1    0    0    0    0  0.00000000000E+00  0.00000000000E+00  0.45593999997E+02  0.45594000000E+02  0.51100000000E-03 0. -1.
         11   -1    0    0    0    0 -0.00000000000E+00 -0.00000000000E+00 -0.45593999997E+02  0.45594000000E+02  0.51100000000E-03 0.  1.
    9900012    2    1    2    0    0 -0.11897395785E+02  0.14123347029E+02  0.31084509272E+01  0.72461563475E+02  0.69999991117E+02 0.  0.
         12    1    1    2    0    0  0.11897395785E+02 -0.14123347029E+02 -0.31084509272E+01  0.18726436525E+02  0.00000000000E+00 0. -1.
         11    1    3    3    0    0  0.95688194667E+01  0.17141861523E+02  0.15643819405E+01  0.19693984198E+02  0.51100000000E-03 0. -1.
        -11    1    3    3    0    0 -0.92845126382E+01 -0.24245152573E+01  0.24753733703E+02  0.26548592838E+02  0.51100000000E-03 0.  1.
         12    1    3    3    0    0 -0.12181702613E+02 -0.59399923729E+00 -0.23209664717E+02  0.26218986439E+02  0.00000000000E+00 0. -1.
</event>
<event>
 7    1  0.2153242E-013  0.7246172E+02  0.7816164E-02  0.1226708E+00
        -11   -1    0    0    0    0  0.00000000000E+00  0.00000000000E+00  0.45593999997E+02  0.45594000000E+02  0.51100000000E-03 0.  1.
         11   -1    0    0    0    0 -0.00000000000E+00 -0.00000000000E+00 -0.45593999997E+02  0.45594000000E+02  0.51100000000E-03 0. -1.
    9900012    2    1    2    0    0 -0.10039766461E+02  0.31194923053E+01 -0.15496621387E+02  0.72461723882E+02  0.70000200077E+02 0.  0.
         12    1    1    2    0    0  0.10039766461E+02 -0.31194923053E+01  0.15496621387E+02  0.18726276118E+02  0.00000000000E+00 0. -1.
         11    1    3    3    0    0 -0.33448708819E+01  0.18676100446E+02 -0.26845074185E+02  0.32873133366E+02  0.51100000000E-03 0. -1.
        -11    1    3    3    0    0 -0.14782346434E+02  0.51054129644E+01  0.32850215504E+01  0.15980437243E+02  0.51100000000E-03 0.  1.
         12    1    3    3    0    0  0.80874508547E+01 -0.20662021105E+02  0.80634312475E+01  0.23608153273E+02  0.00000000000E+00 0. -1.
</event>
<event>
 7    1  0.2153242E-013  0.7246150E+02  0.7816164E-02  0.1226708E+00
        -11   -1    0    0    0    0  0.00000000000E+00  0.00000000000E+00  0.45593999997E+02  0.45594000000E+02  0.51100000000E-03 0.  1.
         11   -1    0    0    0    0 -0.00000000000E+00 -0.00000000000E+00 -0.45593999997E+02  0.45594000000E+02  0.51100000000E-03 0. -1.
    9900012    2    1    2    0    0 -0.22377964350E+01 -0.18563404324E+02  0.10363871241E+01  0.72461499760E+02  0.69999908116E+02 0.  0.
         12    1    1    2    0    0  0.22377964350E+01  0.18563404324E+02 -0.10363871241E+01  0.18726500240E+02  0.00000000000E+00 0. -1.
         11    1    3    3    0    0  0.15369180285E+02  0.11083917788E+02  0.15297174501E+01  0.19010654168E+02  0.51100000000E-03 0. -1.
        -11    1    3    3    0    0  0.37976965347E+01 -0.79899026828E+01  0.16396144448E+02  0.18630474951E+02  0.51100000000E-03 0.  1.
         12    1    3    3    0    0 -0.21404673255E+02 -0.21657419429E+02 -0.16889474774E+02  0.34820370641E+02  0.00000000000E+00 0. -1.
</event>
<event>
 7    1  0.2153242E-013  0.7246158E+02  0.7816164E-02  0.1226708E+00
        -11   -1    0    0    0    0  0.00000000000E+00  0.00000000000E+00  0.45593999997E+02  0.45594000000E+02  0.51100000000E-03 0.  1.
         11   -1    0    0    0    0 -0.00000000000E+00 -0.00000000000E+00 -0.45593999997E+02  0.45594000000E+02  0.51100000000E-03 0. -1.
    9900012    2    1    2    0    0  0.93044391659E+01 -0.12593434950E+01  0.16202479598E+02  0.72461578042E+02  0.70000010093E+02 0.  0.
         12    1    1    2    0    0 -0.93044391659E+01  0.12593434950E+01 -0.16202479598E+02  0.18726421958E+02  0.00000000000E+00 0. -1.
         11    1    3    3    0    0  0.21350533272E+02 -0.14035327606E+01  0.14932268602E+02  0.26091911028E+02  0.51100000000E-03 0.  1.
        -11    1    3    3    0    0 -0.22587359923E+02 -0.64523149244E+01  0.14979776116E+02  0.27860633319E+02  0.51100000000E-03 0. -1.
         12    1    3    3    0    0  0.10541265817E+02  0.65965041901E+01 -0.13709565121E+02  0.18509033696E+02  0.00000000000E+00 0. -1.
</event>
<event>
 7    1  0.2153242E-013  0.7246192E+02  0.7816164E-02  0.1226707E+00
        -11   -1    0    0    0    0  0.00000000000E+00  0.00000000000E+00  0.45593999997E+02  0.45594000000E+02  0.51100000000E-03 0. -1.
         11   -1    0    0    0    0 -0.00000000000E+00 -0.00000000000E+00 -0.45593999997E+02  0.45594000000E+02  0.51100000000E-03 0.  1.
    9900012    2    1    2    0    0  0.19249609433E+01  0.61306259733E+01 -0.17589085678E+02  0.72461922342E+02  0.70000458606E+02 0.  0.
         12    1    1    2    0    0 -0.19249609433E+01 -0.61306259733E+01  0.17589085678E+02  0.18726077658E+02  0.00000000000E+00 0. -1.
         11    1    3    3    0    0 -0.16367006594E+02 -0.48113495938E+01 -0.17690814057E+01  0.17151024431E+02  0.51100000000E-03 0. -1.
        -11    1    3    3    0    0  0.24989626206E+02 -0.27243534747E+01 -0.26647373499E+02  0.36633127554E+02  0.51100000000E-03 0.  1.
         12    1    3    3    0    0 -0.66976586688E+01  0.13666329042E+02  0.10827369227E+02  0.18677770357E+02  0.00000000000E+00 0. -1.
</event>
<event>
 7    1  0.2153242E-013  0.7246154E+02  0.7816164E-02  0.1226708E+00
        -11   -1    0    0    0    0  0.00000000000E+00  0.00000000000E+00  0.45593999997E+02  0.45594000000E+02  0.51100000000E-03 0. -1.
         11   -1    0    0    0    0 -0.00000000000E+00 -0.00000000000E+00 -0.45593999997E+02  0.45594000000E+02  0.51100000000E-03 0.  1.
    9900012    2    1    2    0    0 -0.11627133652E+02  0.85822530008E+01 -0.11909454347E+02  0.72461537270E+02  0.69999956980E+02 0.  0.
         12    1    1    2    0    0  0.11627133652E+02 -0.85822530008E+01  0.11909454347E+02  0.18726462730E+02  0.00000000000E+00 0. -1.
         11    1    3    3    0    0 -0.32748269994E+02 -0.53250551162E+01  0.72892424720E+00  0.33186393754E+02  0.51100000000E-03 0. -1.
        -11    1    3    3    0    0 -0.55075111230E+01  0.59751883932E+01  0.12343716726E+01  0.82194421217E+01  0.51100000000E-03 0.  1.
        -12    1    3    3    0    0  0.26628647465E+02  0.79321197239E+01 -0.13872750267E+02  0.31055701395E+02  0.00000000000E+00 0.  1.
</event>
<event>
 7    1  0.2153242E-013  0.7246104E+02  0.7816164E-02  0.1226709E+00
        -11   -1    0    0    0    0  0.00000000000E+00  0.00000000000E+00  0.45593999997E+02  0.45594000000E+02  0.51100000000E-03 0. -1.
         11   -1    0    0    0    0 -0.00000000000E+00 -0.00000000000E+00 -0.45593999997E+02  0.45594000000E+02  0.51100000000E-03 0.  1.
    9900012    2    1    2    0    0 -0.20852246230E+01  0.72602328625E+01 -0.17135927975E+02  0.72461036271E+02  0.69999304332E+02 0.  0.
         12    1    1    2    0    0  0.20852246230E+01 -0.72602328625E+01  0.17135927975E+02  0.18726963729E+02  0.00000000000E+00 0. -1.
         11    1    3    3    0    0 -0.10654427291E+02 -0.16129646251E+01 -0.13870230109E+02  0.17564218153E+02  0.51100000000E-03 0. -1.
        -11    1    3    3    0    0  0.49377007203E+01  0.39985308029E+01 -0.28367070026E+02  0.29069912265E+02  0.51100000000E-03 0.  1.
         12    1    3    3    0    0  0.36315019473E+01  0.48746666847E+01  0.25101372160E+02  0.25826905854E+02  0.00000000000E+00 0. -1.
</event>
<event>
 7    1  0.2153242E-013  0.7246159E+02  0.7816164E-02  0.1226708E+00
        -11   -1    0    0    0    0  0.00000000000E+00  0.00000000000E+00  0.45593999997E+02  0.45594000000E+02  0.51100000000E-03 0. -1.
         11   -1    0    0    0    0 -0.00000000000E+00 -0.00000000000E+00 -0.45593999997E+02  0.45594000000E+02  0.51100000000E-03 0.  1.
    9900012    2    1    2    0    0  0.63678673796E+01 -0.16069391522E+02 -0.72044031008E+01  0.72461588093E+02  0.70000023187E+02 0.  0.
         12    1    1    2    0    0 -0.63678673796E+01  0.16069391522E+02  0.72044031008E+01  0.18726411907E+02  0.00000000000E+00 0. -1.
         11    1    3    3    0    0 -0.12281128849E+02  0.95655267290E+01 -0.44444129374E+01  0.16188830533E+02  0.51100000000E-03 0. -1.
        -11    1    3    3    0    0 -0.76800817660E+01 -0.17921888030E+01  0.14708491835E+02  0.16689377728E+02  0.51100000000E-03 0.  1.
        -12    1    3    3    0    0  0.26329077995E+02 -0.23842729448E+02 -0.17468481998E+02  0.39583379832E+02  0.00000000000E+00 0.  1.
</event>
<event>
 7    1  0.2153242E-013  0.7246154E+02  0.7816164E-02  0.1226708E+00
        -11   -1    0    0    0    0  0.00000000000E+00  0.00000000000E+00  0.45593999997E+02  0.45594000000E+02  0.51100000000E-03 0. -1.
         11   -1    0    0    0    0 -0.00000000000E+00 -0.00000000000E+00 -0.45593999997E+02  0.45594000000E+02  0.51100000000E-03 0.  1.
    9900012    2    1    2    0    0 -0.16995481573E+02 -0.57688890160E+01  0.53435958351E+01  0.72461535015E+02  0.69999954042E+02 0.  0.
         12    1    1    2    0    0  0.16995481573E+02  0.57688890160E+01 -0.53435958351E+01  0.18726464985E+02  0.00000000000E+00 0. -1.
         11    1    3    3    0    0 -0.81560205478E+00  0.85572731924E+01  0.30984766876E+01  0.91374334058E+01  0.51100000000E-03 0. -1.
        -11    1    3    3    0    0 -0.29703229779E+02  0.13249011422E+02  0.23800583835E+01  0.32611084636E+02  0.51100000000E-03 0.  1.
        -12    1    3    3    0    0  0.13523350261E+02 -0.27575173630E+02 -0.13493923594E+00  0.30713016973E+02  0.00000000000E+00 0.  1.
</event>
<event>
 7    1  0.2153242E-013  0.7246156E+02  0.7816164E-02  0.1226708E+00
        -11   -1    0    0    0    0  0.00000000000E+00  0.00000000000E+00  0.45593999997E+02  0.45594000000E+02  0.51100000000E-03 0.  1.
         11   -1    0    0    0    0 -0.00000000000E+00 -0.00000000000E+00 -0.45593999997E+02  0.45594000000E+02  0.51100000000E-03 0. -1.
    9900012    2    1    2    0    0 -0.65078623119E+01 -0.16857497802E+02  0.49144869084E+01  0.72461556515E+02  0.69999982050E+02 0.  0.
         12    1    1    2    0    0  0.65078623119E+01  0.16857497802E+02 -0.49144869084E+01  0.18726443485E+02  0.00000000000E+00 0. -1.
         11    1    3    3    0    0 -0.16325724931E+02 -0.18664154234E+02  0.42857086559E+01  0.25164404359E+02  0.51100000000E-03 0. -1.
        -11    1    3    3    0    0  0.14958619389E+02 -0.19827017458E+02  0.26065718956E+01  0.24973288382E+02  0.51100000000E-03 0.  1.
         12    1    3    3    0    0 -0.51407567697E+01  0.21633673889E+02 -0.19777936430E+01  0.22323863774E+02  0.00000000000E+00 0. -1.
</event>
<event>
 7    1  0.2153242E-013  0.7246158E+02  0.7816164E-02  0.1226708E+00
        -11   -1    0    0    0    0  0.00000000000E+00  0.00000000000E+00  0.45593999997E+02  0.45594000000E+02  0.51100000000E-03 0. -1.
         11   -1    0    0    0    0 -0.00000000000E+00 -0.00000000000E+00 -0.45593999997E+02  0.45594000000E+02  0.51100000000E-03 0.  1.
    9900012    2    1    2    0    0  0.83494479883E+01 -0.13807574449E+02 -0.95034921982E+01  0.72461581287E+02  0.70000014319E+02 0.  0.
         12    1    1    2    0    0 -0.83494479883E+01  0.13807574449E+02  0.95034921982E+01  0.18726418713E+02  0.00000000000E+00 0. -1.
         11    1    3    3    0    0 -0.45491083309E+00  0.18997808954E+02 -0.51848354016E+01  0.19697873168E+02  0.51100000000E-03 0. -1.
        -11    1    3    3    0    0 -0.58802750275E+01 -0.32484486142E+02  0.75675139738E+01  0.33868669037E+02  0.51100000000E-03 0.  1.
         12    1    3    3    0    0  0.14684633849E+02 -0.32089726053E+00 -0.11886170770E+02  0.18895039082E+02  0.00000000000E+00 0. -1.
</event>
<event>
 7    1  0.2153242E-013  0.7246158E+02  0.7816164E-02  0.1226708E+00
        -11   -1    0    0    0    0  0.00000000000E+00  0.00000000000E+00  0.45593999997E+02  0.45594000000E+02  0.51100000000E-03 0. -1.
         11   -1    0    0    0    0 -0.00000000000E+00 -0.00000000000E+00 -0.45593999997E+02  0.45594000000E+02  0.51100000000E-03 0.  1.
    9900012    2    1    2    0    0  0.13468387345E+02  0.36473074595E+01 -0.12489136234E+02  0.72461579273E+02  0.70000011696E+02 0.  0.
         12    1    1    2    0    0 -0.13468387345E+02 -0.36473074595E+01  0.12489136234E+02  0.18726420727E+02  0.00000000000E+00 0. -1.
         11    1    3    3    0    0  0.55541108686E+01  0.60072868806E+00  0.14105954442E+02  0.15171913969E+02  0.51100000000E-03 0. -1.
        -11    1    3    3    0    0 -0.16423053018E+02  0.14879145376E+02 -0.51250426612E+01  0.22745806209E+02  0.51100000000E-03 0.  1.
        -12    1    3    3    0    0  0.24337329495E+02 -0.11832566605E+02 -0.21470048014E+02  0.34543859095E+02  0.00000000000E+00 0.  1.
</event>
<event>
 7    1  0.2153242E-013  0.7246170E+02  0.7816164E-02  0.1226708E+00
        -11   -1    0    0    0    0  0.00000000000E+00  0.00000000000E+00  0.45593999997E+02  0.45594000000E+02  0.51100000000E-03 0.  1.
         11   -1    0    0    0    0 -0.00000000000E+00 -0.00000000000E+00 -0.45593999997E+02  0.45594000000E+02  0.51100000000E-03 0. -1.
    9900012    2    1    2    0    0  0.40068510153E+01  0.17989637021E+02  0.33154673912E+01  0.72461702468E+02  0.70000172181E+02 0.  0.
         12    1    1    2    0    0 -0.40068510153E+01 -0.17989637021E+02 -0.33154673912E+01  0.18726297532E+02  0.00000000000E+00 0. -1.
         11    1    3    3    0    0 -0.13755697074E+02 -0.94361375613E+01 -0.73422382372E+01  0.18225486459E+02  0.51100000000E-03 0. -1.
        -11    1    3    3    0    0  0.77310860890E+01 -0.71758273962E-01  0.21635266887E+02  0.22975195644E+02  0.51100000000E-03 0.  1.
         12    1    3    3    0    0  0.10031462000E+02  0.27497532857E+02 -0.10977561259E+02  0.31261020365E+02  0.00000000000E+00 0. -1.
</event>
<event>
 7    1  0.2153242E-013  0.7246160E+02  0.7816164E-02  0.1226708E+00
        -11   -1    0    0    0    0  0.00000000000E+00  0.00000000000E+00  0.45593999997E+02  0.45594000000E+02  0.51100000000E-03 0. -1.
         11   -1    0    0    0    0 -0.00000000000E+00 -0.00000000000E+00 -0.45593999997E+02  0.45594000000E+02  0.51100000000E-03 0.  1.
    9900012    2    1    2    0    0 -0.11396933784E+02  0.14313671256E+02 -0.39883097697E+01  0.72461604209E+02  0.70000044180E+02 0.  0.
         12    1    1    2    0    0  0.11396933784E+02 -0.14313671256E+02  0.39883097697E+01  0.18726395791E+02  0.00000000000E+00 0. -1.
         11    1    3    3    0    0  0.46208260786E+01  0.61987756059E+01  0.50749754447E+01  0.92483635681E+01  0.51100000000E-03 0. -1.
        -11    1    3    3    0    0  0.87744935045E+01  0.97398383512E+01 -0.28695042622E+02  0.31547767888E+02  0.51100000000E-03 0.  1.
         12    1    3    3    0    0 -0.24792253367E+02 -0.16249427016E+01  0.19631757407E+02  0.31665472754E+02  0.00000000000E+00 0. -1.
</event>
<event>
 7    1  0.2153242E-013  0.7246159E+02  0.7816164E-02  0.1226708E+00
        -11   -1    0    0    0    0  0.00000000000E+00  0.00000000000E+00  0.45593999997E+02  0.45594000000E+02  0.51100000000E-03 0.  1.
         11   -1    0    0    0    0 -0.00000000000E+00 -0.00000000000E+00 -0.45593999997E+02  0.45594000000E+02  0.51100000000E-03 0. -1.
    9900012    2    1    2    0    0  0.14933628777E+02 -0.55943359652E+01  0.98167486934E+01  0.72461590353E+02  0.70000026131E+02 0.  0.
         12    1    1    2    0    0 -0.14933628777E+02  0.55943359652E+01 -0.98167486934E+01  0.18726409647E+02  0.00000000000E+00 0. -1.
         11    1    3    3    0    0 -0.22784641301E+02 -0.17296404486E+02  0.23440748050E+01  0.28701919348E+02  0.51100000000E-03 0. -1.
        -11    1    3    3    0    0  0.71523985353E+00 -0.30443027675E+01 -0.41029297868E+00  0.31539955576E+01  0.51100000000E-03 0.  1.
        -12    1    3    3    0    0  0.37003030224E+02  0.14746371288E+02  0.78829668671E+01  0.40605675447E+02  0.00000000000E+00 0.  1.
</event>
<event>
 7    1  0.2153242E-013  0.7246155E+02  0.7816164E-02  0.1226708E+00
        -11   -1    0    0    0    0  0.00000000000E+00  0.00000000000E+00  0.45593999997E+02  0.45594000000E+02  0.51100000000E-03 0.  1.
         11   -1    0    0    0    0 -0.00000000000E+00 -0.00000000000E+00 -0.45593999997E+02  0.45594000000E+02  0.51100000000E-03 0. -1.
    9900012    2    1    2    0    0 -0.64399861369E+01  0.14113269462E+02  0.10489142189E+02  0.72461550785E+02  0.69999974585E+02 0.  0.
         12    1    1    2    0    0  0.64399861369E+01 -0.14113269462E+02 -0.10489142189E+02  0.18726449215E+02  0.00000000000E+00 0. -1.
         11    1    3    3    0    0 -0.27777817890E+01 -0.23339926730E+01  0.16987152624E+01  0.40061486828E+01  0.51100000000E-03 0. -1.
        -11    1    3    3    0    0 -0.18443660857E+02  0.16355636187E+00  0.31714579776E+02  0.36688008219E+02  0.51100000000E-03 0.  1.
         12    1    3    3    0    0  0.14781456509E+02  0.16283705773E+02 -0.22924152849E+02  0.31767393882E+02  0.00000000000E+00 0. -1.
</event>
<event>
 7    1  0.2153242E-013  0.7246157E+02  0.7816164E-02  0.1226708E+00
        -11   -1    0    0    0    0  0.00000000000E+00  0.00000000000E+00  0.45593999997E+02  0.45594000000E+02  0.51100000000E-03 0. -1.
         11   -1    0    0    0    0 -0.00000000000E+00 -0.00000000000E+00 -0.45593999997E+02  0.45594000000E+02  0.51100000000E-03 0.  1.
    9900012    2    1    2    0    0 -0.11138432566E+02 -0.11378454242E+02 -0.98562387326E+01  0.72461565665E+02  0.69999993969E+02 0.  0.
         12    1    1    2    0    0  0.11138432566E+02  0.11378454242E+02  0.98562387326E+01  0.18726434335E+02  0.00000000000E+00 0. -1.
         11    1    3    3    0    0 -0.12229867369E+02  0.10005822968E+02 -0.90273673256E+01  0.18198338117E+02  0.51100000000E-03 0.  1.
        -11    1    3    3    0    0 -0.23649406889E+02 -0.45499928809E+01 -0.29503820555E+01  0.24263174482E+02  0.51100000000E-03 0. -1.
        -12    1    3    3    0    0  0.24740841693E+02 -0.16834284328E+02  0.21215106484E+01  0.30000053066E+02  0.00000000000E+00 0.  1.
</event>
<event>
 7    1  0.2153242E-013  0.7246158E+02  0.7816164E-02  0.1226708E+00
        -11   -1    0    0    0    0  0.00000000000E+00  0.00000000000E+00  0.45593999997E+02  0.45594000000E+02  0.51100000000E-03 0. -1.
         11   -1    0    0    0    0 -0.00000000000E+00 -0.00000000000E+00 -0.45593999997E+02  0.45594000000E+02  0.51100000000E-03 0.  1.
    9900012    2    1    2    0    0 -0.66294717812E-01  0.10441849780E+02 -0.15544849918E+02  0.72461575333E+02  0.70000006564E+02 0.  0.
         12    1    1    2    0    0  0.66294717812E-01 -0.10441849780E+02  0.15544849918E+02  0.18726424667E+02  0.00000000000E+00 0. -1.
         11    1    3    3    0    0 -0.10199015460E+02  0.36318893671E+01 -0.14827123438E+02  0.18359033919E+02  0.51100000000E-03 0. -1.
        -11    1    3    3    0    0 -0.86603806057E+01  0.79250453676E+01 -0.22459674119E+02  0.25342562975E+02  0.51100000000E-03 0.  1.
         12    1    3    3    0    0  0.18793101348E+02 -0.11150849548E+01  0.21741947639E+02  0.28759978440E+02  0.00000000000E+00 0. -1.
</event>
<event>
 7    1  0.2153242E-013  0.7246154E+02  0.7816164E-02  0.1226708E+00
        -11   -1    0    0    0    0  0.00000000000E+00  0.00000000000E+00  0.45593999997E+02  0.45594000000E+02  0.51100000000E-03 0. -1.
         11   -1    0    0    0    0 -0.00000000000E+00 -0.00000000000E+00 -0.45593999997E+02  0.45594000000E+02  0.51100000000E-03 0.  1.
    9900012    2    1    2    0    0  0.17922467633E+02  0.38523775848E+01 -0.38242168463E+01  0.72461540281E+02  0.69999960902E+02 0.  0.
         12    1    1    2    0    0 -0.17922467633E+02 -0.38523775848E+01  0.38242168463E+01  0.18726459719E+02  0.00000000000E+00 0. -1.
         11    1    3    3    0    0  0.12755118959E+02  0.22386776285E+02  0.47171335804E+01  0.26193742794E+02  0.51100000000E-03 0. -1.
        -11    1    3    3    0    0 -0.12138419106E+02 -0.13084491430E+02 -0.18387167055E+02  0.25624852135E+02  0.51100000000E-03 0.  1.
         12    1    3    3    0    0  0.17305767780E+02 -0.54499072706E+01  0.98458166287E+01  0.20642945352E+02  0.00000000000E+00 0. -1.
</event>
<event>
 7    1  0.2153242E-013  0.7246157E+02  0.7816164E-02  0.1226708E+00
        -11   -1    0    0    0    0  0.00000000000E+00  0.00000000000E+00  0.45593999997E+02  0.45594000000E+02  0.51100000000E-03 0.  1.
         11   -1    0    0    0    0 -0.00000000000E+00 -0.00000000000E+00 -0.45593999997E+02  0.45594000000E+02  0.51100000000E-03 0. -1.
    9900012    2    1    2    0    0 -0.37101484906E+01  0.16541560535E+02  0.79555429539E+01  0.72461572405E+02  0.70000002750E+02 0.  0.
         12    1    1    2    0    0  0.37101484906E+01 -0.16541560535E+02 -0.79555429539E+01  0.18726427595E+02  0.00000000000E+00 0. -1.
         11    1    3    3    0    0 -0.87618354078E+01  0.23156995346E+01  0.61678078503E+01  0.10962393807E+02  0.51100000000E-03 0. -1.
        -11    1    3    3    0    0 -0.20637256061E+02 -0.12376088415E+02  0.42510301572E+01  0.24436349151E+02  0.51100000000E-03 0.  1.
         12    1    3    3    0    0  0.25688942979E+02  0.26601949416E+02 -0.24632950535E+01  0.37062829447E+02  0.00000000000E+00 0. -1.
</event>
<event>
 7    1  0.2153242E-013  0.7246160E+02  0.7816164E-02  0.1226708E+00
        -11   -1    0    0    0    0  0.00000000000E+00  0.00000000000E+00  0.45593999997E+02  0.45594000000E+02  0.51100000000E-03 0.  1.
         11   -1    0    0    0    0 -0.00000000000E+00 -0.00000000000E+00 -0.45593999997E+02  0.45594000000E+02  0.51100000000E-03 0. -1.
    9900012    2    1    2    0    0  0.68043232457E+01  0.16252619959E+02  0.63428278172E+01  0.72461603255E+02  0.70000042937E+02 0.  0.
         12    1    1    2    0    0 -0.68043232457E+01 -0.16252619959E+02 -0.63428278172E+01  0.18726396745E+02  0.00000000000E+00 0. -1.
         11    1    3    3    0    0 -0.41778545410E+01  0.81589878286E+01 -0.19641498226E+01  0.93745098933E+01  0.51100000000E-03 0. -1.
        -11    1    3    3    0    0  0.94915979531E+01  0.25203449312E+02  0.26699084301E+02  0.37922887439E+02  0.51100000000E-03 0.  1.
         12    1    3    3    0    0  0.14905798336E+01 -0.17109817182E+02 -0.18392106661E+02  0.25164205922E+02  0.00000000000E+00 0. -1.
</event>
<event>
 7    1  0.2153242E-013  0.7246156E+02  0.7816164E-02  0.1226708E+00
        -11   -1    0    0    0    0  0.00000000000E+00  0.00000000000E+00  0.45593999997E+02  0.45594000000E+02  0.51100000000E-03 0.  1.
         11   -1    0    0    0    0 -0.00000000000E+00 -0.00000000000E+00 -0.45593999997E+02  0.45594000000E+02  0.51100000000E-03 0. -1.
    9900012    2    1    2    0    0  0.13849346700E+02  0.91228555436E+00  0.12571515336E+02  0.72461557017E+02  0.69999982704E+02 0.  0.
         12    1    1    2    0    0 -0.13849346700E+02 -0.91228555436E+00 -0.12571515336E+02  0.18726442983E+02  0.00000000000E+00 0. -1.
         11    1    3    3    0    0 -0.13441390385E+01  0.65976980835E+01 -0.11116474273E+02  0.12996627650E+02  0.51100000000E-03 0. -1.
        -11    1    3    3    0    0 -0.14427568261E+02 -0.23481905910E+01 -0.74096635786E+01  0.16388161568E+02  0.51100000000E-03 0.  1.
        -12    1    3    3    0    0  0.29621053999E+02 -0.33372219381E+01  0.31097653187E+02  0.43076767799E+02  0.00000000000E+00 0.  1.
</event>
<event>
 7    1  0.2153242E-013  0.7246215E+02  0.7816164E-02  0.1226706E+00
        -11   -1    0    0    0    0  0.00000000000E+00  0.00000000000E+00  0.45593999997E+02  0.45594000000E+02  0.51100000000E-03 0.  1.
         11   -1    0    0    0    0 -0.00000000000E+00 -0.00000000000E+00 -0.45593999997E+02  0.45594000000E+02  0.51100000000E-03 0. -1.
    9900012    2    1    2    0    0  0.74970632525E+01 -0.14887207430E+02  0.85336122241E+01  0.72462150485E+02  0.70000755802E+02 0.  0.
         12    1    1    2    0    0 -0.74970632525E+01  0.14887207430E+02 -0.85336122241E+01  0.18725849515E+02  0.00000000000E+00 0. -1.
         11    1    3    3    0    0 -0.22360846432E+01 -0.21279843100E+02 -0.24014213223E+02  0.32163865344E+02  0.51100000000E-03 0. -1.
        -11    1    3    3    0    0 -0.58384858116E+01 -0.18372640194E+01  0.75611870772E+01  0.97280525249E+01  0.51100000000E-03 0.  1.
        -12    1    3    3    0    0  0.15571633707E+02  0.82298996889E+01  0.24986638370E+02  0.30570232616E+02  0.00000000000E+00 0.  1.
</event>
<event>
 7    1  0.2153242E-013  0.7246158E+02  0.7816164E-02  0.1226708E+00
        -11   -1    0    0    0    0  0.00000000000E+00  0.00000000000E+00  0.45593999997E+02  0.45594000000E+02  0.51100000000E-03 0.  1.
         11   -1    0    0    0    0 -0.00000000000E+00 -0.00000000000E+00 -0.45593999997E+02  0.45594000000E+02  0.51100000000E-03 0. -1.
    9900012    2    1    2    0    0  0.47937049432E+01  0.35641898000E+01  0.17748116973E+02  0.72461582507E+02  0.70000015910E+02 0.  0.
         12    1    1    2    0    0 -0.47937049432E+01 -0.35641898000E+01 -0.17748116973E+02  0.18726417493E+02  0.00000000000E+00 0. -1.
         11    1    3    3    0    0  0.12794766830E+02  0.15967233658E+01  0.19788260296E+02  0.23618442572E+02  0.51100000000E-03 0. -1.
        -11    1    3    3    0    0 -0.19474404847E+02  0.69030319423E+01  0.16532239725E+02  0.26461656123E+02  0.51100000000E-03 0.  1.
         12    1    3    3    0    0  0.11473342961E+02 -0.49355655081E+01 -0.18572383048E+02  0.22381483813E+02  0.00000000000E+00 0. -1.
</event>
<event>
 7    1  0.2617487E-013  0.7246155E+02  0.7816164E-02  0.1226708E+00
        -11   -1    0    0    0    0  0.00000000000E+00  0.00000000000E+00  0.45593999997E+02  0.45594000000E+02  0.51100000000E-03 0.  1.
         11   -1    0    0    0    0 -0.00000000000E+00 -0.00000000000E+00 -0.45593999997E+02  0.45594000000E+02  0.51100000000E-03 0. -1.
    9900012    2    1    2    0    0  0.16111980871E+02  0.94309380470E+01 -0.14633160036E+01  0.72461553093E+02  0.69999977593E+02 0.  0.
         12    1    1    2    0    0 -0.16111980871E+02 -0.94309380470E+01  0.14633160036E+01  0.18726446907E+02  0.00000000000E+00 0. -1.
         11    1    3    3    0    0 -0.17581327362E+01 -0.27513049686E+01  0.10671196810E+02  0.11159531861E+02  0.51100000000E-03 0. -1.
        -11    1    3    3    0    0  0.31863508638E+02 -0.47630597252E+01  0.60464277838E+01  0.32780012353E+02  0.51100000000E-03 0.  1.
         12    1    3    3    0    0 -0.13993395031E+02  0.16945302741E+02 -0.18180940597E+02  0.28522008879E+02  0.00000000000E+00 0. -1.
</event>
<event>
 7    1  0.2153242E-013  0.7246159E+02  0.7816164E-02  0.1226708E+00
        -11   -1    0    0    0    0  0.00000000000E+00  0.00000000000E+00  0.45593999997E+02  0.45594000000E+02  0.51100000000E-03 0.  1.
         11   -1    0    0    0    0 -0.00000000000E+00 -0.00000000000E+00 -0.45593999997E+02  0.45594000000E+02  0.51100000000E-03 0. -1.
    9900012    2    1    2    0    0  0.10087892180E+02  0.14910976159E+02  0.51551706924E+01  0.72461586474E+02  0.70000021078E+02 0.  0.
         12    1    1    2    0    0 -0.10087892180E+02 -0.14910976159E+02 -0.51551706924E+01  0.18726413526E+02  0.00000000000E+00 0. -1.
         11    1    3    3    0    0 -0.12377347906E+02 -0.75965711811E+01 -0.55845631294E+01  0.15559369540E+02  0.51100000000E-03 0. -1.
        -11    1    3    3    0    0  0.21425884407E+01  0.21638306124E+02  0.24182205286E+02  0.32520547811E+02  0.51100000000E-03 0.  1.
        -12    1    3    3    0    0  0.20322651645E+02  0.86924121629E+00 -0.13442471464E+02  0.24381669123E+02  0.00000000000E+00 0.  1.
</event>
<event>
 7    1  0.2153242E-013  0.7246142E+02  0.7816164E-02  0.1226708E+00
        -11   -1    0    0    0    0  0.00000000000E+00  0.00000000000E+00  0.45593999997E+02  0.45594000000E+02  0.51100000000E-03 0. -1.
         11   -1    0    0    0    0 -0.00000000000E+00 -0.00000000000E+00 -0.45593999997E+02  0.45594000000E+02  0.51100000000E-03 0.  1.
    9900012    2    1    2    0    0 -0.77030925332E+01 -0.13413976713E+02  0.10555203416E+02  0.72461421963E+02  0.69999806771E+02 0.  0.
         12    1    1    2    0    0  0.77030925332E+01  0.13413976713E+02 -0.10555203416E+02  0.18726578037E+02  0.00000000000E+00 0. -1.
         11    1    3    3    0    0  0.59387857266E+01 -0.48314395882E+01 -0.46817386476E+00  0.76701480709E+01  0.51100000000E-03 0. -1.
        -11    1    3    3    0    0  0.97601426397E+01 -0.22048591381E+02 -0.14081860720E+02  0.27923100971E+02  0.51100000000E-03 0.  1.
         12    1    3    3    0    0 -0.23402020900E+02  0.13466054257E+02  0.25105238001E+02  0.36868172921E+02  0.00000000000E+00 0. -1.
</event>
<event>
 7    1  0.2153242E-013  0.7246170E+02  0.7816164E-02  0.1226708E+00
        -11   -1    0    0    0    0  0.00000000000E+00  0.00000000000E+00  0.45593999997E+02  0.45594000000E+02  0.51100000000E-03 0.  1.
         11   -1    0    0    0    0 -0.00000000000E+00 -0.00000000000E+00 -0.45593999997E+02  0.45594000000E+02  0.51100000000E-03 0. -1.
    9900012    2    1    2    0    0  0.49826348274E+01  0.17059376656E+02 -0.59013088436E+01  0.72461696900E+02  0.70000164927E+02 0.  0.
         12    1    1    2    0    0 -0.49826348274E+01 -0.17059376656E+02  0.59013088436E+01  0.18726303100E+02  0.00000000000E+00 0. -1.
         11    1    3    3    0    0 -0.29902033481E+01  0.87091529077E+01 -0.36695763472E+00  0.92154933997E+01  0.51100000000E-03 0. -1.
        -11    1    3    3    0    0 -0.14352123164E+02 -0.19450552178E+02  0.74593926577E+01  0.25297232228E+02  0.51100000000E-03 0.  1.
         12    1    3    3    0    0  0.22324961340E+02  0.27800775926E+02 -0.12993743867E+02  0.37948971272E+02  0.00000000000E+00 0. -1.
</event>
<event>
 7    1  0.2153242E-013  0.7246137E+02  0.7816164E-02  0.1226709E+00
        -11   -1    0    0    0    0  0.00000000000E+00  0.00000000000E+00  0.45593999997E+02  0.45594000000E+02  0.51100000000E-03 0.  1.
         11   -1    0    0    0    0 -0.00000000000E+00 -0.00000000000E+00 -0.45593999997E+02  0.45594000000E+02  0.51100000000E-03 0. -1.
    9900012    2    1    2    0    0 -0.13799870052E+02  0.10947874609E+02  0.63556363463E+01  0.72461374963E+02  0.69999745544E+02 0.  0.
         12    1    1    2    0    0  0.13799870052E+02 -0.10947874609E+02 -0.63556363463E+01  0.18726625037E+02  0.00000000000E+00 0. -1.
         11    1    3    3    0    0  0.60238647430E+01 -0.70295545012E+01  0.64406423132E+01  0.11277564302E+02  0.51100000000E-03 0. -1.
        -11    1    3    3    0    0  0.16118475872E+02 -0.53319671111E+01  0.58037086969E+01  0.17942078269E+02  0.51100000000E-03 0.  1.
         12    1    3    3    0    0 -0.35942210667E+02  0.23309396221E+02 -0.58887146638E+01  0.43241732392E+02  0.00000000000E+00 0. -1.
</event>
<event>
 7    1  0.2153242E-013  0.7246159E+02  0.7816164E-02  0.1226708E+00
        -11   -1    0    0    0    0  0.00000000000E+00  0.00000000000E+00  0.45593999997E+02  0.45594000000E+02  0.51100000000E-03 0.  1.
         11   -1    0    0    0    0 -0.00000000000E+00 -0.00000000000E+00 -0.45593999997E+02  0.45594000000E+02  0.51100000000E-03 0. -1.
    9900012    2    1    2    0    0 -0.18356859784E+02 -0.32802907994E+01 -0.17157603308E+01  0.72461589710E+02  0.70000025292E+02 0.  0.
         12    1    1    2    0    0  0.18356859784E+02  0.32802907994E+01  0.17157603308E+01  0.18726410290E+02  0.00000000000E+00 0. -1.
         11    1    3    3    0    0  0.67413944365E+01 -0.10392478449E+01 -0.22146109967E+02  0.23172756029E+02  0.51100000000E-03 0. -1.
        -11    1    3    3    0    0 -0.14820772757E+02  0.81691480573E+01 -0.69111301768E+01  0.18279879805E+02  0.51100000000E-03 0.  1.
        -12    1    3    3    0    0 -0.10277481463E+02 -0.10410191012E+02  0.27341479813E+02  0.31008953876E+02  0.00000000000E+00 0.  1.
</event>
<event>
 7    1  0.2153242E-013  0.7246154E+02  0.7816164E-02  0.1226708E+00
        -11   -1    0    0    0    0  0.00000000000E+00  0.00000000000E+00  0.45593999997E+02  0.45594000000E+02  0.51100000000E-03 0. -1.
         11   -1    0    0    0    0 -0.00000000000E+00 -0.00000000000E+00 -0.45593999997E+02  0.45594000000E+02  0.51100000000E-03 0.  1.
    9900012    2    1    2    0    0  0.34519724463E+00  0.41133903118E+01 -0.18265846197E+02  0.72461540690E+02  0.69999961435E+02 0.  0.
         12    1    1    2    0    0 -0.34519724463E+00 -0.41133903118E+01  0.18265846197E+02  0.18726459310E+02  0.00000000000E+00 0. -1.
         11    1    3    3    0    0 -0.64080315455E+01  0.26445146940E+01  0.14383194170E+02  0.15966608940E+02  0.51100000000E-03 0. -1.
        -11    1    3    3    0    0 -0.24843207319E+01  0.20454831770E+02 -0.41371204850E+01  0.21016368821E+02  0.51100000000E-03 0.  1.
         12    1    3    3    0    0  0.92375495221E+01 -0.18985956152E+02 -0.28511919882E+02  0.35478562929E+02  0.00000000000E+00 0. -1.
</event>
<event>
 7    1  0.2153242E-013  0.7246157E+02  0.7816164E-02  0.1226708E+00
        -11   -1    0    0    0    0  0.00000000000E+00  0.00000000000E+00  0.45593999997E+02  0.45594000000E+02  0.51100000000E-03 0.  1.
         11   -1    0    0    0    0 -0.00000000000E+00 -0.00000000000E+00 -0.45593999997E+02  0.45594000000E+02  0.51100000000E-03 0. -1.
    9900012    2    1    2    0    0  0.87247852385E+01  0.87240451451E+01  0.14087173889E+02  0.72461566561E+02  0.69999995137E+02 0.  0.
         12    1    1    2    0    0 -0.87247852385E+01 -0.87240451451E+01 -0.14087173889E+02  0.18726433439E+02  0.00000000000E+00 0. -1.
         11    1    3    3    0    0  0.12629810427E+02  0.41973398164E+01 -0.20224093392E+01  0.13461794560E+02  0.51100000000E-03 0. -1.
        -11    1    3    3    0    0  0.18230819524E+02  0.77300382197E+01 -0.11941032995E+02  0.23123679220E+02  0.51100000000E-03 0.  1.
        -12    1    3    3    0    0 -0.22135844713E+02 -0.32033328910E+01  0.28050616223E+02  0.35876092782E+02  0.00000000000E+00 0.  1.
</event>
<event>
 7    1  0.2153242E-013  0.7246158E+02  0.7816164E-02  0.1226708E+00
        -11   -1    0    0    0    0  0.00000000000E+00  0.00000000000E+00  0.45593999997E+02  0.45594000000E+02  0.51100000000E-03 0.  1.
         11   -1    0    0    0    0 -0.00000000000E+00 -0.00000000000E+00 -0.45593999997E+02  0.45594000000E+02  0.51100000000E-03 0. -1.
    9900012    2    1    2    0    0 -0.39551454846E+01 -0.84945403724E+01  0.16213530721E+02  0.72461575611E+02  0.70000006926E+02 0.  0.
         12    1    1    2    0    0  0.39551454846E+01  0.84945403724E+01 -0.16213530721E+02  0.18726424389E+02  0.00000000000E+00 0. -1.
         11    1    3    3    0    0 -0.10927636694E+02  0.78939795732E+01  0.10388169909E+02  0.17018878681E+02  0.51100000000E-03 0. -1.
        -11    1    3    3    0    0 -0.29323089704E+01 -0.33857700342E+02  0.88911399364E+01  0.35128260390E+02  0.51100000000E-03 0.  1.
         12    1    3    3    0    0  0.99048001802E+01  0.17469180397E+02 -0.30657791240E+01  0.20314436541E+02  0.00000000000E+00 0. -1.
</event>
<event>
 7    1  0.2153242E-013  0.7246155E+02  0.7816164E-02  0.1226708E+00
        -11   -1    0    0    0    0  0.00000000000E+00  0.00000000000E+00  0.45593999997E+02  0.45594000000E+02  0.51100000000E-03 0. -1.
         11   -1    0    0    0    0 -0.00000000000E+00 -0.00000000000E+00 -0.45593999997E+02  0.45594000000E+02  0.51100000000E-03 0.  1.
    9900012    2    1    2    0    0  0.16764155988E+02 -0.41823653637E+01 -0.72215577634E+01  0.72461548052E+02  0.69999971025E+02 0.  0.
         12    1    1    2    0    0 -0.16764155988E+02  0.41823653637E+01  0.72215577634E+01  0.18726451948E+02  0.00000000000E+00 0. -1.
         11    1    3    3    0    0 -0.17213855084E+02  0.14900097945E+02 -0.72337541060E+01  0.23888426577E+02  0.51100000000E-03 0.  1.
        -11    1    3    3    0    0 -0.22530206327E+01 -0.11137494598E+02  0.14385556935E+01  0.11453791103E+02  0.51100000000E-03 0. -1.
         12    1    3    3    0    0  0.36231031705E+02 -0.79449687103E+01 -0.14263593509E+01  0.37119330371E+02  0.00000000000E+00 0. -1.
</event>
<event>
 7    1  0.2153242E-013  0.7246159E+02  0.7816164E-02  0.1226708E+00
        -11   -1    0    0    0    0  0.00000000000E+00  0.00000000000E+00  0.45593999997E+02  0.45594000000E+02  0.51100000000E-03 0.  1.
         11   -1    0    0    0    0 -0.00000000000E+00 -0.00000000000E+00 -0.45593999997E+02  0.45594000000E+02  0.51100000000E-03 0. -1.
    9900012    2    1    2    0    0 -0.12431076238E+02 -0.54552136204E+00  0.13994616989E+02  0.72461586711E+02  0.70000021386E+02 0.  0.
         12    1    1    2    0    0  0.12431076238E+02  0.54552136204E+00 -0.13994616989E+02  0.18726413289E+02  0.00000000000E+00 0. -1.
         11    1    3    3    0    0 -0.17569176055E+02 -0.12024048022E+02  0.20214829421E+02  0.29358014355E+02  0.51100000000E-03 0. -1.
        -11    1    3    3    0    0 -0.65277062025E+01 -0.43167402764E+01  0.13289810344E+02  0.15422848444E+02  0.51100000000E-03 0.  1.
        -12    1    3    3    0    0  0.11665806019E+02  0.15795266937E+02 -0.19510022775E+02  0.27680723913E+02  0.00000000000E+00 0.  1.
</event>
<event>
 7    1  0.2355963E-013  0.7246150E+02  0.7816164E-02  0.1226708E+00
        -11   -1    0    0    0    0  0.00000000000E+00  0.00000000000E+00  0.45593999997E+02  0.45594000000E+02  0.51100000000E-03 0. -1.
         11   -1    0    0    0    0 -0.00000000000E+00 -0.00000000000E+00 -0.45593999997E+02  0.45594000000E+02  0.51100000000E-03 0.  1.
    9900012    2    1    2    0    0  0.93323978706E+01 -0.31663616148E+01 -0.15923634947E+02  0.72461504177E+02  0.69999913869E+02 0.  0.
         12    1    1    2    0    0 -0.93323978706E+01  0.31663616148E+01  0.15923634947E+02  0.18726495823E+02  0.00000000000E+00 0. -1.
         11    1    3    3    0    0 -0.73624449790E+01 -0.42351547529E+01 -0.15656939412E+02  0.17812408144E+02  0.51100000000E-03 0. -1.
        -11    1    3    3    0    0  0.12192816562E+02  0.11184036442E+02 -0.23600108099E+02  0.28822084404E+02  0.51100000000E-03 0.  1.
         12    1    3    3    0    0  0.45020262875E+01 -0.10115243304E+02  0.23333412564E+02  0.25827011629E+02  0.00000000000E+00 0. -1.
</event>
<event>
 7    1  0.2153242E-013  0.7246157E+02  0.7816164E-02  0.1226708E+00
        -11   -1    0    0    0    0  0.00000000000E+00  0.00000000000E+00  0.45593999997E+02  0.45594000000E+02  0.51100000000E-03 0.  1.
         11   -1    0    0    0    0 -0.00000000000E+00 -0.00000000000E+00 -0.45593999997E+02  0.45594000000E+02  0.51100000000E-03 0. -1.
    9900012    2    1    2    0    0  0.10040683486E+01  0.84043215502E+01  0.16704438287E+02  0.72461573954E+02  0.70000004767E+02 0.  0.
         12    1    1    2    0    0 -0.10040683486E+01 -0.84043215502E+01 -0.16704438287E+02  0.18726426046E+02  0.00000000000E+00 0. -1.
         11    1    3    3    0    0 -0.33236238994E+01 -0.17064549802E+02 -0.13693044480E+02  0.22130178562E+02  0.51100000000E-03 0. -1.
        -11    1    3    3    0    0 -0.25187977150E+01  0.80911782467E+01 -0.53336840360E+01  0.10012976231E+02  0.51100000000E-03 0.  1.
        -12    1    3    3    0    0  0.68464899630E+01  0.17377693106E+02  0.35731166804E+02  0.40318419161E+02  0.00000000000E+00 0.  1.
</event>
<event>
 7    1  0.2153242E-013  0.7246162E+02  0.7816164E-02  0.1226708E+00
        -11   -1    0    0    0    0  0.00000000000E+00  0.00000000000E+00  0.45593999997E+02  0.45594000000E+02  0.51100000000E-03 0. -1.
         11   -1    0    0    0    0 -0.00000000000E+00 -0.00000000000E+00 -0.45593999997E+02  0.45594000000E+02  0.51100000000E-03 0.  1.
    9900012    2    1    2    0    0  0.10651261090E+02  0.89049207820E+00 -0.15376445847E+02  0.72461616852E+02  0.70000060650E+02 0.  0.
         12    1    1    2    0    0 -0.10651261090E+02 -0.89049207820E+00  0.15376445847E+02  0.18726383148E+02  0.00000000000E+00 0. -1.
         11    1    3    3    0    0 -0.13923629002E+02  0.78285735699E+01  0.17671040845E+02  0.23820572905E+02  0.51100000000E-03 0. -1.
        -11    1    3    3    0    0 -0.44736256838E+01  0.23670609011E+01 -0.33504939140E+01  0.60697704896E+01  0.51100000000E-03 0.  1.
        -12    1    3    3    0    0  0.29048515775E+02 -0.93051423928E+01 -0.29696992778E+02  0.42571273457E+02  0.00000000000E+00 0.  1.
</event>
<event>
 7    1  0.2153242E-013  0.7246156E+02  0.7816164E-02  0.1226708E+00
        -11   -1    0    0    0    0  0.00000000000E+00  0.00000000000E+00  0.45593999997E+02  0.45594000000E+02  0.51100000000E-03 0. -1.
         11   -1    0    0    0    0 -0.00000000000E+00 -0.00000000000E+00 -0.45593999997E+02  0.45594000000E+02  0.51100000000E-03 0.  1.
    9900012    2    1    2    0    0  0.11473333049E+02  0.62884823403E+00 -0.14786708320E+02  0.72461559754E+02  0.69999986269E+02 0.  0.
         12    1    1    2    0    0 -0.11473333049E+02 -0.62884823403E+00  0.14786708320E+02  0.18726440246E+02  0.00000000000E+00 0. -1.
         11    1    3    3    0    0 -0.11696496412E+01 -0.10514467205E+02  0.20108185098E+02  0.22721382200E+02  0.51100000000E-03 0. -1.
        -11    1    3    3    0    0  0.94266909346E+00 -0.36910152919E+01  0.45917855160E+01  0.59662981312E+01  0.51100000000E-03 0.  1.
        -12    1    3    3    0    0  0.11700313596E+02  0.14834330731E+02 -0.39486678934E+02  0.43773879423E+02  0.00000000000E+00 0.  1.
</event>
<event>
 7    1  0.2153242E-013  0.7246159E+02  0.7816164E-02  0.1226708E+00
        -11   -1    0    0    0    0  0.00000000000E+00  0.00000000000E+00  0.45593999997E+02  0.45594000000E+02  0.51100000000E-03 0. -1.
         11   -1    0    0    0    0 -0.00000000000E+00 -0.00000000000E+00 -0.45593999997E+02  0.45594000000E+02  0.51100000000E-03 0.  1.
    9900012    2    1    2    0    0  0.35191326358E+01 -0.22233511685E+01 -0.18257899784E+02  0.72461588452E+02  0.70000023654E+02 0.  0.
         12    1    1    2    0    0 -0.35191326358E+01  0.22233511685E+01  0.18257899784E+02  0.18726411548E+02  0.00000000000E+00 0. -1.
         11    1    3    3    0    0  0.68354526532E+01  0.16965037735E+02  0.84442964943E+01  0.20145522129E+02  0.51100000000E-03 0. -1.
        -11    1    3    3    0    0  0.18353553179E+02 -0.11448308016E+02 -0.97066106751E+01  0.23709385521E+02  0.51100000000E-03 0.  1.
        -12    1    3    3    0    0 -0.21669873196E+02 -0.77400808869E+01 -0.16995585603E+02  0.28606680802E+02  0.00000000000E+00 0.  1.
</event>
<event>
 7    1  0.2153242E-013  0.7246159E+02  0.7816164E-02  0.1226708E+00
        -11   -1    0    0    0    0  0.00000000000E+00  0.00000000000E+00  0.45593999997E+02  0.45594000000E+02  0.51100000000E-03 0.  1.
         11   -1    0    0    0    0 -0.00000000000E+00 -0.00000000000E+00 -0.45593999997E+02  0.45594000000E+02  0.51100000000E-03 0. -1.
    9900012    2    1    2    0    0 -0.13966981655E+02  0.78300254763E+01  0.97104386997E+01  0.72461588298E+02  0.70000023452E+02 0.  0.
         12    1    1    2    0    0  0.13966981655E+02 -0.78300254763E+01 -0.97104386997E+01  0.18726411702E+02  0.00000000000E+00 0. -1.
         11    1    3    3    0    0  0.10647177003E+02 -0.49168440647E-01 -0.11987554332E+01  0.10714560678E+02  0.51100000000E-03 0. -1.
        -11    1    3    3    0    0 -0.38526707343E+02  0.20282385946E+01 -0.60421302004E+01  0.39050329936E+02  0.51100000000E-03 0.  1.
         12    1    3    3    0    0  0.13912548685E+02  0.58509553223E+01  0.16951324333E+02  0.22696697684E+02  0.00000000000E+00 0. -1.
</event>
<event>
 7    1  0.2153242E-013  0.7246171E+02  0.7816164E-02  0.1226708E+00
        -11   -1    0    0    0    0  0.00000000000E+00  0.00000000000E+00  0.45593999997E+02  0.45594000000E+02  0.51100000000E-03 0.  1.
         11   -1    0    0    0    0 -0.00000000000E+00 -0.00000000000E+00 -0.45593999997E+02  0.45594000000E+02  0.51100000000E-03 0. -1.
    9900012    2    1    2    0    0  0.92818979253E+01  0.24179245674E+01  0.16083339919E+02  0.72461713362E+02  0.70000186372E+02 0.  0.
         12    1    1    2    0    0 -0.92818979253E+01 -0.24179245674E+01 -0.16083339919E+02  0.18726286638E+02  0.00000000000E+00 0. -1.
         11    1    3    3    0    0 -0.53804200902E+01  0.55551060460E+01 -0.21724616144E+01  0.80329143688E+01  0.51100000000E-03 0. -1.
        -11    1    3    3    0    0  0.79847822896E+01  0.27718492223E+02  0.19882818350E+01  0.28914093869E+02  0.51100000000E-03 0.  1.
         12    1    3    3    0    0  0.66775357260E+01 -0.30855673702E+02  0.16267519698E+02  0.35514705124E+02  0.00000000000E+00 0. -1.
</event>
<event>
 7    1  0.2153242E-013  0.7246157E+02  0.7816164E-02  0.1226708E+00
        -11   -1    0    0    0    0  0.00000000000E+00  0.00000000000E+00  0.45593999997E+02  0.45594000000E+02  0.51100000000E-03 0. -1.
         11   -1    0    0    0    0 -0.00000000000E+00 -0.00000000000E+00 -0.45593999997E+02  0.45594000000E+02  0.51100000000E-03 0.  1.
    9900012    2    1    2    0    0 -0.87392304301E+01 -0.15271719537E+02 -0.64093516242E+01  0.72461565359E+02  0.69999993570E+02 0.  0.
         12    1    1    2    0    0  0.87392304301E+01  0.15271719537E+02  0.64093516242E+01  0.18726434641E+02  0.00000000000E+00 0. -1.
         11    1    3    3    0    0 -0.80098724695E+01 -0.55854700212E+01  0.12291914994E+02  0.15698621175E+02  0.51100000000E-03 0. -1.
        -11    1    3    3    0    0  0.18376120384E+02 -0.56904413846E+00  0.10132674624E+02  0.20992301134E+02  0.51100000000E-03 0.  1.
        -12    1    3    3    0    0 -0.19105478344E+02 -0.91172053775E+01 -0.28833941242E+02  0.35770643050E+02  0.00000000000E+00 0.  1.
</event>
<event>
 7    1  0.2153242E-013  0.7246160E+02  0.7816164E-02  0.1226708E+00
        -11   -1    0    0    0    0  0.00000000000E+00  0.00000000000E+00  0.45593999997E+02  0.45594000000E+02  0.51100000000E-03 0.  1.
         11   -1    0    0    0    0 -0.00000000000E+00 -0.00000000000E+00 -0.45593999997E+02  0.45594000000E+02  0.51100000000E-03 0. -1.
    9900012    2    1    2    0    0 -0.23507849309E+00  0.41191794140E+01  0.18266225389E+02  0.72461604433E+02  0.70000044473E+02 0.  0.
         12    1    1    2    0    0  0.23507849309E+00 -0.41191794140E+01 -0.18266225389E+02  0.18726395567E+02  0.00000000000E+00 0. -1.
         11    1    3    3    0    0 -0.17493504227E+02  0.39542051220E+01  0.11875344382E+02  0.21510049576E+02  0.51100000000E-03 0. -1.
        -11    1    3    3    0    0  0.50880449438E+01 -0.20129684198E+02 -0.90985227740E+01  0.22668822294E+02  0.51100000000E-03 0.  1.
         12    1    3    3    0    0  0.12170380790E+02  0.20294658490E+02  0.15489403781E+02  0.28282732564E+02  0.00000000000E+00 0. -1.
</event>
<event>
 7    1  0.2153242E-013  0.7246157E+02  0.7816164E-02  0.1226708E+00
        -11   -1    0    0    0    0  0.00000000000E+00  0.00000000000E+00  0.45593999997E+02  0.45594000000E+02  0.51100000000E-03 0.  1.
         11   -1    0    0    0    0 -0.00000000000E+00 -0.00000000000E+00 -0.45593999997E+02  0.45594000000E+02  0.51100000000E-03 0. -1.
    9900012    2    1    2    0    0 -0.47301353479E+01  0.17442388089E+02 -0.49059345214E+01  0.72461567446E+02  0.69999996290E+02 0.  0.
         12    1    1    2    0    0  0.47301353479E+01 -0.17442388089E+02  0.49059345214E+01  0.18726432554E+02  0.00000000000E+00 0. -1.
         11    1    3    3    0    0 -0.26026557748E+02  0.15746025509E+02 -0.17034752945E+02  0.34864047896E+02  0.51100000000E-03 0.  1.
        -11    1    3    3    0    0 -0.25537863860E+01 -0.75284803767E+01 -0.22474526890E+01  0.82614094160E+01  0.51100000000E-03 0. -1.
        -12    1    3    3    0    0  0.23850208786E+02  0.92248429565E+01  0.14376271113E+02  0.29336110134E+02  0.00000000000E+00 0.  1.
</event>
<event>
 7    1  0.2153242E-013  0.7246154E+02  0.7816164E-02  0.1226708E+00
        -11   -1    0    0    0    0  0.00000000000E+00  0.00000000000E+00  0.45593999997E+02  0.45594000000E+02  0.51100000000E-03 0.  1.
         11   -1    0    0    0    0 -0.00000000000E+00 -0.00000000000E+00 -0.45593999997E+02  0.45594000000E+02  0.51100000000E-03 0. -1.
    9900012    2    1    2    0    0  0.10241191609E+02  0.39161524527E+01  0.15180970518E+02  0.72461544877E+02  0.69999966889E+02 0.  0.
         12    1    1    2    0    0 -0.10241191609E+02 -0.39161524527E+01 -0.15180970518E+02  0.18726455123E+02  0.00000000000E+00 0. -1.
         11    1    3    3    0    0  0.24656584250E+01 -0.17085917526E+02 -0.93930520405E+00  0.17288445381E+02  0.51100000000E-03 0. -1.
        -11    1    3    3    0    0  0.25727563660E+02  0.41139234954E+01  0.15904095067E+02  0.30524942893E+02  0.51100000000E-03 0.  1.
         12    1    3    3    0    0 -0.17952030476E+02  0.16888146483E+02  0.21618065452E+00  0.24648156603E+02  0.00000000000E+00 0. -1.
</event>
<event>
 7    1  0.2153242E-013  0.7246176E+02  0.7816164E-02  0.1226707E+00
        -11   -1    0    0    0    0  0.00000000000E+00  0.00000000000E+00  0.45593999997E+02  0.45594000000E+02  0.51100000000E-03 0.  1.
         11   -1    0    0    0    0 -0.00000000000E+00 -0.00000000000E+00 -0.45593999997E+02  0.45594000000E+02  0.51100000000E-03 0. -1.
    9900012    2    1    2    0    0 -0.10973187954E+02 -0.77869909454E+01 -0.13023970822E+02  0.72461764452E+02  0.70000252926E+02 0.  0.
         12    1    1    2    0    0  0.10973187954E+02  0.77869909454E+01  0.13023970822E+02  0.18726235548E+02  0.00000000000E+00 0. -1.
         11    1    3    3    0    0 -0.14937762320E+02  0.77885593122E+01 -0.29665859162E+02  0.34115415861E+02  0.51100000000E-03 0. -1.
        -11    1    3    3    0    0  0.37523751084E+01  0.63864402578E+01 -0.38150965714E+01  0.83319805708E+01  0.51100000000E-03 0.  1.
        -12    1    3    3    0    0  0.21219925798E+00 -0.21961990515E+02  0.20456984912E+02  0.30014368020E+02  0.00000000000E+00 0.  1.
</event>
<event>
 7    1  0.2153242E-013  0.7246153E+02  0.7816164E-02  0.1226708E+00
        -11   -1    0    0    0    0  0.00000000000E+00  0.00000000000E+00  0.45593999997E+02  0.45594000000E+02  0.51100000000E-03 0. -1.
         11   -1    0    0    0    0 -0.00000000000E+00 -0.00000000000E+00 -0.45593999997E+02  0.45594000000E+02  0.51100000000E-03 0.  1.
    9900012    2    1    2    0    0 -0.22845866735E+01 -0.17476892318E+02 -0.63260919453E+01  0.72461533685E+02  0.69999952309E+02 0.  0.
         12    1    1    2    0    0  0.22845866735E+01  0.17476892318E+02  0.63260919453E+01  0.18726466315E+02  0.00000000000E+00 0. -1.
         11    1    3    3    0    0  0.20898481217E+02 -0.36604804571E+01  0.12955896695E+02  0.24859623766E+02  0.51100000000E-03 0. -1.
        -11    1    3    3    0    0 -0.75659387103E+01  0.11438521388E+02 -0.45098127698E+01  0.14436814454E+02  0.51100000000E-03 0.  1.
        -12    1    3    3    0    0 -0.15617129180E+02 -0.25254933249E+02 -0.14772175871E+02  0.33165095465E+02  0.00000000000E+00 0.  1.
</event>
<event>
 7    1  0.2153242E-013  0.7246153E+02  0.7816164E-02  0.1226708E+00
        -11   -1    0    0    0    0  0.00000000000E+00  0.00000000000E+00  0.45593999997E+02  0.45594000000E+02  0.51100000000E-03 0. -1.
         11   -1    0    0    0    0 -0.00000000000E+00 -0.00000000000E+00 -0.45593999997E+02  0.45594000000E+02  0.51100000000E-03 0.  1.
    9900012    2    1    2    0    0  0.54716409619E+00  0.48960901995E+00 -0.18712072847E+02  0.72461527407E+02  0.69999944132E+02 0.  0.
         12    1    1    2    0    0 -0.54716409619E+00 -0.48960901995E+00  0.18712072847E+02  0.18726472593E+02  0.00000000000E+00 0. -1.
         11    1    3    3    0    0  0.12162051507E+02 -0.27533085674E+02 -0.68939106619E+01  0.30878994609E+02  0.51100000000E-03 0.  1.
        -11    1    3    3    0    0 -0.57138539342E+01 -0.15339217278E+01  0.43842640958E+01  0.73636142330E+01  0.51100000000E-03 0. -1.
        -12    1    3    3    0    0 -0.59010334769E+01  0.29556616422E+02 -0.16202426281E+02  0.34218918565E+02  0.00000000000E+00 0.  1.
</event>
<event>
 7    1  0.2153242E-013  0.7246156E+02  0.7816164E-02  0.1226708E+00
        -11   -1    0    0    0    0  0.00000000000E+00  0.00000000000E+00  0.45593999997E+02  0.45594000000E+02  0.51100000000E-03 0.  1.
         11   -1    0    0    0    0 -0.00000000000E+00 -0.00000000000E+00 -0.45593999997E+02  0.45594000000E+02  0.51100000000E-03 0. -1.
    9900012    2    1    2    0    0 -0.12787737315E+02 -0.41628111458E+01  0.13031664202E+02  0.72461561627E+02  0.69999988709E+02 0.  0.
         12    1    1    2    0    0  0.12787737315E+02  0.41628111458E+01 -0.13031664202E+02  0.18726438373E+02  0.00000000000E+00 0. -1.
         11    1    3    3    0    0  0.57379801606E+00 -0.11588294355E+02  0.35132072759E+00  0.11607809299E+02  0.51100000000E-03 0. -1.
        -11    1    3    3    0    0 -0.69145621656E+01  0.68723713505E+01  0.35666162801E+02  0.36974529437E+02  0.51100000000E-03 0.  1.
        -12    1    3    3    0    0 -0.64469731657E+01  0.55311185831E+00 -0.22985819327E+02  0.23879222890E+02  0.00000000000E+00 0.  1.
</event>
<event>
 7    1  0.2153242E-013  0.7246158E+02  0.7816164E-02  0.1226708E+00
        -11   -1    0    0    0    0  0.00000000000E+00  0.00000000000E+00  0.45593999997E+02  0.45594000000E+02  0.51100000000E-03 0. -1.
         11   -1    0    0    0    0 -0.00000000000E+00 -0.00000000000E+00 -0.45593999997E+02  0.45594000000E+02  0.51100000000E-03 0.  1.
    9900012    2    1    2    0    0  0.90249559767E+01 -0.15350933790E+02 -0.57946517744E+01  0.72461575147E+02  0.70000006321E+02 0.  0.
         12    1    1    2    0    0 -0.90249559767E+01  0.15350933790E+02  0.57946517744E+01  0.18726424853E+02  0.00000000000E+00 0. -1.
         11    1    3    3    0    0 -0.14072713060E+02  0.10125223548E+02 -0.48466305948E+01  0.18001423087E+02  0.51100000000E-03 0. -1.
        -11    1    3    3    0    0 -0.62790806339E+01  0.34997396433E+01 -0.99030691081E+01  0.12237067018E+02  0.51100000000E-03 0.  1.
        -12    1    3    3    0    0  0.29376749670E+02 -0.28975896981E+02  0.89550479285E+01  0.42223085042E+02  0.00000000000E+00 0.  1.
</event>
<event>
 7    1  0.2153242E-013  0.7246164E+02  0.7816164E-02  0.1226708E+00
        -11   -1    0    0    0    0  0.00000000000E+00  0.00000000000E+00  0.45593999997E+02  0.45594000000E+02  0.51100000000E-03 0.  1.
         11   -1    0    0    0    0 -0.00000000000E+00 -0.00000000000E+00 -0.45593999997E+02  0.45594000000E+02  0.51100000000E-03 0. -1.
    9900012    2    1    2    0    0  0.15288163391E+01 -0.84936154520E+01  0.16619199944E+02  0.72461639178E+02  0.70000089734E+02 0.  0.
         12    1    1    2    0    0 -0.15288163391E+01  0.84936154520E+01 -0.16619199944E+02  0.18726360822E+02  0.00000000000E+00 0. -1.
         11    1    3    3    0    0 -0.12979606459E+01  0.82844918500E+01 -0.23157789509E+02  0.24629265565E+02  0.51100000000E-03 0. -1.
        -11    1    3    3    0    0 -0.35164104630E+01  0.23613598358E+01  0.13654825870E+01  0.44503601849E+01  0.51100000000E-03 0.  1.
        -12    1    3    3    0    0  0.63431874481E+01 -0.19139467138E+02  0.38411506867E+02  0.43382013428E+02  0.00000000000E+00 0.  1.
</event>
<event>
 7    1  0.2153242E-013  0.7246141E+02  0.7816164E-02  0.1226708E+00
        -11   -1    0    0    0    0  0.00000000000E+00  0.00000000000E+00  0.45593999997E+02  0.45594000000E+02  0.51100000000E-03 0.  1.
         11   -1    0    0    0    0 -0.00000000000E+00 -0.00000000000E+00 -0.45593999997E+02  0.45594000000E+02  0.51100000000E-03 0. -1.
    9900012    2    1    2    0    0  0.80789489601E+01  0.16894082187E+02 -0.75499557562E-01  0.72461411164E+02  0.69999792703E+02 0.  0.
         12    1    1    2    0    0 -0.80789489601E+01 -0.16894082187E+02  0.75499557562E-01  0.18726588836E+02  0.00000000000E+00 0. -1.
         11    1    3    3    0    0  0.25958454786E+02  0.19625762138E+02 -0.14101168949E+02  0.35466249877E+02  0.51100000000E-03 0. -1.
        -11    1    3    3    0    0  0.67807408453E+01 -0.33062632522E+01 -0.17116626000E+01  0.77356067779E+01  0.51100000000E-03 0.  1.
        -12    1    3    3    0    0 -0.24660246671E+02  0.57458330174E+00  0.15737331991E+02  0.29259554509E+02  0.00000000000E+00 0.  1.
</event>
<event>
 7    1  0.2153242E-013  0.7246155E+02  0.7816164E-02  0.1226708E+00
        -11   -1    0    0    0    0  0.00000000000E+00  0.00000000000E+00  0.45593999997E+02  0.45594000000E+02  0.51100000000E-03 0.  1.
         11   -1    0    0    0    0 -0.00000000000E+00 -0.00000000000E+00 -0.45593999997E+02  0.45594000000E+02  0.51100000000E-03 0. -1.
    9900012    2    1    2    0    0  0.16417795408E+01  0.16680067586E+02  0.83522417460E+01  0.72461547135E+02  0.69999969830E+02 0.  0.
         12    1    1    2    0    0 -0.16417795408E+01 -0.16680067586E+02 -0.83522417460E+01  0.18726452865E+02  0.00000000000E+00 0. -1.
         11    1    3    3    0    0  0.69688868659E+01  0.14257030605E+02  0.12915231662E+02  0.20460486675E+02  0.51100000000E-03 0. -1.
        -11    1    3    3    0    0  0.96004185534E+01 -0.18582011613E+02 -0.13305940220E+02  0.24789256491E+02  0.51100000000E-03 0.  1.
         12    1    3    3    0    0 -0.14927525879E+02  0.21005048593E+02  0.87429503038E+01  0.27211803969E+02  0.00000000000E+00 0. -1.
</event>
<event>
 7    1  0.2153242E-013  0.7246159E+02  0.7816164E-02  0.1226708E+00
        -11   -1    0    0    0    0  0.00000000000E+00  0.00000000000E+00  0.45593999997E+02  0.45594000000E+02  0.51100000000E-03 0. -1.
         11   -1    0    0    0    0 -0.00000000000E+00 -0.00000000000E+00 -0.45593999997E+02  0.45594000000E+02  0.51100000000E-03 0.  1.
    9900012    2    1    2    0    0  0.16597046876E+02 -0.42699786354E+01 -0.75487457222E+01  0.72461594992E+02  0.70000032173E+02 0.  0.
         12    1    1    2    0    0 -0.16597046876E+02  0.42699786354E+01  0.75487457222E+01  0.18726405008E+02  0.00000000000E+00 0. -1.
         11    1    3    3    0    0  0.14666342193E+01 -0.12027573363E+02 -0.43750316555E+00  0.12124559629E+02  0.51100000000E-03 0. -1.
        -11    1    3    3    0    0 -0.14061270764E+02  0.21370949447E+01 -0.22686477253E+02  0.26776160306E+02  0.51100000000E-03 0.  1.
        -12    1    3    3    0    0  0.29191683421E+02  0.56204997825E+01  0.15575234696E+02  0.33560875057E+02  0.00000000000E+00 0.  1.
</event>
<event>
 7    1  0.2153242E-013  0.7246151E+02  0.7816164E-02  0.1226708E+00
        -11   -1    0    0    0    0  0.00000000000E+00  0.00000000000E+00  0.45593999997E+02  0.45594000000E+02  0.51100000000E-03 0. -1.
         11   -1    0    0    0    0 -0.00000000000E+00 -0.00000000000E+00 -0.45593999997E+02  0.45594000000E+02  0.51100000000E-03 0.  1.
    9900012    2    1    2    0    0 -0.11921596215E+02  0.44565134798E+01 -0.13736681740E+02  0.72461510901E+02  0.69999922630E+02 0.  0.
         12    1    1    2    0    0  0.11921596215E+02 -0.44565134798E+01  0.13736681740E+02  0.18726489099E+02  0.00000000000E+00 0. -1.
         11    1    3    3    0    0  0.83227722392E+01 -0.56610817605E+01  0.11384945482E+02  0.15196491975E+02  0.51100000000E-03 0. -1.
        -11    1    3    3    0    0  0.11133441835E+02 -0.10414413711E+01  0.51030656254E+01  0.12291436298E+02  0.51100000000E-03 0.  1.
        -12    1    3    3    0    0 -0.31377810290E+02  0.11159036611E+02 -0.30224692848E+02  0.44973582629E+02  0.00000000000E+00 0.  1.
</event>
<event>
 7    1  0.2153242E-013  0.7246152E+02  0.7816164E-02  0.1226708E+00
        -11   -1    0    0    0    0  0.00000000000E+00  0.00000000000E+00  0.45593999997E+02  0.45594000000E+02  0.51100000000E-03 0.  1.
         11   -1    0    0    0    0 -0.00000000000E+00 -0.00000000000E+00 -0.45593999997E+02  0.45594000000E+02  0.51100000000E-03 0. -1.
    9900012    2    1    2    0    0 -0.37430332896E+01  0.10359710815E+02  0.15144205537E+02  0.72461524952E+02  0.69999940933E+02 0.  0.
         12    1    1    2    0    0  0.37430332896E+01 -0.10359710815E+02 -0.15144205537E+02  0.18726475048E+02  0.00000000000E+00 0. -1.
         11    1    3    3    0    0 -0.21160548537E+02 -0.10702866220E+01  0.57546713311E+01  0.21955194607E+02  0.51100000000E-03 0. -1.
        -11    1    3    3    0    0  0.15612797728E+02 -0.14897712614E+02  0.10694245322E+02  0.24084604570E+02  0.51100000000E-03 0.  1.
        -12    1    3    3    0    0  0.18047175196E+01  0.26327710051E+02 -0.13047111154E+01  0.26421725775E+02  0.00000000000E+00 0.  1.
</event>
<event>
 7    1  0.2153242E-013  0.7246158E+02  0.7816164E-02  0.1226708E+00
        -11   -1    0    0    0    0  0.00000000000E+00  0.00000000000E+00  0.45593999997E+02  0.45594000000E+02  0.51100000000E-03 0.  1.
         11   -1    0    0    0    0 -0.00000000000E+00 -0.00000000000E+00 -0.45593999997E+02  0.45594000000E+02  0.51100000000E-03 0. -1.
    9900012    2    1    2    0    0  0.13514716684E+02  0.12293297988E+02 -0.41117033382E+01  0.72461578911E+02  0.70000011225E+02 0.  0.
         12    1    1    2    0    0 -0.13514716684E+02 -0.12293297988E+02  0.41117033382E+01  0.18726421089E+02  0.00000000000E+00 0. -1.
         11    1    3    3    0    0  0.35753519136E+01 -0.12379530245E+02  0.50888608393E+01  0.13853967493E+02  0.51100000000E-03 0. -1.
        -11    1    3    3    0    0  0.30410062993E+02  0.12585991873E+02 -0.11164871798E+02  0.34753898849E+02  0.51100000000E-03 0.  1.
        -12    1    3    3    0    0 -0.20470698223E+02  0.12086836360E+02  0.19643076202E+01  0.23853712569E+02  0.00000000000E+00 0.  1.
</event>
<event>
 7    1  0.2153242E-013  0.7246157E+02  0.7816164E-02  0.1226708E+00
        -11   -1    0    0    0    0  0.00000000000E+00  0.00000000000E+00  0.45593999997E+02  0.45594000000E+02  0.51100000000E-03 0. -1.
         11   -1    0    0    0    0 -0.00000000000E+00 -0.00000000000E+00 -0.45593999997E+02  0.45594000000E+02  0.51100000000E-03 0.  1.
    9900012    2    1    2    0    0 -0.12629674133E+02 -0.13241230180E+02 -0.39800000387E+01  0.72461568260E+02  0.69999997350E+02 0.  0.
         12    1    1    2    0    0  0.12629674133E+02  0.13241230180E+02  0.39800000387E+01  0.18726431740E+02  0.00000000000E+00 0. -1.
         11    1    3    3    0    0 -0.12275989528E+01  0.21692612528E+02 -0.87275637056E+01  0.23414670742E+02  0.51100000000E-03 0. -1.
        -11    1    3    3    0    0 -0.91635084360E+01 -0.12140759760E+02 -0.13050155275E+02  0.20041818464E+02  0.51100000000E-03 0.  1.
        -12    1    3    3    0    0 -0.22385667447E+01 -0.22793082948E+02  0.17797718942E+02  0.29005079053E+02  0.00000000000E+00 0.  1.
</event>
<event>
 7    1  0.2153242E-013  0.7246155E+02  0.7816164E-02  0.1226708E+00
        -11   -1    0    0    0    0  0.00000000000E+00  0.00000000000E+00  0.45593999997E+02  0.45594000000E+02  0.51100000000E-03 0.  1.
         11   -1    0    0    0    0 -0.00000000000E+00 -0.00000000000E+00 -0.45593999997E+02  0.45594000000E+02  0.51100000000E-03 0. -1.
    9900012    2    1    2    0    0  0.34951195123E+01 -0.14338085434E+02  0.11527497281E+02  0.72461554852E+02  0.69999979884E+02 0.  0.
         12    1    1    2    0    0 -0.34951195123E+01  0.14338085434E+02 -0.11527497281E+02  0.18726445148E+02  0.00000000000E+00 0. -1.
         11    1    3    3    0    0  0.27545842371E+00 -0.25252111174E+02 -0.19645228288E+02  0.31994999466E+02  0.51100000000E-03 0. -1.
        -11    1    3    3    0    0 -0.60478107574E+00  0.68256940243E-01 -0.36983246993E+01  0.37480695034E+01  0.51100000000E-03 0.  1.
        -12    1    3    3    0    0  0.38244421644E+01  0.10845768799E+02  0.34871050268E+02  0.36718485883E+02  0.00000000000E+00 0.  1.
</event>
<event>
 7    1  0.2153242E-013  0.7246166E+02  0.7816164E-02  0.1226708E+00
        -11   -1    0    0    0    0  0.00000000000E+00  0.00000000000E+00  0.45593999997E+02  0.45594000000E+02  0.51100000000E-03 0.  1.
         11   -1    0    0    0    0 -0.00000000000E+00 -0.00000000000E+00 -0.45593999997E+02  0.45594000000E+02  0.51100000000E-03 0. -1.
    9900012    2    1    2    0    0 -0.12496735626E+02  0.13080108066E+02  0.48392430727E+01  0.72461657542E+02  0.70000113656E+02 0.  0.
         12    1    1    2    0    0  0.12496735626E+02 -0.13080108066E+02 -0.48392430727E+01  0.18726342458E+02  0.00000000000E+00 0. -1.
         11    1    3    3    0    0 -0.23061232313E+01 -0.20811988133E+01 -0.11862748255E+01  0.33251828643E+01  0.51100000000E-03 0. -1.
        -11    1    3    3    0    0 -0.35657518080E+02  0.20998054233E+02  0.10345588834E+02  0.42654520110E+02  0.51100000000E-03 0.  1.
         12    1    3    3    0    0  0.25466905685E+02 -0.58367473534E+01 -0.43200709355E+01  0.26481954568E+02  0.00000000000E+00 0. -1.
</event>
<event>
 7    1  0.2153242E-013  0.7246158E+02  0.7816164E-02  0.1226708E+00
        -11   -1    0    0    0    0  0.00000000000E+00  0.00000000000E+00  0.45593999997E+02  0.45594000000E+02  0.51100000000E-03 0.  1.
         11   -1    0    0    0    0 -0.00000000000E+00 -0.00000000000E+00 -0.45593999997E+02  0.45594000000E+02  0.51100000000E-03 0. -1.
    9900012    2    1    2    0    0 -0.85142043708E+01  0.53863586130E+00  0.16670237599E+02  0.72461584799E+02  0.70000018896E+02 0.  0.
         12    1    1    2    0    0  0.85142043708E+01 -0.53863586130E+00 -0.16670237599E+02  0.18726415201E+02  0.00000000000E+00 0. -1.
         11    1    3    3    0    0 -0.12530660694E+02  0.11953286286E+02  0.17249276655E+01  0.17403272283E+02  0.51100000000E-03 0. -1.
        -11    1    3    3    0    0  0.12027388841E+02  0.11585670042E+02  0.23859115196E+02  0.29122898394E+02  0.51100000000E-03 0.  1.
         12    1    3    3    0    0 -0.80109325181E+01 -0.23000320467E+02 -0.89138052629E+01  0.25935414122E+02  0.00000000000E+00 0. -1.
</event>
<event>
 7    1  0.2153242E-013  0.7246153E+02  0.7816164E-02  0.1226708E+00
        -11   -1    0    0    0    0  0.00000000000E+00  0.00000000000E+00  0.45593999997E+02  0.45594000000E+02  0.51100000000E-03 0. -1.
         11   -1    0    0    0    0 -0.00000000000E+00 -0.00000000000E+00 -0.45593999997E+02  0.45594000000E+02  0.51100000000E-03 0.  1.
    9900012    2    1    2    0    0 -0.92475865199E+01  0.14714899282E+02 -0.69738450984E+01  0.72461531225E+02  0.69999949105E+02 0.  0.
         12    1    1    2    0    0  0.92475865199E+01 -0.14714899282E+02  0.69738450984E+01  0.18726468775E+02  0.00000000000E+00 0. -1.
         11    1    3    3    0    0 -0.10394064459E+02  0.28264184468E+01  0.15575560212E+02  0.18937351805E+02  0.51100000000E-03 0. -1.
        -11    1    3    3    0    0 -0.14331719452E+02 -0.14495033277E+01  0.82226302795E+01  0.16586467114E+02  0.51100000000E-03 0.  1.
        -12    1    3    3    0    0  0.15478197392E+02  0.13337984163E+02 -0.30772035590E+02  0.36937712306E+02  0.00000000000E+00 0.  1.
</event>
<event>
 7    1  0.2153242E-013  0.7246163E+02  0.7816164E-02  0.1226708E+00
        -11   -1    0    0    0    0  0.00000000000E+00  0.00000000000E+00  0.45593999997E+02  0.45594000000E+02  0.51100000000E-03 0.  1.
         11   -1    0    0    0    0 -0.00000000000E+00 -0.00000000000E+00 -0.45593999997E+02  0.45594000000E+02  0.51100000000E-03 0. -1.
    9900012    2    1    2    0    0 -0.18432804194E+02 -0.10864738089E+00  0.33010451904E+01  0.72461628914E+02  0.70000076363E+02 0.  0.
         12    1    1    2    0    0  0.18432804194E+02  0.10864738089E+00 -0.33010451904E+01  0.18726371086E+02  0.00000000000E+00 0. -1.
         11    1    3    3    0    0 -0.20477183101E+02 -0.13528344986E+02  0.20518529686E+02  0.31989704696E+02  0.51100000000E-03 0.  1.
        -11    1    3    3    0    0 -0.12881270740E+02  0.15968225773E+02 -0.14412792257E+02  0.25072693336E+02  0.51100000000E-03 0. -1.
        -12    1    3    3    0    0  0.14925649647E+02 -0.25485281680E+01 -0.28046922386E+01  0.15399230882E+02  0.00000000000E+00 0.  1.
</event>
<event>
 7    1  0.2153242E-013  0.7246155E+02  0.7816164E-02  0.1226708E+00
        -11   -1    0    0    0    0  0.00000000000E+00  0.00000000000E+00  0.45593999997E+02  0.45594000000E+02  0.51100000000E-03 0.  1.
         11   -1    0    0    0    0 -0.00000000000E+00 -0.00000000000E+00 -0.45593999997E+02  0.45594000000E+02  0.51100000000E-03 0. -1.
    9900012    2    1    2    0    0 -0.20514250088E+01  0.17333163914E+02  0.67847763783E+01  0.72461545281E+02  0.69999967415E+02 0.  0.
         12    1    1    2    0    0  0.20514250088E+01 -0.17333163914E+02 -0.67847763783E+01  0.18726454719E+02  0.00000000000E+00 0. -1.
         11    1    3    3    0    0 -0.96449305459E+01  0.16748054508E+02  0.14670484853E+02  0.24264070992E+02  0.51100000000E-03 0.  1.
        -11    1    3    3    0    0 -0.65542843974E+01 -0.20844801814E+02 -0.29603962679E+01  0.22050586227E+02  0.51100000000E-03 0. -1.
        -12    1    3    3    0    0  0.14147789935E+02  0.21429911220E+02 -0.49253122066E+01  0.26146888061E+02  0.00000000000E+00 0.  1.
</event>
<event>
 7    1  0.2153242E-013  0.7246159E+02  0.7816164E-02  0.1226708E+00
        -11   -1    0    0    0    0  0.00000000000E+00  0.00000000000E+00  0.45593999997E+02  0.45594000000E+02  0.51100000000E-03 0.  1.
         11   -1    0    0    0    0 -0.00000000000E+00 -0.00000000000E+00 -0.45593999997E+02  0.45594000000E+02  0.51100000000E-03 0. -1.
    9900012    2    1    2    0    0  0.11459147821E+02 -0.14796918319E+02  0.64628249333E+00  0.72461587060E+02  0.70000021840E+02 0.  0.
         12    1    1    2    0    0 -0.11459147821E+02  0.14796918319E+02 -0.64628249333E+00  0.18726412940E+02  0.00000000000E+00 0. -1.
         11    1    3    3    0    0 -0.14179701004E+01 -0.56065543603E+01  0.87092868168E+01  0.10454461637E+02  0.51100000000E-03 0. -1.
        -11    1    3    3    0    0 -0.18292555183E+02 -0.12439688621E+02 -0.18644194147E+02  0.28930423497E+02  0.51100000000E-03 0.  1.
        -12    1    3    3    0    0  0.31169673105E+02  0.32493246617E+01  0.10581189823E+02  0.33076701926E+02  0.00000000000E+00 0.  1.
</event>
<event>
 7    1  0.2153242E-013  0.7246159E+02  0.7816164E-02  0.1226708E+00
        -11   -1    0    0    0    0  0.00000000000E+00  0.00000000000E+00  0.45593999997E+02  0.45594000000E+02  0.51100000000E-03 0. -1.
         11   -1    0    0    0    0 -0.00000000000E+00 -0.00000000000E+00 -0.45593999997E+02  0.45594000000E+02  0.51100000000E-03 0.  1.
    9900012    2    1    2    0    0 -0.24600888573E+01 -0.13864065034E+02 -0.12345605642E+02  0.72461593107E+02  0.70000029718E+02 0.  0.
         12    1    1    2    0    0  0.24600888573E+01  0.13864065034E+02  0.12345605642E+02  0.18726406893E+02  0.00000000000E+00 0. -1.
         11    1    3    3    0    0 -0.90374206761E+01 -0.24914865554E+02 -0.15923984134E+02  0.30919229761E+02  0.51100000000E-03 0. -1.
        -11    1    3    3    0    0 -0.17939185103E+01 -0.56703280014E+01 -0.14413788795E+02  0.15592564604E+02  0.51100000000E-03 0.  1.
         12    1    3    3    0    0  0.83712503290E+01  0.16721128521E+02  0.17992167286E+02  0.25949798742E+02  0.00000000000E+00 0. -1.
</event>
<event>
 7    1  0.2153242E-013  0.7246157E+02  0.7816164E-02  0.1226708E+00
        -11   -1    0    0    0    0  0.00000000000E+00  0.00000000000E+00  0.45593999997E+02  0.45594000000E+02  0.51100000000E-03 0.  1.
         11   -1    0    0    0    0 -0.00000000000E+00 -0.00000000000E+00 -0.45593999997E+02  0.45594000000E+02  0.51100000000E-03 0. -1.
    9900012    2    1    2    0    0 -0.63632965090E+01 -0.31717913731E+01  0.17324188458E+02  0.72461566578E+02  0.69999995159E+02 0.  0.
         12    1    1    2    0    0  0.63632965090E+01  0.31717913731E+01 -0.17324188458E+02  0.18726433422E+02  0.00000000000E+00 0. -1.
         11    1    3    3    0    0 -0.10111019465E+02  0.22754414412E+01 -0.12386744027E+02  0.16150596776E+02  0.51100000000E-03 0. -1.
        -11    1    3    3    0    0  0.13936798266E+02  0.13943708512E+02  0.39915462698E+00  0.19718536398E+02  0.51100000000E-03 0.  1.
        -12    1    3    3    0    0 -0.10189075310E+02 -0.19390941327E+02  0.29311777858E+02  0.36592433404E+02  0.00000000000E+00 0.  1.
</event>
<event>
 7    1  0.2690588E-013  0.7246143E+02  0.7816164E-02  0.1226708E+00
        -11   -1    0    0    0    0  0.00000000000E+00  0.00000000000E+00  0.45593999997E+02  0.45594000000E+02  0.51100000000E-03 0. -1.
         11   -1    0    0    0    0 -0.00000000000E+00 -0.00000000000E+00 -0.45593999997E+02  0.45594000000E+02  0.51100000000E-03 0.  1.
    9900012    2    1    2    0    0 -0.14073732004E+02  0.23234439588E+01 -0.12133268308E+02  0.72461427324E+02  0.69999813755E+02 0.  0.
         12    1    1    2    0    0  0.14073732004E+02 -0.23234439588E+01  0.12133268308E+02  0.18726572676E+02  0.00000000000E+00 0. -1.
         11    1    3    3    0    0 -0.20052453809E+01 -0.36146623967E+01  0.39058576028E+01  0.56870481935E+01  0.51100000000E-03 0. -1.
        -11    1    3    3    0    0 -0.90653630300E+01 -0.27933624995E+02 -0.46133777374E+00  0.29371432465E+02  0.51100000000E-03 0.  1.
         12    1    3    3    0    0 -0.30031235927E+01  0.33871731351E+02 -0.15577788137E+02  0.37402946666E+02  0.00000000000E+00 0. -1.
</event>
<event>
 7    1  0.2153242E-013  0.7246159E+02  0.7816164E-02  0.1226708E+00
        -11   -1    0    0    0    0  0.00000000000E+00  0.00000000000E+00  0.45593999997E+02  0.45594000000E+02  0.51100000000E-03 0.  1.
         11   -1    0    0    0    0 -0.00000000000E+00 -0.00000000000E+00 -0.45593999997E+02  0.45594000000E+02  0.51100000000E-03 0. -1.
    9900012    2    1    2    0    0 -0.16393097568E+01 -0.99550673469E+01  0.15776171277E+02  0.72461593977E+02  0.70000030852E+02 0.  0.
         12    1    1    2    0    0  0.16393097568E+01  0.99550673469E+01 -0.15776171277E+02  0.18726406023E+02  0.00000000000E+00 0. -1.
         11    1    3    3    0    0  0.45172367562E+01  0.52534733549E+01  0.10084067971E+02  0.12234902423E+02  0.51100000000E-03 0. -1.
        -11    1    3    3    0    0  0.10490195988E+02  0.11482530292E+01  0.26772760614E+02  0.28777480919E+02  0.51100000000E-03 0.  1.
         12    1    3    3    0    0 -0.16646742501E+02 -0.16356793731E+02 -0.21080657308E+02  0.31449210635E+02  0.00000000000E+00 0. -1.
</event>
<event>
 7    1  0.2153242E-013  0.7246131E+02  0.7816164E-02  0.1226709E+00
        -11   -1    0    0    0    0  0.00000000000E+00  0.00000000000E+00  0.45593999997E+02  0.45594000000E+02  0.51100000000E-03 0.  1.
         11   -1    0    0    0    0 -0.00000000000E+00 -0.00000000000E+00 -0.45593999997E+02  0.45594000000E+02  0.51100000000E-03 0. -1.
    9900012    2    1    2    0    0  0.14320532309E+02  0.11649942252E+02  0.31448605082E+01  0.72461309216E+02  0.69999659897E+02 0.  0.
         12    1    1    2    0    0 -0.14320532309E+02 -0.11649942252E+02 -0.31448605082E+01  0.18726690784E+02  0.00000000000E+00 0. -1.
         11    1    3    3    0    0 -0.29194261548E+01 -0.16898624449E+02  0.70429907785E+00  0.17163408601E+02  0.51100000000E-03 0. -1.
        -11    1    3    3    0    0  0.29731774479E+02  0.79240477896E+01 -0.17699248609E+01  0.30820473412E+02  0.51100000000E-03 0.  1.
         12    1    3    3    0    0 -0.12491816016E+02  0.20624518912E+02  0.42104862913E+01  0.24477427204E+02  0.00000000000E+00 0. -1.
</event>
<event>
 7    1  0.2153242E-013  0.7246158E+02  0.7816164E-02  0.1226708E+00
        -11   -1    0    0    0    0  0.00000000000E+00  0.00000000000E+00  0.45593999997E+02  0.45594000000E+02  0.51100000000E-03 0.  1.
         11   -1    0    0    0    0 -0.00000000000E+00 -0.00000000000E+00 -0.45593999997E+02  0.45594000000E+02  0.51100000000E-03 0. -1.
    9900012    2    1    2    0    0 -0.18711012385E+02  0.40596743736E+00 -0.64177981506E+00  0.72461583488E+02  0.70000017188E+02 0.  0.
         12    1    1    2    0    0  0.18711012385E+02 -0.40596743736E+00  0.64177981506E+00  0.18726416512E+02  0.00000000000E+00 0. -1.
         11    1    3    3    0    0 -0.15470429733E+02  0.17302803239E+02  0.18538688006E+01  0.23284287102E+02  0.51100000000E-03 0. -1.
        -11    1    3    3    0    0 -0.26089937006E+01 -0.22705094510E+02  0.17219048079E+02  0.28615097097E+02  0.51100000000E-03 0.  1.
         12    1    3    3    0    0 -0.63158895207E+00  0.58082587084E+01 -0.19714696695E+02  0.20562199289E+02  0.00000000000E+00 0. -1.
</event>
<event>
 7    1  0.2153242E-013  0.7246146E+02  0.7816164E-02  0.1226708E+00
        -11   -1    0    0    0    0  0.00000000000E+00  0.00000000000E+00  0.45593999997E+02  0.45594000000E+02  0.51100000000E-03 0. -1.
         11   -1    0    0    0    0 -0.00000000000E+00 -0.00000000000E+00 -0.45593999997E+02  0.45594000000E+02  0.51100000000E-03 0.  1.
    9900012    2    1    2    0    0 -0.10278389517E+02  0.26838029167E+01 -0.15421909079E+02  0.72461458173E+02  0.69999853941E+02 0.  0.
         12    1    1    2    0    0  0.10278389517E+02 -0.26838029167E+01  0.15421909079E+02  0.18726541827E+02  0.00000000000E+00 0. -1.
         11    1    3    3    0    0  0.59642502740E+01 -0.20937229277E+02 -0.94061872765E+01  0.23715315947E+02  0.51100000000E-03 0. -1.
        -11    1    3    3    0    0  0.10507313487E+02  0.77432558558E+01  0.72473843693E+01  0.14929374682E+02  0.51100000000E-03 0.  1.
        -12    1    3    3    0    0 -0.26749953277E+02  0.15877776338E+02 -0.13263106172E+02  0.33816767544E+02  0.00000000000E+00 0.  1.
</event>
<event>
 7    1  0.2153242E-013  0.7246157E+02  0.7816164E-02  0.1226708E+00
        -11   -1    0    0    0    0  0.00000000000E+00  0.00000000000E+00  0.45593999997E+02  0.45594000000E+02  0.51100000000E-03 0.  1.
         11   -1    0    0    0    0 -0.00000000000E+00 -0.00000000000E+00 -0.45593999997E+02  0.45594000000E+02  0.51100000000E-03 0. -1.
    9900012    2    1    2    0    0  0.12267807028E+02  0.14135557249E+02  0.60508142124E+00  0.72461569706E+02  0.69999999234E+02 0.  0.
         12    1    1    2    0    0 -0.12267807028E+02 -0.14135557249E+02 -0.60508142124E+00  0.18726430294E+02  0.00000000000E+00 0. -1.
         11    1    3    3    0    0 -0.64538435911E+01  0.18035015225E+01  0.27599065036E+00  0.67067791033E+01  0.51100000000E-03 0. -1.
        -11    1    3    3    0    0  0.14410120106E+02 -0.11335413583E+02  0.25192763882E+02  0.31157960698E+02  0.51100000000E-03 0.  1.
         12    1    3    3    0    0  0.43115305131E+01  0.23667469310E+02 -0.24863673111E+02  0.34596829905E+02  0.00000000000E+00 0. -1.
</event>
<event>
 7    1  0.2153242E-013  0.7246154E+02  0.7816164E-02  0.1226708E+00
        -11   -1    0    0    0    0  0.00000000000E+00  0.00000000000E+00  0.45593999997E+02  0.45594000000E+02  0.51100000000E-03 0. -1.
         11   -1    0    0    0    0 -0.00000000000E+00 -0.00000000000E+00 -0.45593999997E+02  0.45594000000E+02  0.51100000000E-03 0.  1.
    9900012    2    1    2    0    0 -0.17690851451E+02  0.56079137472E+01 -0.25030439271E+01  0.72461544101E+02  0.69999965878E+02 0.  0.
         12    1    1    2    0    0  0.17690851451E+02 -0.56079137472E+01  0.25030439271E+01  0.18726455899E+02  0.00000000000E+00 0. -1.
         11    1    3    3    0    0 -0.26914604801E+01 -0.17473940846E+02 -0.30060733131E+01  0.17933740414E+02  0.51100000000E-03 0. -1.
        -11    1    3    3    0    0  0.14463528613E+02  0.20308084503E+02  0.16906420708E+00  0.24932720250E+02  0.51100000000E-03 0.  1.
         12    1    3    3    0    0 -0.29462919583E+02  0.27737700907E+01  0.33396517884E+00  0.29595083437E+02  0.00000000000E+00 0. -1.
</event>
<event>
 7    1  0.2153242E-013  0.7246167E+02  0.7816164E-02  0.1226708E+00
        -11   -1    0    0    0    0  0.00000000000E+00  0.00000000000E+00  0.45593999997E+02  0.45594000000E+02  0.51100000000E-03 0.  1.
         11   -1    0    0    0    0 -0.00000000000E+00 -0.00000000000E+00 -0.45593999997E+02  0.45594000000E+02  0.51100000000E-03 0. -1.
    9900012    2    1    2    0    0 -0.12115354772E+02  0.86781982798E+00  0.14252737587E+02  0.72461669307E+02  0.70000128982E+02 0.  0.
         12    1    1    2    0    0  0.12115354772E+02 -0.86781982798E+00 -0.14252737587E+02  0.18726330693E+02  0.00000000000E+00 0. -1.
         11    1    3    3    0    0 -0.14980429594E+02 -0.87561191804E+01  0.11464380583E+02  0.20796992964E+02  0.51100000000E-03 0. -1.
        -11    1    3    3    0    0 -0.17767794669E+02 -0.99121658233E+01  0.95216149603E+01  0.22463452771E+02  0.51100000000E-03 0.  1.
         12    1    3    3    0    0  0.20632869491E+02  0.19536104832E+02 -0.67332579558E+01  0.29201223572E+02  0.00000000000E+00 0. -1.
</event>
<event>
 7    1  0.2153242E-013  0.7246185E+02  0.7816164E-02  0.1226707E+00
        -11   -1    0    0    0    0  0.00000000000E+00  0.00000000000E+00  0.45593999997E+02  0.45594000000E+02  0.51100000000E-03 0. -1.
         11   -1    0    0    0    0 -0.00000000000E+00 -0.00000000000E+00 -0.45593999997E+02  0.45594000000E+02  0.51100000000E-03 0.  1.
    9900012    2    1    2    0    0 -0.15777881680E+02  0.10053577465E+02  0.80792260203E+00  0.72461849593E+02  0.70000363837E+02 0.  0.
         12    1    1    2    0    0  0.15777881680E+02 -0.10053577465E+02 -0.80792260203E+00  0.18726150407E+02  0.00000000000E+00 0. -1.
         11    1    3    3    0    0 -0.18722651020E+02  0.35268112063E+01  0.16483439167E+02  0.25192852668E+02  0.51100000000E-03 0. -1.
        -11    1    3    3    0    0 -0.98279883387E+01 -0.74661034735E+00  0.12243114392E+02  0.15717526271E+02  0.51100000000E-03 0.  1.
        -12    1    3    3    0    0  0.12772757679E+02  0.72733766057E+01 -0.27918630956E+02  0.31551470655E+02  0.00000000000E+00 0.  1.
</event>
<event>
 7    1  0.2153242E-013  0.7246150E+02  0.7816164E-02  0.1226708E+00
        -11   -1    0    0    0    0  0.00000000000E+00  0.00000000000E+00  0.45593999997E+02  0.45594000000E+02  0.51100000000E-03 0. -1.
         11   -1    0    0    0    0 -0.00000000000E+00 -0.00000000000E+00 -0.45593999997E+02  0.45594000000E+02  0.51100000000E-03 0.  1.
    9900012    2    1    2    0    0  0.29558814256E+01 -0.81340789796E+01 -0.16606667349E+02  0.72461498023E+02  0.69999905853E+02 0.  0.
         12    1    1    2    0    0 -0.29558814256E+01  0.81340789796E+01  0.16606667349E+02  0.18726501977E+02  0.00000000000E+00 0. -1.
         11    1    3    3    0    0  0.73648799026E-01 -0.25798089768E+01 -0.14361094653E+02  0.14591157542E+02  0.51100000000E-03 0. -1.
        -11    1    3    3    0    0  0.52720026133E+01 -0.12951445299E+02 -0.27822159720E+02  0.31138505401E+02  0.51100000000E-03 0.  1.
         12    1    3    3    0    0 -0.23897699868E+01  0.73971752965E+01  0.25576587024E+02  0.26731835080E+02  0.00000000000E+00 0. -1.
</event>
<event>
 7    1  0.2153242E-013  0.7246156E+02  0.7816164E-02  0.1226708E+00
        -11   -1    0    0    0    0  0.00000000000E+00  0.00000000000E+00  0.45593999997E+02  0.45594000000E+02  0.51100000000E-03 0.  1.
         11   -1    0    0    0    0 -0.00000000000E+00 -0.00000000000E+00 -0.45593999997E+02  0.45594000000E+02  0.51100000000E-03 0. -1.
    9900012    2    1    2    0    0  0.69949209666E+01 -0.92795729125E+01  0.14684694662E+02  0.72461557463E+02  0.69999983285E+02 0.  0.
         12    1    1    2    0    0 -0.69949209666E+01  0.92795729125E+01 -0.14684694662E+02  0.18726442537E+02  0.00000000000E+00 0. -1.
         11    1    3    3    0    0  0.25806505040E+01  0.78697399130E+01  0.15774195254E+02  0.17816222930E+02  0.51100000000E-03 0. -1.
        -11    1    3    3    0    0  0.25423137137E+02 -0.61921406511E+01  0.10590614378E+02  0.28228347825E+02  0.51100000000E-03 0.  1.
         12    1    3    3    0    0 -0.21008866675E+02 -0.10957172174E+02 -0.11680114970E+02  0.26416986708E+02  0.00000000000E+00 0. -1.
</event>
<event>
 7    1  0.2153242E-013  0.7246157E+02  0.7816164E-02  0.1226708E+00
        -11   -1    0    0    0    0  0.00000000000E+00  0.00000000000E+00  0.45593999997E+02  0.45594000000E+02  0.51100000000E-03 0. -1.
         11   -1    0    0    0    0 -0.00000000000E+00 -0.00000000000E+00 -0.45593999997E+02  0.45594000000E+02  0.51100000000E-03 0.  1.
    9900012    2    1    2    0    0  0.11796202406E+02 -0.60099164005E+01 -0.13244226042E+02  0.72461574559E+02  0.70000005555E+02 0.  0.
         12    1    1    2    0    0 -0.11796202406E+02  0.60099164005E+01  0.13244226042E+02  0.18726425441E+02  0.00000000000E+00 0. -1.
         11    1    3    3    0    0  0.14073262378E+02 -0.12291192311E+02 -0.39255976093E+01  0.19092942132E+02  0.51100000000E-03 0. -1.
        -11    1    3    3    0    0 -0.17780991581E+02 -0.15574372161E+02  0.30904608237E+01  0.23838533474E+02  0.51100000000E-03 0.  1.
        -12    1    3    3    0    0  0.15503931609E+02  0.21855648072E+02 -0.12409089257E+02  0.29530098953E+02  0.00000000000E+00 0.  1.
</event>
<event>
 7    1  0.2153242E-013  0.7246155E+02  0.7816164E-02  0.1226708E+00
        -11   -1    0    0    0    0  0.00000000000E+00  0.00000000000E+00  0.45593999997E+02  0.45594000000E+02  0.51100000000E-03 0.  1.
         11   -1    0    0    0    0 -0.00000000000E+00 -0.00000000000E+00 -0.45593999997E+02  0.45594000000E+02  0.51100000000E-03 0. -1.
    9900012    2    1    2    0    0 -0.14887430650E+02  0.10792787626E+02  0.35440340995E+01  0.72461547218E+02  0.69999969939E+02 0.  0.
         12    1    1    2    0    0  0.14887430650E+02 -0.10792787626E+02 -0.35440340995E+01  0.18726452782E+02  0.00000000000E+00 0. -1.
         11    1    3    3    0    0  0.13953882674E+02  0.17926766611E+02 -0.58895451612E+01  0.23468415909E+02  0.51100000000E-03 0. -1.
        -11    1    3    3    0    0 -0.97652458551E+01  0.24825903376E+01  0.22007536943E+02  0.24204440997E+02  0.51100000000E-03 0.  1.
        -12    1    3    3    0    0 -0.19076067469E+02 -0.96165693225E+01 -0.12573957682E+02  0.24788690312E+02  0.00000000000E+00 0.  1.
</event>
<event>
 8    1  0.2153242E-013  0.7246158E+02  0.7816164E-02  0.1226708E+00
        -11   -1    0    0    0    0  0.00000000000E+00  0.00000000000E+00  0.45593999997E+02  0.45594000000E+02  0.51100000000E-03 0. -1.
         11   -1    0    0    0    0 -0.00000000000E+00 -0.00000000000E+00 -0.45593999997E+02  0.45594000000E+02  0.51100000000E-03 0.  1.
    9900012    2    1    2    0    0 -0.17685399521E+02 -0.27420659260E+01 -0.55124094714E+01  0.72461576425E+02  0.70000007986E+02 0.  0.
         23    2    3    3    0    0 -0.10541079791E+02  0.19294125264E+01 -0.12296491278E+01  0.62911390484E+02  0.61979787187E+02 0.  0.
         12    1    1    2    0    0  0.17685399521E+02  0.27420659260E+01  0.55124094714E+01  0.18726423575E+02  0.00000000000E+00 0. -1.
         11    1    4    4    0    0 -0.18690866476E+02 -0.20627416339E+02 -0.18441554363E+02  0.33390563368E+02  0.51100000000E-03 0.  1.
        -11    1    4    4    0    0  0.81497866851E+01  0.22556828866E+02  0.17211905236E+02  0.29520827116E+02  0.51100000000E-03 0. -1.
         12    1    3    3    0    0 -0.71443197302E+01 -0.46714784525E+01 -0.42827603436E+01  0.95501859406E+01  0.00000000000E+00 0. -1.
</event>
<event>
 7    1  0.2153242E-013  0.7246157E+02  0.7816164E-02  0.1226708E+00
        -11   -1    0    0    0    0  0.00000000000E+00  0.00000000000E+00  0.45593999997E+02  0.45594000000E+02  0.51100000000E-03 0. -1.
         11   -1    0    0    0    0 -0.00000000000E+00 -0.00000000000E+00 -0.45593999997E+02  0.45594000000E+02  0.51100000000E-03 0.  1.
    9900012    2    1    2    0    0  0.24051962031E+01  0.17868923012E+02 -0.50592125747E+01  0.72461574547E+02  0.70000005539E+02 0.  0.
         12    1    1    2    0    0 -0.24051962031E+01 -0.17868923012E+02  0.50592125747E+01  0.18726425453E+02  0.00000000000E+00 0. -1.
         11    1    3    3    0    0 -0.22830088505E+02  0.64192053756E+01  0.72009283698E+01  0.24784521550E+02  0.51100000000E-03 0. -1.
        -11    1    3    3    0    0 -0.38740480598E+01  0.15781069040E+02 -0.14094139722E+01  0.16310635684E+02  0.51100000000E-03 0.  1.
         12    1    3    3    0    0  0.29109332768E+02 -0.43313514039E+01 -0.10850726972E+02  0.31366417312E+02  0.00000000000E+00 0. -1.
</event>
<event>
 7    1  0.2153242E-013  0.7246153E+02  0.7816164E-02  0.1226708E+00
        -11   -1    0    0    0    0  0.00000000000E+00  0.00000000000E+00  0.45593999997E+02  0.45594000000E+02  0.51100000000E-03 0. -1.
         11   -1    0    0    0    0 -0.00000000000E+00 -0.00000000000E+00 -0.45593999997E+02  0.45594000000E+02  0.51100000000E-03 0.  1.
    9900012    2    1    2    0    0  0.13839786507E+02  0.12389489700E+02  0.23751827365E+01  0.72461531069E+02  0.69999948902E+02 0.  0.
         12    1    1    2    0    0 -0.13839786507E+02 -0.12389489700E+02 -0.23751827365E+01  0.18726468931E+02  0.00000000000E+00 0. -1.
         11    1    3    3    0    0 -0.20953613074E+02  0.65846611467E+01  0.17639392961E+02  0.28170194312E+02  0.51100000000E-03 0. -1.
        -11    1    3    3    0    0 -0.27927402692E+01  0.77143236504E+00  0.94945894727E+00  0.30489307402E+01  0.51100000000E-03 0.  1.
        -12    1    3    3    0    0  0.37586139850E+02  0.50333961885E+01 -0.16213669172E+02  0.41242406017E+02  0.00000000000E+00 0.  1.
</event>
<event>
 7    1  0.2153242E-013  0.7246156E+02  0.7816164E-02  0.1226708E+00
        -11   -1    0    0    0    0  0.00000000000E+00  0.00000000000E+00  0.45593999997E+02  0.45594000000E+02  0.51100000000E-03 0.  1.
         11   -1    0    0    0    0 -0.00000000000E+00 -0.00000000000E+00 -0.45593999997E+02  0.45594000000E+02  0.51100000000E-03 0. -1.
    9900012    2    1    2    0    0 -0.93225619432E+01  0.16240007780E+02  0.17794449111E+00  0.72461556715E+02  0.69999982310E+02 0.  0.
         12    1    1    2    0    0  0.93225619432E+01 -0.16240007780E+02 -0.17794449111E+00  0.18726443285E+02  0.00000000000E+00 0. -1.
         11    1    3    3    0    0  0.48102057423E+01  0.15425421282E+01  0.92576607435E+01  0.10546174577E+02  0.51100000000E-03 0. -1.
        -11    1    3    3    0    0  0.10950112247E+02  0.46470505930E+01  0.19336602409E+02  0.22702515949E+02  0.51100000000E-03 0.  1.
         12    1    3    3    0    0 -0.25082879932E+02  0.10050415059E+02 -0.28416318661E+02  0.39212866189E+02  0.00000000000E+00 0. -1.
</event>
<event>
 7    1  0.2153242E-013  0.7246152E+02  0.7816164E-02  0.1226708E+00
        -11   -1    0    0    0    0  0.00000000000E+00  0.00000000000E+00  0.45593999997E+02  0.45594000000E+02  0.51100000000E-03 0. -1.
         11   -1    0    0    0    0 -0.00000000000E+00 -0.00000000000E+00 -0.45593999997E+02  0.45594000000E+02  0.51100000000E-03 0.  1.
    9900012    2    1    2    0    0  0.11425531542E+01 -0.52934544351E+01 -0.17926380477E+02  0.72461515958E+02  0.69999929217E+02 0.  0.
         12    1    1    2    0    0 -0.11425531542E+01  0.52934544351E+01  0.17926380477E+02  0.18726484042E+02  0.00000000000E+00 0. -1.
         11    1    3    3    0    0 -0.12146575339E+02  0.15292218017E+01 -0.11176378666E+02  0.16576768447E+02  0.51100000000E-03 0.  1.
        -11    1    3    3    0    0 -0.67307420552E+00  0.15579311981E+02 -0.20788464491E+02  0.25987078459E+02  0.51100000000E-03 0. -1.
         12    1    3    3    0    0  0.13962202699E+02 -0.22401988218E+02  0.14038462680E+02  0.29897669052E+02  0.00000000000E+00 0. -1.
</event>
<event>
 7    1  0.2153242E-013  0.7246168E+02  0.7816164E-02  0.1226708E+00
        -11   -1    0    0    0    0  0.00000000000E+00  0.00000000000E+00  0.45593999997E+02  0.45594000000E+02  0.51100000000E-03 0.  1.
         11   -1    0    0    0    0 -0.00000000000E+00 -0.00000000000E+00 -0.45593999997E+02  0.45594000000E+02  0.51100000000E-03 0. -1.
    9900012    2    1    2    0    0  0.17992884681E+02 -0.30044110881E+01  0.42314006154E+01  0.72461677983E+02  0.70000140284E+02 0.  0.
         12    1    1    2    0    0 -0.17992884681E+02  0.30044110881E+01 -0.42314006154E+01  0.18726322017E+02  0.00000000000E+00 0. -1.
         11    1    3    3    0    0  0.22885462008E+01 -0.36604808711E+01 -0.10665455153E+01  0.44468059907E+01  0.51100000000E-03 0. -1.
        -11    1    3    3    0    0  0.17476296785E+02 -0.31121803399E+02  0.59253517488E+01  0.36181450907E+02  0.51100000000E-03 0.  1.
         12    1    3    3    0    0 -0.17719583057E+01  0.31777873182E+02 -0.62740561808E+00  0.31833421085E+02  0.00000000000E+00 0. -1.
</event>
<event>
 7    1  0.2153242E-013  0.7246192E+02  0.7816164E-02  0.1226707E+00
        -11   -1    0    0    0    0  0.00000000000E+00  0.00000000000E+00  0.45593999997E+02  0.45594000000E+02  0.51100000000E-03 0. -1.
         11   -1    0    0    0    0 -0.00000000000E+00 -0.00000000000E+00 -0.45593999997E+02  0.45594000000E+02  0.51100000000E-03 0.  1.
    9900012    2    1    2    0    0 -0.56985972752E+00  0.15226096483E+02 -0.10886099866E+02  0.72461923942E+02  0.70000460691E+02 0.  0.
         12    1    1    2    0    0  0.56985972752E+00 -0.15226096483E+02  0.10886099866E+02  0.18726076058E+02  0.00000000000E+00 0. -1.
         11    1    3    3    0    0 -0.23792621210E+01 -0.88749804703E+01 -0.30632018505E+02  0.31980411576E+02  0.51100000000E-03 0. -1.
        -11    1    3    3    0    0  0.53966376669E+01  0.76847837623E+00 -0.41806295892E+01  0.68696376284E+01  0.51100000000E-03 0.  1.
         12    1    3    3    0    0 -0.35872352734E+01  0.23332598577E+02  0.23926548229E+02  0.33611874738E+02  0.00000000000E+00 0. -1.
</event>
<event>
 7    1  0.2153242E-013  0.7246169E+02  0.7816164E-02  0.1226708E+00
        -11   -1    0    0    0    0  0.00000000000E+00  0.00000000000E+00  0.45593999997E+02  0.45594000000E+02  0.51100000000E-03 0.  1.
         11   -1    0    0    0    0 -0.00000000000E+00 -0.00000000000E+00 -0.45593999997E+02  0.45594000000E+02  0.51100000000E-03 0. -1.
    9900012    2    1    2    0    0  0.18164717162E+02 -0.45204505343E+01 -0.53225758542E+00  0.72461689078E+02  0.70000154738E+02 0.  0.
         12    1    1    2    0    0 -0.18164717162E+02  0.45204505343E+01  0.53225758542E+00  0.18726310922E+02  0.00000000000E+00 0. -1.
         11    1    3    3    0    0  0.43263749942E+01  0.75667746580E+01 -0.71156345700E+01  0.11251926720E+02  0.51100000000E-03 0. -1.
        -11    1    3    3    0    0  0.20088999419E+02  0.19166162394E+02  0.91504350500E+01  0.29234228918E+02  0.51100000000E-03 0.  1.
        -12    1    3    3    0    0 -0.62506572516E+01 -0.31253387586E+02 -0.25670580655E+01  0.31975533440E+02  0.00000000000E+00 0.  1.
</event>
<event>
 7    1  0.2153242E-013  0.7246156E+02  0.7816164E-02  0.1226708E+00
        -11   -1    0    0    0    0  0.00000000000E+00  0.00000000000E+00  0.45593999997E+02  0.45594000000E+02  0.51100000000E-03 0. -1.
         11   -1    0    0    0    0 -0.00000000000E+00 -0.00000000000E+00 -0.45593999997E+02  0.45594000000E+02  0.51100000000E-03 0.  1.
    9900012    2    1    2    0    0 -0.14927765579E+02 -0.94992582781E+01  0.61323248629E+01  0.72461561437E+02  0.69999988462E+02 0.  0.
         12    1    1    2    0    0  0.14927765579E+02  0.94992582781E+01 -0.61323248629E+01  0.18726438563E+02  0.00000000000E+00 0. -1.
         11    1    3    3    0    0  0.53234734416E+01  0.41033360005E+01 -0.49727654964E+01  0.83609289412E+01  0.51100000000E-03 0. -1.
        -11    1    3    3    0    0 -0.20196104152E+02  0.19984478925E+02 -0.91594106105E+00  0.28427116792E+02  0.51100000000E-03 0.  1.
         12    1    3    3    0    0 -0.55134869224E-01 -0.33587073204E+02  0.12021031420E+02  0.35673515704E+02  0.00000000000E+00 0. -1.
</event>
<event>
 7    1  0.2153242E-013  0.7246160E+02  0.7816164E-02  0.1226708E+00
        -11   -1    0    0    0    0  0.00000000000E+00  0.00000000000E+00  0.45593999997E+02  0.45594000000E+02  0.51100000000E-03 0.  1.
         11   -1    0    0    0    0 -0.00000000000E+00 -0.00000000000E+00 -0.45593999997E+02  0.45594000000E+02  0.51100000000E-03 0. -1.
    9900012    2    1    2    0    0  0.77689149871E+01 -0.16131978096E+02  0.54846399809E+01  0.72461600638E+02  0.70000039528E+02 0.  0.
         12    1    1    2    0    0 -0.77689149871E+01  0.16131978096E+02 -0.54846399809E+01  0.18726399362E+02  0.00000000000E+00 0. -1.
         11    1    3    3    0    0  0.97248838787E+01  0.25433387359E+01 -0.18443607268E+02  0.21004965787E+02  0.51100000000E-03 0. -1.
        -11    1    3    3    0    0  0.17282761074E+02 -0.15492545514E+02  0.39587807111E+01  0.23545376231E+02  0.51100000000E-03 0.  1.
        -12    1    3    3    0    0 -0.19238729966E+02 -0.31827713172E+01  0.19969466538E+02  0.27911258620E+02  0.00000000000E+00 0.  1.
</event>
<event>
 7    1  0.2153242E-013  0.7246156E+02  0.7816164E-02  0.1226708E+00
        -11   -1    0    0    0    0  0.00000000000E+00  0.00000000000E+00  0.45593999997E+02  0.45594000000E+02  0.51100000000E-03 0. -1.
         11   -1    0    0    0    0 -0.00000000000E+00 -0.00000000000E+00 -0.45593999997E+02  0.45594000000E+02  0.51100000000E-03 0.  1.
    9900012    2    1    2    0    0 -0.11426260347E+02  0.12687364794E+02 -0.76909665677E+01  0.72461558328E+02  0.69999984412E+02 0.  0.
         12    1    1    2    0    0  0.11426260347E+02 -0.12687364794E+02  0.76909665677E+01  0.18726441672E+02  0.00000000000E+00 0. -1.
         11    1    3    3    0    0 -0.18829438744E+01  0.35998371849E+02 -0.15683961635E+00  0.36047924383E+02  0.51100000000E-03 0. -1.
        -11    1    3    3    0    0  0.70689436695E+01 -0.70628353421E+01  0.36326605616E+01  0.10632489393E+02  0.51100000000E-03 0.  1.
        -12    1    3    3    0    0 -0.16612260143E+02 -0.16248171713E+02 -0.11166787513E+02  0.25781144552E+02  0.00000000000E+00 0.  1.
</event>
<event>
 7    1  0.2153242E-013  0.7246160E+02  0.7816164E-02  0.1226708E+00
        -11   -1    0    0    0    0  0.00000000000E+00  0.00000000000E+00  0.45593999997E+02  0.45594000000E+02  0.51100000000E-03 0. -1.
         11   -1    0    0    0    0 -0.00000000000E+00 -0.00000000000E+00 -0.45593999997E+02  0.45594000000E+02  0.51100000000E-03 0.  1.
    9900012    2    1    2    0    0  0.11557688860E+02 -0.14727408249E+02  0.44887773065E+00  0.72461595734E+02  0.70000033140E+02 0.  0.
         12    1    1    2    0    0 -0.11557688860E+02  0.14727408249E+02 -0.44887773065E+00  0.18726404266E+02  0.00000000000E+00 0. -1.
         11    1    3    3    0    0  0.10531418279E+02  0.17130156613E+02  0.92869028511E+01  0.22149483095E+02  0.51100000000E-03 0. -1.
        -11    1    3    3    0    0  0.17864033069E+01  0.79507211145E+01 -0.65074343215E+01  0.10428418131E+02  0.51100000000E-03 0.  1.
         12    1    3    3    0    0 -0.76013272577E+00 -0.39808285976E+02 -0.23305907990E+01  0.39883694508E+02  0.00000000000E+00 0. -1.
</event>
<event>
 7    1  0.2153242E-013  0.7246156E+02  0.7816164E-02  0.1226708E+00
        -11   -1    0    0    0    0  0.00000000000E+00  0.00000000000E+00  0.45593999997E+02  0.45594000000E+02  0.51100000000E-03 0.  1.
         11   -1    0    0    0    0 -0.00000000000E+00 -0.00000000000E+00 -0.45593999997E+02  0.45594000000E+02  0.51100000000E-03 0. -1.
    9900012    2    1    2    0    0  0.70197835632E+01  0.83910501833E+01  0.15198440433E+02  0.72461556770E+02  0.69999982382E+02 0.  0.
         12    1    1    2    0    0 -0.70197835632E+01 -0.83910501833E+01 -0.15198440433E+02  0.18726443230E+02  0.00000000000E+00 0. -1.
         11    1    3    3    0    0 -0.27504761353E+01 -0.15409580503E+01  0.35238399384E+01  0.47283315087E+01  0.51100000000E-03 0. -1.
        -11    1    3    3    0    0 -0.26654246965E+02 -0.37210540203E+01  0.10279170857E+02  0.28808965237E+02  0.51100000000E-03 0.  1.
         12    1    3    3    0    0  0.36424506663E+02  0.13653062254E+02  0.13954296380E+01  0.38924260024E+02  0.00000000000E+00 0. -1.
</event>
<event>
 7    1  0.2153242E-013  0.7246162E+02  0.7816164E-02  0.1226708E+00
        -11   -1    0    0    0    0  0.00000000000E+00  0.00000000000E+00  0.45593999997E+02  0.45594000000E+02  0.51100000000E-03 0.  1.
         11   -1    0    0    0    0 -0.00000000000E+00 -0.00000000000E+00 -0.45593999997E+02  0.45594000000E+02  0.51100000000E-03 0. -1.
    9900012    2    1    2    0    0 -0.16454925687E+02 -0.89373543744E+01  0.19090572676E+00  0.72461619474E+02  0.70000064066E+02 0.  0.
         12    1    1    2    0    0  0.16454925687E+02  0.89373543744E+01 -0.19090572676E+00  0.18726380526E+02  0.00000000000E+00 0. -1.
         11    1    3    3    0    0 -0.11294310810E+02 -0.26444020409E+02  0.14584214171E+02  0.32242006378E+02  0.51100000000E-03 0. -1.
        -11    1    3    3    0    0  0.24238045852E+01 -0.31874761387E+01  0.79085205522E+01  0.88645095966E+01  0.51100000000E-03 0.  1.
         12    1    3    3    0    0 -0.75844194623E+01  0.20694142173E+02 -0.22301828997E+02  0.31355103499E+02  0.00000000000E+00 0. -1.
</event>
<event>
 7    1  0.3116086E-013  0.7246157E+02  0.7816164E-02  0.1226708E+00
        -11   -1    0    0    0    0  0.00000000000E+00  0.00000000000E+00  0.45593999997E+02  0.45594000000E+02  0.51100000000E-03 0. -1.
         11   -1    0    0    0    0 -0.00000000000E+00 -0.00000000000E+00 -0.45593999997E+02  0.45594000000E+02  0.51100000000E-03 0.  1.
    9900012    2    1    2    0    0  0.85540930608E+01 -0.28770741670E-02 -0.16658527774E+02  0.72461573113E+02  0.70000003671E+02 0.  0.
         12    1    1    2    0    0 -0.85540930608E+01  0.28770741670E-02  0.16658527774E+02  0.18726426887E+02  0.00000000000E+00 0. -1.
         11    1    3    3    0    0  0.12152162599E+02 -0.72899187647E+01  0.53426510101E+00  0.14181093431E+02  0.51100000000E-03 0. -1.
        -11    1    3    3    0    0  0.22429915242E+02  0.11903740032E+02 -0.19104676962E+02  0.31777174302E+02  0.51100000000E-03 0.  1.
         12    1    3    3    0    0 -0.26027984781E+02 -0.46166983416E+01  0.19118840870E+01  0.26503305380E+02  0.00000000000E+00 0. -1.
</event>
<event>
 7    1  0.2153242E-013  0.7246160E+02  0.7816164E-02  0.1226708E+00
        -11   -1    0    0    0    0  0.00000000000E+00  0.00000000000E+00  0.45593999997E+02  0.45594000000E+02  0.51100000000E-03 0. -1.
         11   -1    0    0    0    0 -0.00000000000E+00 -0.00000000000E+00 -0.45593999997E+02  0.45594000000E+02  0.51100000000E-03 0.  1.
    9900012    2    1    2    0    0  0.73565688994E+00  0.55856190582E+01 -0.17858830085E+02  0.72461597694E+02  0.70000035693E+02 0.  0.
         12    1    1    2    0    0 -0.73565688994E+00 -0.55856190582E+01  0.17858830085E+02  0.18726402306E+02  0.00000000000E+00 0. -1.
         11    1    3    3    0    0 -0.10550616582E+02  0.33202035991E+02 -0.13842119939E+02  0.37487264356E+02  0.51100000000E-03 0. -1.
        -11    1    3    3    0    0 -0.20528789434E+01  0.16023898424E+01  0.23034251232E-02  0.26042217129E+01  0.51100000000E-03 0.  1.
        -12    1    3    3    0    0  0.13339152415E+02 -0.29218806775E+02 -0.40190135717E+01  0.32370111625E+02  0.00000000000E+00 0.  1.
</event>
<event>
 7    1  0.2153242E-013  0.7246140E+02  0.7816164E-02  0.1226708E+00
        -11   -1    0    0    0    0  0.00000000000E+00  0.00000000000E+00  0.45593999997E+02  0.45594000000E+02  0.51100000000E-03 0. -1.
         11   -1    0    0    0    0 -0.00000000000E+00 -0.00000000000E+00 -0.45593999997E+02  0.45594000000E+02  0.51100000000E-03 0.  1.
    9900012    2    1    2    0    0 -0.16167653248E+02 -0.16224692102E+00 -0.94480725553E+01  0.72461403656E+02  0.69999782923E+02 0.  0.
         12    1    1    2    0    0  0.16167653248E+02  0.16224692102E+00  0.94480725553E+01  0.18726596344E+02  0.00000000000E+00 0. -1.
         11    1    3    3    0    0 -0.38626316003E+02  0.20043675248E+01 -0.35588506379E+01  0.38841668286E+02  0.51100000000E-03 0. -1.
        -11    1    3    3    0    0  0.21782666174E+01 -0.17556609586E+00 -0.12116169643E+02  0.12311670723E+02  0.51100000000E-03 0.  1.
        -12    1    3    3    0    0  0.20280396137E+02 -0.19910483500E+01  0.62269477258E+01  0.21308064647E+02  0.00000000000E+00 0.  1.
</event>
<event>
 7    1  0.2153242E-013  0.7246159E+02  0.7816164E-02  0.1226708E+00
        -11   -1    0    0    0    0  0.00000000000E+00  0.00000000000E+00  0.45593999997E+02  0.45594000000E+02  0.51100000000E-03 0.  1.
         11   -1    0    0    0    0 -0.00000000000E+00 -0.00000000000E+00 -0.45593999997E+02  0.45594000000E+02  0.51100000000E-03 0. -1.
    9900012    2    1    2    0    0  0.12854287143E+02 -0.34243877628E+01  0.13180267556E+02  0.72461585972E+02  0.70000020423E+02 0.  0.
         12    1    1    2    0    0 -0.12854287143E+02  0.34243877628E+01 -0.13180267556E+02  0.18726414028E+02  0.00000000000E+00 0. -1.
         11    1    3    3    0    0  0.26506905350E+02 -0.41716746659E+01  0.17542066987E+01  0.26890447042E+02  0.51100000000E-03 0. -1.
        -11    1    3    3    0    0 -0.87954150107E+00  0.15672746917E+02  0.18885691255E+02  0.24557644912E+02  0.51100000000E-03 0.  1.
         12    1    3    3    0    0 -0.12773076705E+02 -0.14925460014E+02 -0.74596303978E+01  0.21013494017E+02  0.00000000000E+00 0. -1.
</event>
<event>
 7    1  0.2153242E-013  0.7246157E+02  0.7816164E-02  0.1226708E+00
        -11   -1    0    0    0    0  0.00000000000E+00  0.00000000000E+00  0.45593999997E+02  0.45594000000E+02  0.51100000000E-03 0.  1.
         11   -1    0    0    0    0 -0.00000000000E+00 -0.00000000000E+00 -0.45593999997E+02  0.45594000000E+02  0.51100000000E-03 0. -1.
    9900012    2    1    2    0    0  0.38417457129E+01  0.82866296430E+00  0.18309383829E+02  0.72461568716E+02  0.69999997944E+02 0.  0.
         12    1    1    2    0    0 -0.38417457129E+01 -0.82866296430E+00 -0.18309383829E+02  0.18726431284E+02  0.00000000000E+00 0. -1.
         11    1    3    3    0    0  0.18388909725E+02  0.24982957950E+01 -0.39207172086E+01  0.18967485507E+02  0.51100000000E-03 0. -1.
        -11    1    3    3    0    0  0.12151034360E+02  0.12256445082E+02  0.14147185916E+02  0.22316158981E+02  0.51100000000E-03 0.  1.
        -12    1    3    3    0    0 -0.26698198372E+02 -0.13926077912E+02  0.80829151213E+01  0.31177924228E+02  0.00000000000E+00 0.  1.
</event>
<event>
 7    1  0.2153242E-013  0.7246156E+02  0.7816164E-02  0.1226708E+00
        -11   -1    0    0    0    0  0.00000000000E+00  0.00000000000E+00  0.45593999997E+02  0.45594000000E+02  0.51100000000E-03 0. -1.
         11   -1    0    0    0    0 -0.00000000000E+00 -0.00000000000E+00 -0.45593999997E+02  0.45594000000E+02  0.51100000000E-03 0.  1.
    9900012    2    1    2    0    0 -0.16124901409E+01 -0.18654318360E+02  0.30951862147E+00  0.72461560944E+02  0.69999987820E+02 0.  0.
         12    1    1    2    0    0  0.16124901409E+01  0.18654318360E+02 -0.30951862147E+00  0.18726439056E+02  0.00000000000E+00 0. -1.
         11    1    3    3    0    0 -0.45473924193E+01 -0.28338617142E+02 -0.64461273819E+00  0.28708387714E+02  0.51100000000E-03 0. -1.
        -11    1    3    3    0    0  0.86093765015E+01 -0.14746608429E+02  0.61312066311E+01  0.18143194838E+02  0.51100000000E-03 0.  1.
         12    1    3    3    0    0 -0.56744742232E+01  0.24430907211E+02 -0.51770752714E+01  0.25609978392E+02  0.00000000000E+00 0. -1.
</event>
<event>
 7    1  0.2502609E-013  0.7246155E+02  0.7816164E-02  0.1226708E+00
        -11   -1    0    0    0    0  0.00000000000E+00  0.00000000000E+00  0.45593999997E+02  0.45594000000E+02  0.51100000000E-03 0. -1.
         11   -1    0    0    0    0 -0.00000000000E+00 -0.00000000000E+00 -0.45593999997E+02  0.45594000000E+02  0.51100000000E-03 0.  1.
    9900012    2    1    2    0    0  0.78774698108E+01 -0.66167991662E+01 -0.15647465741E+02  0.72461554904E+02  0.69999979951E+02 0.  0.
         12    1    1    2    0    0 -0.78774698108E+01  0.66167991662E+01  0.15647465741E+02  0.18726445096E+02  0.00000000000E+00 0. -1.
         11    1    3    3    0    0 -0.80053980238E+01  0.14647571836E+02 -0.12573704971E+02  0.20898225168E+02  0.51100000000E-03 0. -1.
        -11    1    3    3    0    0  0.22490200638E+02 -0.50414966676E+01 -0.17444749059E+02  0.28905796709E+02  0.51100000000E-03 0.  1.
         12    1    3    3    0    0 -0.66073328031E+01 -0.16222874335E+02  0.14370988289E+02  0.22657533027E+02  0.00000000000E+00 0. -1.
</event>
<event>
 7    1  0.2153242E-013  0.7246186E+02  0.7816164E-02  0.1226707E+00
        -11   -1    0    0    0    0  0.00000000000E+00  0.00000000000E+00  0.45593999997E+02  0.45594000000E+02  0.51100000000E-03 0.  1.
         11   -1    0    0    0    0 -0.00000000000E+00 -0.00000000000E+00 -0.45593999997E+02  0.45594000000E+02  0.51100000000E-03 0. -1.
    9900012    2    1    2    0    0 -0.47325460542E+01  0.12342408394E+02  0.13264102704E+02  0.72461856306E+02  0.70000372582E+02 0.  0.
         12    1    1    2    0    0  0.47325460542E+01 -0.12342408394E+02 -0.13264102704E+02  0.18726143694E+02  0.00000000000E+00 0. -1.
         11    1    3    3    0    0 -0.14850071770E+02  0.15872491515E+02 -0.64322780161E+01  0.22667924899E+02  0.51100000000E-03 0. -1.
        -11    1    3    3    0    0 -0.35496317745E+01  0.14616544851E+02 -0.53639669102E+01  0.15969201934E+02  0.51100000000E-03 0.  1.
        -12    1    3    3    0    0  0.13667157490E+02 -0.18146627972E+02  0.25060347630E+02  0.33824729474E+02  0.00000000000E+00 0.  1.
</event>
<event>
 7    1  0.2153242E-013  0.7246162E+02  0.7816164E-02  0.1226708E+00
        -11   -1    0    0    0    0  0.00000000000E+00  0.00000000000E+00  0.45593999997E+02  0.45594000000E+02  0.51100000000E-03 0. -1.
         11   -1    0    0    0    0 -0.00000000000E+00 -0.00000000000E+00 -0.45593999997E+02  0.45594000000E+02  0.51100000000E-03 0.  1.
    9900012    2    1    2    0    0  0.10893377670E+02 -0.87892094470E+01 -0.12440321790E+02  0.72461615245E+02  0.70000058557E+02 0.  0.
         12    1    1    2    0    0 -0.10893377670E+02  0.87892094470E+01  0.12440321790E+02  0.18726384755E+02  0.00000000000E+00 0. -1.
         11    1    3    3    0    0 -0.11044994680E+02 -0.60843618792E+01 -0.12569013987E+02  0.17804254543E+02  0.51100000000E-03 0. -1.
        -11    1    3    3    0    0  0.15784620601E+02  0.63327169852E+01 -0.23274321253E+02  0.28826230797E+02  0.51100000000E-03 0.  1.
        -12    1    3    3    0    0  0.61537517480E+01 -0.90375645529E+01  0.23403013450E+02  0.25831129905E+02  0.00000000000E+00 0.  1.
</event>
<event>
 7    1  0.2153242E-013  0.7246152E+02  0.7816164E-02  0.1226708E+00
        -11   -1    0    0    0    0  0.00000000000E+00  0.00000000000E+00  0.45593999997E+02  0.45594000000E+02  0.51100000000E-03 0.  1.
         11   -1    0    0    0    0 -0.00000000000E+00 -0.00000000000E+00 -0.45593999997E+02  0.45594000000E+02  0.51100000000E-03 0. -1.
    9900012    2    1    2    0    0 -0.17242886316E+02  0.36269164797E+01  0.63410767113E+01  0.72461523943E+02  0.69999939619E+02 0.  0.
         12    1    1    2    0    0  0.17242886316E+02 -0.36269164797E+01 -0.63410767113E+01  0.18726476057E+02  0.00000000000E+00 0. -1.
         11    1    3    3    0    0 -0.12584579127E+02  0.15801157673E+02  0.99495368016E+01  0.22517581984E+02  0.51100000000E-03 0. -1.
        -11    1    3    3    0    0 -0.13045925985E+02  0.12175504205E+02  0.10371901136E+02  0.20640141010E+02  0.51100000000E-03 0.  1.
         12    1    3    3    0    0  0.83876187957E+01 -0.24349745399E+02 -0.13980361226E+02  0.29303800949E+02  0.00000000000E+00 0. -1.
</event>
<event>
 7    1  0.2153242E-013  0.7246155E+02  0.7816164E-02  0.1226708E+00
        -11   -1    0    0    0    0  0.00000000000E+00  0.00000000000E+00  0.45593999997E+02  0.45594000000E+02  0.51100000000E-03 0.  1.
         11   -1    0    0    0    0 -0.00000000000E+00 -0.00000000000E+00 -0.45593999997E+02  0.45594000000E+02  0.51100000000E-03 0. -1.
    9900012    2    1    2    0    0 -0.18525306950E+02 -0.30957246284E+00  0.27197902020E+01  0.72461545679E+02  0.69999967934E+02 0.  0.
         12    1    1    2    0    0  0.18525306950E+02  0.30957246284E+00 -0.27197902020E+01  0.18726454321E+02  0.00000000000E+00 0. -1.
         11    1    3    3    0    0 -0.26649848595E+02 -0.13546788053E+02 -0.21853323050E+01  0.29975082556E+02  0.51100000000E-03 0. -1.
        -11    1    3    3    0    0 -0.80667876342E+01 -0.10392487259E+02 -0.11591058858E+01  0.13206830841E+02  0.51100000000E-03 0.  1.
        -12    1    3    3    0    0  0.16191329279E+02  0.23629702849E+02  0.60642283927E+01  0.29279632282E+02  0.00000000000E+00 0.  1.
</event>
<event>
 7    1  0.2153242E-013  0.7246157E+02  0.7816164E-02  0.1226708E+00
        -11   -1    0    0    0    0  0.00000000000E+00  0.00000000000E+00  0.45593999997E+02  0.45594000000E+02  0.51100000000E-03 0. -1.
         11   -1    0    0    0    0 -0.00000000000E+00 -0.00000000000E+00 -0.45593999997E+02  0.45594000000E+02  0.51100000000E-03 0.  1.
    9900012    2    1    2    0    0  0.13583139079E+01 -0.18598265756E+02 -0.17142521613E+01  0.72461570381E+02  0.70000000113E+02 0.  0.
         12    1    1    2    0    0 -0.13583139079E+01  0.18598265756E+02  0.17142521613E+01  0.18726429619E+02  0.00000000000E+00 0. -1.
         11    1    3    3    0    0  0.29281827348E+01  0.43718589118E+01 -0.11452783429E+01  0.53850781997E+01  0.51100000000E-03 0.  1.
        -11    1    3    3    0    0 -0.65973331261E+01 -0.20121084675E+02  0.29580399759E+02  0.36378330130E+02  0.51100000000E-03 0. -1.
         12    1    3    3    0    0  0.50274642991E+01 -0.28490399927E+01 -0.30149373578E+02  0.30698162051E+02  0.00000000000E+00 0. -1.
</event>
<event>
 7    1  0.2153242E-013  0.7246154E+02  0.7816164E-02  0.1226708E+00
        -11   -1    0    0    0    0  0.00000000000E+00  0.00000000000E+00  0.45593999997E+02  0.45594000000E+02  0.51100000000E-03 0.  1.
         11   -1    0    0    0    0 -0.00000000000E+00 -0.00000000000E+00 -0.45593999997E+02  0.45594000000E+02  0.51100000000E-03 0. -1.
    9900012    2    1    2    0    0  0.13319620664E+02  0.31917601789E+00  0.13159254187E+02  0.72461544416E+02  0.69999966289E+02 0.  0.
         12    1    1    2    0    0 -0.13319620664E+02 -0.31917601789E+00 -0.13159254187E+02  0.18726455584E+02  0.00000000000E+00 0. -1.
         11    1    3    3    0    0 -0.15906827802E+01 -0.12392838822E+02 -0.22480733964E+02  0.25719566979E+02  0.51100000000E-03 0. -1.
        -11    1    3    3    0    0  0.11554437998E+02  0.78523058874E+01  0.39660652323E+01  0.14522169910E+02  0.51100000000E-03 0.  1.
        -12    1    3    3    0    0  0.33558654463E+01  0.48597089524E+01  0.31673922919E+02  0.32219807527E+02  0.00000000000E+00 0.  1.
</event>
<event>
 7    1  0.2153242E-013  0.7246158E+02  0.7816164E-02  0.1226708E+00
        -11   -1    0    0    0    0  0.00000000000E+00  0.00000000000E+00  0.45593999997E+02  0.45594000000E+02  0.51100000000E-03 0. -1.
         11   -1    0    0    0    0 -0.00000000000E+00 -0.00000000000E+00 -0.45593999997E+02  0.45594000000E+02  0.51100000000E-03 0.  1.
    9900012    2    1    2    0    0  0.66697987274E+01 -0.81377320111E+01 -0.15490967653E+02  0.72461575457E+02  0.70000006725E+02 0.  0.
         12    1    1    2    0    0 -0.66697987274E+01  0.81377320111E+01  0.15490967653E+02  0.18726424543E+02  0.00000000000E+00 0. -1.
         11    1    3    3    0    0 -0.39504488904E+01  0.38006240716E+01  0.36553100872E+01  0.65887845514E+01  0.51100000000E-03 0. -1.
        -11    1    3    3    0    0 -0.16193113151E+02  0.14950927944E+02 -0.17007867234E+02  0.27839085976E+02  0.51100000000E-03 0.  1.
         12    1    3    3    0    0  0.26813360768E+02 -0.26889284026E+02 -0.21384105058E+01  0.38033704929E+02  0.00000000000E+00 0. -1.
</event>
<event>
 7    1  0.2153242E-013  0.7246158E+02  0.7816164E-02  0.1226708E+00
        -11   -1    0    0    0    0  0.00000000000E+00  0.00000000000E+00  0.45593999997E+02  0.45594000000E+02  0.51100000000E-03 0.  1.
         11   -1    0    0    0    0 -0.00000000000E+00 -0.00000000000E+00 -0.45593999997E+02  0.45594000000E+02  0.51100000000E-03 0. -1.
    9900012    2    1    2    0    0  0.26042429195E+01 -0.18074613854E+02  0.41478958792E+01  0.72461580498E+02  0.70000013292E+02 0.  0.
         12    1    1    2    0    0 -0.26042429195E+01  0.18074613854E+02 -0.41478958792E+01  0.18726419502E+02  0.00000000000E+00 0. -1.
         11    1    3    3    0    0 -0.88601433257E+01 -0.10090479618E+02 -0.15779958159E+02  0.20720207490E+02  0.51100000000E-03 0. -1.
        -11    1    3    3    0    0  0.16120413972E+02 -0.25043667690E+02  0.97535070812E+01  0.31339813954E+02  0.51100000000E-03 0.  1.
         12    1    3    3    0    0 -0.46560277272E+01  0.17059533454E+02  0.10174346957E+02  0.20401559055E+02  0.00000000000E+00 0. -1.
</event>
<event>
 7    1  0.2153242E-013  0.7246155E+02  0.7816164E-02  0.1226708E+00
        -11   -1    0    0    0    0  0.00000000000E+00  0.00000000000E+00  0.45593999997E+02  0.45594000000E+02  0.51100000000E-03 0.  1.
         11   -1    0    0    0    0 -0.00000000000E+00 -0.00000000000E+00 -0.45593999997E+02  0.45594000000E+02  0.51100000000E-03 0. -1.
    9900012    2    1    2    0    0  0.15893171771E+02 -0.79398750340E-01  0.99035772134E+01  0.72461546660E+02  0.69999969211E+02 0.  0.
         12    1    1    2    0    0 -0.15893171771E+02  0.79398750340E-01 -0.99035772134E+01  0.18726453340E+02  0.00000000000E+00 0. -1.
         11    1    3    3    0    0 -0.12517077221E+02  0.12234925045E+02  0.53087813033E+01  0.18290811141E+02  0.51100000000E-03 0. -1.
        -11    1    3    3    0    0  0.42080796081E+00 -0.22762752998E+02 -0.39275247873E+01  0.23102931732E+02  0.51100000000E-03 0.  1.
         12    1    3    3    0    0  0.27989441031E+02  0.10448429203E+02  0.85223206974E+01  0.31067803786E+02  0.00000000000E+00 0. -1.
</event>
<event>
 7    1  0.2153242E-013  0.7246162E+02  0.7816164E-02  0.1226708E+00
        -11   -1    0    0    0    0  0.00000000000E+00  0.00000000000E+00  0.45593999997E+02  0.45594000000E+02  0.51100000000E-03 0. -1.
         11   -1    0    0    0    0 -0.00000000000E+00 -0.00000000000E+00 -0.45593999997E+02  0.45594000000E+02  0.51100000000E-03 0.  1.
    9900012    2    1    2    0    0 -0.80548097281E+01  0.74501830968E+01 -0.15175372890E+02  0.72461624743E+02  0.70000070929E+02 0.  0.
         12    1    1    2    0    0  0.80548097281E+01 -0.74501830968E+01  0.15175372890E+02  0.18726375257E+02  0.00000000000E+00 0. -1.
         11    1    3    3    0    0  0.13233570933E+02 -0.11133441480E+02  0.25071032357E+01  0.17474738503E+02  0.51100000000E-03 0. -1.
        -11    1    3    3    0    0 -0.15137179239E+02 -0.69620978081E+01  0.77884234065E+01  0.18391969460E+02  0.51100000000E-03 0.  1.
        -12    1    3    3    0    0 -0.61512014223E+01  0.25545722385E+02 -0.25470899532E+02  0.36594916779E+02  0.00000000000E+00 0.  1.
</event>
<event>
 7    1  0.2786417E-013  0.7246161E+02  0.7816164E-02  0.1226708E+00
        -11   -1    0    0    0    0  0.00000000000E+00  0.00000000000E+00  0.45593999997E+02  0.45594000000E+02  0.51100000000E-03 0. -1.
         11   -1    0    0    0    0 -0.00000000000E+00 -0.00000000000E+00 -0.45593999997E+02  0.45594000000E+02  0.51100000000E-03 0.  1.
    9900012    2    1    2    0    0 -0.14519710776E+02 -0.44458554505E+01 -0.10958558099E+02  0.72461611471E+02  0.70000053640E+02 0.  0.
         12    1    1    2    0    0  0.14519710776E+02  0.44458554505E+01  0.10958558099E+02  0.18726388529E+02  0.00000000000E+00 0. -1.
         11    1    3    3    0    0 -0.53132263407E+01 -0.20632404220E+02 -0.20788284311E+01  0.21406728053E+02  0.51100000000E-03 0. -1.
        -11    1    3    3    0    0 -0.11971904104E+00 -0.15740882410E+01 -0.25218565915E+02  0.25267927369E+02  0.51100000000E-03 0.  1.
         12    1    3    3    0    0 -0.90867653945E+01  0.17760637011E+02  0.16338836247E+02  0.25786956049E+02  0.00000000000E+00 0. -1.
</event>
<event>
 7    1  0.2153242E-013  0.7246155E+02  0.7816164E-02  0.1226708E+00
        -11   -1    0    0    0    0  0.00000000000E+00  0.00000000000E+00  0.45593999997E+02  0.45594000000E+02  0.51100000000E-03 0. -1.
         11   -1    0    0    0    0 -0.00000000000E+00 -0.00000000000E+00 -0.45593999997E+02  0.45594000000E+02  0.51100000000E-03 0.  1.
    9900012    2    1    2    0    0  0.12577020246E+01 -0.16111172200E+02 -0.94619404287E+01  0.72461548101E+02  0.69999971089E+02 0.  0.
         12    1    1    2    0    0 -0.12577020246E+01  0.16111172200E+02  0.94619404287E+01  0.18726451899E+02  0.00000000000E+00 0. -1.
         11    1    3    3    0    0  0.13231820390E+02  0.34816227999E+01  0.17561864899E+02  0.22262566499E+02  0.51100000000E-03 0. -1.
        -11    1    3    3    0    0  0.39927611921E+01  0.87222340262E+01 -0.41543629393E+01  0.10453623297E+02  0.51100000000E-03 0.  1.
        -12    1    3    3    0    0 -0.15966879558E+02 -0.28315029027E+02 -0.22869442388E+02  0.39745358304E+02  0.00000000000E+00 0.  1.
</event>
<event>
 7    1  0.2153242E-013  0.7246160E+02  0.7816164E-02  0.1226708E+00
        -11   -1    0    0    0    0  0.00000000000E+00  0.00000000000E+00  0.45593999997E+02  0.45594000000E+02  0.51100000000E-03 0.  1.
         11   -1    0    0    0    0 -0.00000000000E+00 -0.00000000000E+00 -0.45593999997E+02  0.45594000000E+02  0.51100000000E-03 0. -1.
    9900012    2    1    2    0    0  0.10388881387E+02  0.59953651744E+01  0.14380711275E+02  0.72461598402E+02  0.70000036615E+02 0.  0.
         12    1    1    2    0    0 -0.10388881387E+02 -0.59953651744E+01 -0.14380711275E+02  0.18726401598E+02  0.00000000000E+00 0. -1.
         11    1    3    3    0    0 -0.54444481934E+01 -0.52142902114E+01  0.39895920964E+00  0.75491726204E+01  0.51100000000E-03 0. -1.
        -11    1    3    3    0    0 -0.20709920201E+02  0.16457442568E+02  0.50770840218E+01  0.26935571148E+02  0.51100000000E-03 0.  1.
         12    1    3    3    0    0  0.36543249782E+02 -0.52477871825E+01  0.89046680431E+01  0.37976854634E+02  0.00000000000E+00 0. -1.
</event>
<event>
 7    1  0.2153242E-013  0.7246157E+02  0.7816164E-02  0.1226708E+00
        -11   -1    0    0    0    0  0.00000000000E+00  0.00000000000E+00  0.45593999997E+02  0.45594000000E+02  0.51100000000E-03 0. -1.
         11   -1    0    0    0    0 -0.00000000000E+00 -0.00000000000E+00 -0.45593999997E+02  0.45594000000E+02  0.51100000000E-03 0.  1.
    9900012    2    1    2    0    0 -0.42698089302E+01  0.12264877177E+02 -0.13491504111E+02  0.72461570451E+02  0.70000000204E+02 0.  0.
         12    1    1    2    0    0  0.42698089302E+01 -0.12264877177E+02  0.13491504111E+02  0.18726429549E+02  0.00000000000E+00 0. -1.
         11    1    3    3    0    0  0.21103392693E+01 -0.10095881036E+02 -0.26736386189E+01  0.10654984254E+02  0.51100000000E-03 0. -1.
        -11    1    3    3    0    0 -0.15616105000E+02  0.30752600391E+01  0.19207739928E+02  0.24945084347E+02  0.51100000000E-03 0.  1.
        -12    1    3    3    0    0  0.92359568008E+01  0.19285498174E+02 -0.30025605420E+02  0.36861501850E+02  0.00000000000E+00 0.  1.
</event>
<event>
 7    1  0.2153242E-013  0.7246157E+02  0.7816164E-02  0.1226708E+00
        -11   -1    0    0    0    0  0.00000000000E+00  0.00000000000E+00  0.45593999997E+02  0.45594000000E+02  0.51100000000E-03 0.  1.
         11   -1    0    0    0    0 -0.00000000000E+00 -0.00000000000E+00 -0.45593999997E+02  0.45594000000E+02  0.51100000000E-03 0. -1.
    9900012    2    1    2    0    0 -0.24476038224E+00 -0.83882495060E+00  0.18706034127E+02  0.72461568207E+02  0.69999997280E+02 0.  0.
         12    1    1    2    0    0  0.24476038224E+00  0.83882495060E+00 -0.18706034127E+02  0.18726431793E+02  0.00000000000E+00 0. -1.
         11    1    3    3    0    0 -0.17577684669E+02 -0.17388161925E+02  0.10268623445E+02  0.26772519514E+02  0.51100000000E-03 0. -1.
        -11    1    3    3    0    0 -0.47333992261E+00  0.10552768856E+02  0.20709123542E+02  0.23247640296E+02  0.51100000000E-03 0.  1.
        -12    1    3    3    0    0  0.17806264209E+02  0.59965681184E+01 -0.12271712859E+02  0.22441408396E+02  0.00000000000E+00 0.  1.
</event>
<event>
 7    1  0.2153242E-013  0.7246159E+02  0.7816164E-02  0.1226708E+00
        -11   -1    0    0    0    0  0.00000000000E+00  0.00000000000E+00  0.45593999997E+02  0.45594000000E+02  0.51100000000E-03 0. -1.
         11   -1    0    0    0    0 -0.00000000000E+00 -0.00000000000E+00 -0.45593999997E+02  0.45594000000E+02  0.51100000000E-03 0.  1.
    9900012    2    1    2    0    0 -0.17310194777E+02  0.48977617534E+01  0.52007382450E+01  0.72461585723E+02  0.70000020098E+02 0.  0.
         12    1    1    2    0    0  0.17310194777E+02 -0.48977617534E+01 -0.52007382450E+01  0.18726414277E+02  0.00000000000E+00 0. -1.
         11    1    3    3    0    0 -0.23954524976E+02 -0.15942291740E+02 -0.74864596666E+01  0.29732524470E+02  0.51100000000E-03 0.  1.
        -11    1    3    3    0    0 -0.21972492220E+01  0.10542813226E+02 -0.11022079417E+02  0.15409901031E+02  0.51100000000E-03 0. -1.
         12    1    3    3    0    0  0.88415794213E+01  0.10297240268E+02  0.23709277328E+02  0.27319160222E+02  0.00000000000E+00 0. -1.
</event>
<event>
 7    1  0.2153242E-013  0.7246167E+02  0.7816164E-02  0.1226708E+00
        -11   -1    0    0    0    0  0.00000000000E+00  0.00000000000E+00  0.45593999997E+02  0.45594000000E+02  0.51100000000E-03 0. -1.
         11   -1    0    0    0    0 -0.00000000000E+00 -0.00000000000E+00 -0.45593999997E+02  0.45594000000E+02  0.51100000000E-03 0.  1.
    9900012    2    1    2    0    0  0.16429208641E+02 -0.70071323872E+01 -0.56264330872E+01  0.72461666933E+02  0.70000125889E+02 0.  0.
         12    1    1    2    0    0 -0.16429208641E+02  0.70071323872E+01  0.56264330872E+01  0.18726333067E+02  0.00000000000E+00 0. -1.
         11    1    3    3    0    0 -0.81221125361E+01 -0.16695564389E+02 -0.41700441937E+01  0.19028921440E+02  0.51100000000E-03 0. -1.
        -11    1    3    3    0    0  0.28571131114E+02 -0.40058330446E+01  0.14277549666E+02  0.32190132902E+02  0.51100000000E-03 0.  1.
         12    1    3    3    0    0 -0.40198099369E+01  0.13694265046E+02 -0.15733938560E+02  0.21242612591E+02  0.00000000000E+00 0. -1.
</event>
<event>
 7    1  0.2153242E-013  0.7246154E+02  0.7816164E-02  0.1226708E+00
        -11   -1    0    0    0    0  0.00000000000E+00  0.00000000000E+00  0.45593999997E+02  0.45594000000E+02  0.51100000000E-03 0.  1.
         11   -1    0    0    0    0 -0.00000000000E+00 -0.00000000000E+00 -0.45593999997E+02  0.45594000000E+02  0.51100000000E-03 0. -1.
    9900012    2    1    2    0    0  0.64724378288E+01 -0.17320271421E+02  0.29658302923E+01  0.72461537364E+02  0.69999957102E+02 0.  0.
         12    1    1    2    0    0 -0.64724378288E+01  0.17320271421E+02 -0.29658302923E+01  0.18726462636E+02  0.00000000000E+00 0. -1.
         11    1    3    3    0    0  0.70762799730E+01 -0.99154762011E+01 -0.23335602992E+02  0.26323768230E+02  0.51100000000E-03 0. -1.
        -11    1    3    3    0    0  0.25558877716E+01  0.61132320123E+01 -0.72535950006E+01  0.98243986397E+01  0.51100000000E-03 0.  1.
        -12    1    3    3    0    0 -0.31597299159E+01 -0.13518027232E+02  0.33555028285E+02  0.36313370494E+02  0.00000000000E+00 0.  1.
</event>
<event>
 7    1  0.2153242E-013  0.7246157E+02  0.7816164E-02  0.1226708E+00
        -11   -1    0    0    0    0  0.00000000000E+00  0.00000000000E+00  0.45593999997E+02  0.45594000000E+02  0.51100000000E-03 0. -1.
         11   -1    0    0    0    0 -0.00000000000E+00 -0.00000000000E+00 -0.45593999997E+02  0.45594000000E+02  0.51100000000E-03 0.  1.
    9900012    2    1    2    0    0 -0.95775437215E+01  0.88008944779E+01 -0.13471968627E+02  0.72461574125E+02  0.70000004990E+02 0.  0.
         12    1    1    2    0    0  0.95775437215E+01 -0.88008944779E+01  0.13471968627E+02  0.18726425875E+02  0.00000000000E+00 0. -1.
         11    1    3    3    0    0 -0.30948222603E+02  0.13340495546E+02 -0.23329478207E+02  0.40988118490E+02  0.51100000000E-03 0. -1.
        -11    1    3    3    0    0  0.53380671831E+01 -0.22376356916E+00 -0.63310958086E+01  0.82841901104E+01  0.51100000000E-03 0.  1.
        -12    1    3    3    0    0  0.16032611698E+02 -0.43158374986E+01  0.16188605388E+02  0.23189265525E+02  0.00000000000E+00 0.  1.
</event>
<event>
 7    1  0.2153242E-013  0.7246157E+02  0.7816164E-02  0.1226708E+00
        -11   -1    0    0    0    0  0.00000000000E+00  0.00000000000E+00  0.45593999997E+02  0.45594000000E+02  0.51100000000E-03 0. -1.
         11   -1    0    0    0    0 -0.00000000000E+00 -0.00000000000E+00 -0.45593999997E+02  0.45594000000E+02  0.51100000000E-03 0.  1.
    9900012    2    1    2    0    0  0.12131329907E+01  0.64634464324E+00 -0.18675915290E+02  0.72461567746E+02  0.69999996680E+02 0.  0.
         12    1    1    2    0    0 -0.12131329907E+01 -0.64634464324E+00  0.18675915290E+02  0.18726432254E+02  0.00000000000E+00 0. -1.
         11    1    3    3    0    0  0.20134785828E+02 -0.32656313533E+01 -0.27975236107E+02  0.34622070764E+02  0.51100000000E-03 0. -1.
        -11    1    3    3    0    0 -0.92552476301E+00  0.12420085746E+02 -0.49046123233E+01  0.13385452862E+02  0.51100000000E-03 0.  1.
         12    1    3    3    0    0 -0.17996128074E+02 -0.85081097496E+01  0.14203933140E+02  0.24454044120E+02  0.00000000000E+00 0. -1.
</event>
<event>
 7    1  0.2153242E-013  0.7246171E+02  0.7816164E-02  0.1226708E+00
        -11   -1    0    0    0    0  0.00000000000E+00  0.00000000000E+00  0.45593999997E+02  0.45594000000E+02  0.51100000000E-03 0. -1.
         11   -1    0    0    0    0 -0.00000000000E+00 -0.00000000000E+00 -0.45593999997E+02  0.45594000000E+02  0.51100000000E-03 0.  1.
    9900012    2    1    2    0    0 -0.11985625124E+02  0.77508972460E+01  0.12121982092E+02  0.72461706518E+02  0.70000177456E+02 0.  0.
         12    1    1    2    0    0  0.11985625124E+02 -0.77508972460E+01 -0.12121982092E+02  0.18726293482E+02  0.00000000000E+00 0. -1.
         11    1    3    3    0    0  0.16817349878E+01  0.64096405113E+01 -0.28571445370E+01  0.72163009375E+01  0.51100000000E-03 0.  1.
        -11    1    3    3    0    0 -0.64327028422E+01 -0.10769765621E+02  0.37013683387E+02  0.39081712802E+02  0.51100000000E-03 0. -1.
         12    1    3    3    0    0 -0.72346572699E+01  0.12111022355E+02 -0.22034556758E+02  0.26163692779E+02  0.00000000000E+00 0. -1.
</event>
<event>
 7    1  0.3132797E-013  0.7246160E+02  0.7816164E-02  0.1226708E+00
        -11   -1    0    0    0    0  0.00000000000E+00  0.00000000000E+00  0.45593999997E+02  0.45594000000E+02  0.51100000000E-03 0. -1.
         11   -1    0    0    0    0 -0.00000000000E+00 -0.00000000000E+00 -0.45593999997E+02  0.45594000000E+02  0.51100000000E-03 0.  1.
    9900012    2    1    2    0    0  0.11953885293E+02  0.25571800195E+01 -0.14186036587E+02  0.72461596787E+02  0.70000034512E+02 0.  0.
         12    1    1    2    0    0 -0.11953885293E+02 -0.25571800195E+01  0.14186036587E+02  0.18726403213E+02  0.00000000000E+00 0. -1.
         11    1    3    3    0    0 -0.85574243777E+01 -0.14806458973E+02  0.60405105821E+01  0.18136937659E+02  0.51100000000E-03 0. -1.
        -11    1    3    3    0    0 -0.61137913569E+01  0.12773127506E+02 -0.23161799995E+02  0.27147747795E+02  0.51100000000E-03 0.  1.
         12    1    3    3    0    0  0.26625101028E+02  0.45905114864E+01  0.29352528265E+01  0.27176911333E+02  0.00000000000E+00 0. -1.
</event>
<event>
 7    1  0.2153242E-013  0.7246158E+02  0.7816164E-02  0.1226708E+00
        -11   -1    0    0    0    0  0.00000000000E+00  0.00000000000E+00  0.45593999997E+02  0.45594000000E+02  0.51100000000E-03 0.  1.
         11   -1    0    0    0    0 -0.00000000000E+00 -0.00000000000E+00 -0.45593999997E+02  0.45594000000E+02  0.51100000000E-03 0. -1.
    9900012    2    1    2    0    0 -0.78060206464E+01 -0.36756529076E+01  0.16620302728E+02  0.72461578948E+02  0.70000011274E+02 0.  0.
         12    1    1    2    0    0  0.78060206464E+01  0.36756529076E+01 -0.16620302728E+02  0.18726421052E+02  0.00000000000E+00 0. -1.
         11    1    3    3    0    0 -0.17968474797E+02 -0.72808499708E+01 -0.19252010595E+02  0.27322459169E+02  0.51100000000E-03 0. -1.
        -11    1    3    3    0    0 -0.23669725321E+01  0.12055528869E+02  0.15914792752E+02  0.20105197435E+02  0.51100000000E-03 0.  1.
        -12    1    3    3    0    0  0.12529426683E+02 -0.84503318058E+01  0.19957520571E+02  0.25033922345E+02  0.00000000000E+00 0.  1.
</event>
<event>
 7    1  0.2153242E-013  0.7246164E+02  0.7816164E-02  0.1226708E+00
        -11   -1    0    0    0    0  0.00000000000E+00  0.00000000000E+00  0.45593999997E+02  0.45594000000E+02  0.51100000000E-03 0. -1.
         11   -1    0    0    0    0 -0.00000000000E+00 -0.00000000000E+00 -0.45593999997E+02  0.45594000000E+02  0.51100000000E-03 0.  1.
    9900012    2    1    2    0    0  0.12764679311E+02 -0.78010521340E+01 -0.11264245226E+02  0.72461636957E+02  0.70000086840E+02 0.  0.
         12    1    1    2    0    0 -0.12764679311E+02  0.78010521340E+01  0.11264245226E+02  0.18726363043E+02  0.00000000000E+00 0. -1.
         11    1    3    3    0    0 -0.78481088968E+01 -0.15649945710E+01  0.31592560201E+01  0.86036573691E+01  0.51100000000E-03 0. -1.
        -11    1    3    3    0    0 -0.15191679584E+02  0.11126544129E+02  0.51361548247E+01  0.19518381067E+02  0.51100000000E-03 0.  1.
         12    1    3    3    0    0  0.35804467791E+02 -0.17362601693E+02 -0.19559656071E+02  0.44339598521E+02  0.00000000000E+00 0. -1.
</event>
<event>
 7    1  0.2153242E-013  0.7246173E+02  0.7816164E-02  0.1226708E+00
        -11   -1    0    0    0    0  0.00000000000E+00  0.00000000000E+00  0.45593999997E+02  0.45594000000E+02  0.51100000000E-03 0. -1.
         11   -1    0    0    0    0 -0.00000000000E+00 -0.00000000000E+00 -0.45593999997E+02  0.45594000000E+02  0.51100000000E-03 0.  1.
    9900012    2    1    2    0    0  0.17969367901E+02  0.51815015294E+01  0.96277711821E+00  0.72461732869E+02  0.70000211784E+02 0.  0.
         12    1    1    2    0    0 -0.17969367901E+02 -0.51815015294E+01 -0.96277711821E+00  0.18726267131E+02  0.00000000000E+00 0. -1.
         11    1    3    3    0    0  0.23041225885E+01  0.36512638593E+01  0.53920696152E+01  0.69076134569E+01  0.51100000000E-03 0. -1.
        -11    1    3    3    0    0  0.34915847135E+02  0.11151231845E+02  0.11902970388E+02  0.38537605752E+02  0.51100000000E-03 0.  1.
         12    1    3    3    0    0 -0.19250601822E+02 -0.96209941753E+01 -0.16332262885E+02  0.27016513660E+02  0.00000000000E+00 0. -1.
</event>
<event>
 7    1  0.2153242E-013  0.7246154E+02  0.7816164E-02  0.1226708E+00
        -11   -1    0    0    0    0  0.00000000000E+00  0.00000000000E+00  0.45593999997E+02  0.45594000000E+02  0.51100000000E-03 0.  1.
         11   -1    0    0    0    0 -0.00000000000E+00 -0.00000000000E+00 -0.45593999997E+02  0.45594000000E+02  0.51100000000E-03 0. -1.
    9900012    2    1    2    0    0 -0.12841340402E+02  0.10835637575E+02 -0.82685673630E+01  0.72461540879E+02  0.69999961681E+02 0.  0.
         12    1    1    2    0    0  0.12841340402E+02 -0.10835637575E+02  0.82685673630E+01  0.18726459121E+02  0.00000000000E+00 0. -1.
         11    1    3    3    0    0 -0.34605261060E+01  0.14096638567E+02  0.10451479670E+02  0.17886416281E+02  0.51100000000E-03 0.  1.
        -11    1    3    3    0    0 -0.14380608785E+02  0.19594994263E+02  0.47789308332E+00  0.24310370036E+02  0.51100000000E-03 0. -1.
        -12    1    3    3    0    0  0.49997944899E+01 -0.22855995255E+02 -0.19197940116E+02  0.30264754563E+02  0.00000000000E+00 0.  1.
</event>
<event>
 7    1  0.2153242E-013  0.7246158E+02  0.7816164E-02  0.1226708E+00
        -11   -1    0    0    0    0  0.00000000000E+00  0.00000000000E+00  0.45593999997E+02  0.45594000000E+02  0.51100000000E-03 0. -1.
         11   -1    0    0    0    0 -0.00000000000E+00 -0.00000000000E+00 -0.45593999997E+02  0.45594000000E+02  0.51100000000E-03 0.  1.
    9900012    2    1    2    0    0 -0.39713959165E+01 -0.17964803918E+02 -0.34889530104E+01  0.72461575930E+02  0.70000007342E+02 0.  0.
         12    1    1    2    0    0  0.39713959165E+01  0.17964803918E+02  0.34889530104E+01  0.18726424070E+02  0.00000000000E+00 0. -1.
         11    1    3    3    0    0 -0.17713629224E+02 -0.15599198133E+02 -0.11301861415E+01  0.23630170622E+02  0.51100000000E-03 0. -1.
        -11    1    3    3    0    0  0.26987585910E+01 -0.55684356710E+01 -0.23751457190E+02  0.24544296541E+02  0.51100000000E-03 0.  1.
         12    1    3    3    0    0  0.11043474716E+02  0.32028298855E+01  0.21392690321E+02  0.24287108767E+02  0.00000000000E+00 0. -1.
</event>
<event>
 7    1  0.2153242E-013  0.7246155E+02  0.7816164E-02  0.1226708E+00
        -11   -1    0    0    0    0  0.00000000000E+00  0.00000000000E+00  0.45593999997E+02  0.45594000000E+02  0.51100000000E-03 0.  1.
         11   -1    0    0    0    0 -0.00000000000E+00 -0.00000000000E+00 -0.45593999997E+02  0.45594000000E+02  0.51100000000E-03 0. -1.
    9900012    2    1    2    0    0 -0.10372585603E+02  0.14908905144E+02  0.45622370474E+01  0.72461548346E+02  0.69999971408E+02 0.  0.
         12    1    1    2    0    0  0.10372585603E+02 -0.14908905144E+02 -0.45622370474E+01  0.18726451654E+02  0.00000000000E+00 0. -1.
         11    1    3    3    0    0 -0.24666474008E+01  0.28483317135E+02 -0.11384255979E+02  0.30773121208E+02  0.51100000000E-03 0. -1.
        -11    1    3    3    0    0 -0.46689903933E+01  0.97615984101E+01 -0.32501689990E+01  0.11298312865E+02  0.51100000000E-03 0.  1.
        -12    1    3    3    0    0 -0.32369478093E+01 -0.23336010402E+02  0.19196662026E+02  0.30390114273E+02  0.00000000000E+00 0.  1.
</event>
<event>
 7    1  0.2153242E-013  0.7246152E+02  0.7816164E-02  0.1226708E+00
        -11   -1    0    0    0    0  0.00000000000E+00  0.00000000000E+00  0.45593999997E+02  0.45594000000E+02  0.51100000000E-03 0. -1.
         11   -1    0    0    0    0 -0.00000000000E+00 -0.00000000000E+00 -0.45593999997E+02  0.45594000000E+02  0.51100000000E-03 0.  1.
    9900012    2    1    2    0    0 -0.76429625797E+00  0.48074486373E+01 -0.18082738322E+02  0.72461517779E+02  0.69999931588E+02 0.  0.
         12    1    1    2    0    0  0.76429625797E+00 -0.48074486373E+01  0.18082738322E+02  0.18726482221E+02  0.00000000000E+00 0. -1.
         11    1    3    3    0    0  0.50391816074E+01  0.45089255768E+01 -0.35334957759E+01  0.76295054747E+01  0.51100000000E-03 0. -1.
        -11    1    3    3    0    0  0.10657550800E+02  0.27405748205E+02 -0.15221172265E+02  0.33111063243E+02  0.51100000000E-03 0.  1.
         12    1    3    3    0    0 -0.16461028666E+02 -0.27107225144E+02  0.67192971912E+00  0.31720949060E+02  0.00000000000E+00 0. -1.
</event>
<event>
 7    1  0.2153242E-013  0.7246154E+02  0.7816164E-02  0.1226708E+00
        -11   -1    0    0    0    0  0.00000000000E+00  0.00000000000E+00  0.45593999997E+02  0.45594000000E+02  0.51100000000E-03 0. -1.
         11   -1    0    0    0    0 -0.00000000000E+00 -0.00000000000E+00 -0.45593999997E+02  0.45594000000E+02  0.51100000000E-03 0.  1.
    9900012    2    1    2    0    0  0.69836209801E+00 -0.14836169819E+02 -0.11405291580E+02  0.72461539561E+02  0.69999959965E+02 0.  0.
         12    1    1    2    0    0 -0.69836209801E+00  0.14836169819E+02  0.11405291580E+02  0.18726460439E+02  0.00000000000E+00 0. -1.
         11    1    3    3    0    0  0.70897509184E+01 -0.14615115259E+02  0.61746559503E+01  0.17377932514E+02  0.51100000000E-03 0. -1.
        -11    1    3    3    0    0  0.12776155499E+02 -0.14894591861E+02 -0.23111451773E+02  0.30318611765E+02  0.51100000000E-03 0.  1.
        -12    1    3    3    0    0 -0.19167544320E+02  0.14673537300E+02  0.55315042422E+01  0.24764995282E+02  0.00000000000E+00 0.  1.
</event>
<event>
 7    1  0.2153242E-013  0.7246165E+02  0.7816164E-02  0.1226708E+00
        -11   -1    0    0    0    0  0.00000000000E+00  0.00000000000E+00  0.45593999997E+02  0.45594000000E+02  0.51100000000E-03 0.  1.
         11   -1    0    0    0    0 -0.00000000000E+00 -0.00000000000E+00 -0.45593999997E+02  0.45594000000E+02  0.51100000000E-03 0. -1.
    9900012    2    1    2    0    0  0.17748137310E+02 -0.10045288755E+01  0.58881946877E+01  0.72461647100E+02  0.70000100054E+02 0.  0.
         12    1    1    2    0    0 -0.17748137310E+02  0.10045288755E+01 -0.58881946877E+01  0.18726352900E+02  0.00000000000E+00 0. -1.
         11    1    3    3    0    0 -0.42053176387E+01  0.50907852337E+01 -0.13569511209E+01  0.67410761265E+01  0.51100000000E-03 0. -1.
        -11    1    3    3    0    0 -0.34522752294E+01  0.89562846912E+01  0.28017865658E+02  0.29616448740E+02  0.51100000000E-03 0.  1.
        -12    1    3    3    0    0  0.25405730178E+02 -0.15051598800E+02 -0.20772719849E+02  0.36104122234E+02  0.00000000000E+00 0.  1.
</event>
<event>
 7    1  0.2153242E-013  0.7246154E+02  0.7816164E-02  0.1226708E+00
        -11   -1    0    0    0    0  0.00000000000E+00  0.00000000000E+00  0.45593999997E+02  0.45594000000E+02  0.51100000000E-03 0. -1.
         11   -1    0    0    0    0 -0.00000000000E+00 -0.00000000000E+00 -0.45593999997E+02  0.45594000000E+02  0.51100000000E-03 0.  1.
    9900012    2    1    2    0    0  0.21290264112E+01  0.17374040726E+02 -0.66550852795E+01  0.72461542655E+02  0.69999963995E+02 0.  0.
         12    1    1    2    0    0 -0.21290264112E+01 -0.17374040726E+02  0.66550852795E+01  0.18726457345E+02  0.00000000000E+00 0. -1.
         11    1    3    3    0    0  0.19710075003E+02  0.80216823299E+01 -0.10075628432E+02  0.23544696485E+02  0.51100000000E-03 0. -1.
        -11    1    3    3    0    0  0.10959614850E+02  0.57337037212E+01 -0.11163997369E+02  0.16662033295E+02  0.51100000000E-03 0.  1.
         12    1    3    3    0    0 -0.28540663442E+02  0.36186546751E+01  0.14584540521E+02  0.32254812874E+02  0.00000000000E+00 0. -1.
</event>
<event>
 7    1  0.2153242E-013  0.7246158E+02  0.7816164E-02  0.1226708E+00
        -11   -1    0    0    0    0  0.00000000000E+00  0.00000000000E+00  0.45593999997E+02  0.45594000000E+02  0.51100000000E-03 0.  1.
         11   -1    0    0    0    0 -0.00000000000E+00 -0.00000000000E+00 -0.45593999997E+02  0.45594000000E+02  0.51100000000E-03 0. -1.
    9900012    2    1    2    0    0 -0.76241581707E+00 -0.25287795659E+01  0.18539223660E+02  0.72461579683E+02  0.70000012231E+02 0.  0.
         12    1    1    2    0    0  0.76241581707E+00  0.25287795659E+01 -0.18539223660E+02  0.18726420317E+02  0.00000000000E+00 0. -1.
         11    1    3    3    0    0 -0.52774410088E+01  0.64841823939E+01 -0.18744888743E+02  0.20524786458E+02  0.51100000000E-03 0. -1.
        -11    1    3    3    0    0 -0.47133326374E+01  0.61341628187E+00 -0.54141945264E+01  0.72045323732E+01  0.51100000000E-03 0.  1.
        -12    1    3    3    0    0  0.92283578291E+01 -0.96263782416E+01  0.42698306929E+02  0.44732260852E+02  0.00000000000E+00 0.  1.
</event>
<event>
 7    1  0.2153242E-013  0.7246235E+02  0.7816164E-02  0.1226706E+00
        -11   -1    0    0    0    0  0.00000000000E+00  0.00000000000E+00  0.45593999997E+02  0.45594000000E+02  0.51100000000E-03 0.  1.
         11   -1    0    0    0    0 -0.00000000000E+00 -0.00000000000E+00 -0.45593999997E+02  0.45594000000E+02  0.51100000000E-03 0. -1.
    9900012    2    1    2    0    0  0.50865989965E+01 -0.11959797065E+02  0.13481081188E+02  0.72462354879E+02  0.70001022060E+02 0.  0.
         12    1    1    2    0    0 -0.50865989965E+01  0.11959797065E+02 -0.13481081188E+02  0.18725645121E+02  0.00000000000E+00 0. -1.
         11    1    3    3    0    0  0.26655303277E+01 -0.22781411760E+01  0.56379537154E+01  0.66393901455E+01  0.51100000000E-03 0. -1.
        -11    1    3    3    0    0  0.29386375853E+02 -0.96190472648E+01  0.19381319327E+02  0.36492748529E+02  0.51100000000E-03 0.  1.
         12    1    3    3    0    0 -0.26965307184E+02 -0.62608624529E-01 -0.11538191854E+02  0.29330216205E+02  0.00000000000E+00 0. -1.
</event>
<event>
 7    1  0.2153242E-013  0.7246154E+02  0.7816164E-02  0.1226708E+00
        -11   -1    0    0    0    0  0.00000000000E+00  0.00000000000E+00  0.45593999997E+02  0.45594000000E+02  0.51100000000E-03 0.  1.
         11   -1    0    0    0    0 -0.00000000000E+00 -0.00000000000E+00 -0.45593999997E+02  0.45594000000E+02  0.51100000000E-03 0. -1.
    9900012    2    1    2    0    0 -0.19754274838E+01  0.16736360538E+02  0.81653170642E+01  0.72461535290E+02  0.69999954400E+02 0.  0.
         12    1    1    2    0    0  0.19754274838E+01 -0.16736360538E+02 -0.81653170642E+01  0.18726464710E+02  0.00000000000E+00 0. -1.
         11    1    3    3    0    0  0.37714300056E+00 -0.11252966705E+01  0.71718971379E+00  0.13866833763E+01  0.51100000000E-03 0. -1.
        -11    1    3    3    0    0  0.25023266896E+02  0.55981311698E+01  0.25419611058E+02  0.36106226407E+02  0.51100000000E-03 0.  1.
         12    1    3    3    0    0 -0.27375837380E+02  0.12263526038E+02 -0.17971483708E+02  0.34968625507E+02  0.00000000000E+00 0. -1.
</event>
<event>
 7    1  0.2153242E-013  0.7246141E+02  0.7816164E-02  0.1226708E+00
        -11   -1    0    0    0    0  0.00000000000E+00  0.00000000000E+00  0.45593999997E+02  0.45594000000E+02  0.51100000000E-03 0.  1.
         11   -1    0    0    0    0 -0.00000000000E+00 -0.00000000000E+00 -0.45593999997E+02  0.45594000000E+02  0.51100000000E-03 0. -1.
    9900012    2    1    2    0    0 -0.17508741150E+02  0.53707134648E+01 -0.39095616014E+01  0.72461407899E+02  0.69999788450E+02 0.  0.
         12    1    1    2    0    0  0.17508741150E+02 -0.53707134648E+01  0.39095616014E+01  0.18726592101E+02  0.00000000000E+00 0. -1.
         11    1    3    3    0    0 -0.91239226596E+01 -0.12911505177E+02 -0.19199919073E+02  0.24871466046E+02  0.51100000000E-03 0. -1.
        -11    1    3    3    0    0 -0.34617487852E+01 -0.47708741218E+01 -0.10876353880E+02  0.12370934424E+02  0.51100000000E-03 0.  1.
        -12    1    3    3    0    0 -0.49230697055E+01  0.23053092764E+02  0.26166711352E+02  0.35219007429E+02  0.00000000000E+00 0.  1.
</event>
<event>
 7    1  0.3629833E-013  0.7246157E+02  0.7816164E-02  0.1226708E+00
        -11   -1    0    0    0    0  0.00000000000E+00  0.00000000000E+00  0.45593999997E+02  0.45594000000E+02  0.51100000000E-03 0. -1.
         11   -1    0    0    0    0 -0.00000000000E+00 -0.00000000000E+00 -0.45593999997E+02  0.45594000000E+02  0.51100000000E-03 0.  1.
    9900012    2    1    2    0    0  0.12366500675E+02 -0.25013459150E+00 -0.14060098769E+02  0.72461567247E+02  0.69999996030E+02 0.  0.
         12    1    1    2    0    0 -0.12366500675E+02  0.25013459150E+00  0.14060098769E+02  0.18726432753E+02  0.00000000000E+00 0. -1.
         11    1    3    3    0    0 -0.29804599687E+01  0.11626655700E+02  0.68917725490E+01  0.13840476636E+02  0.51100000000E-03 0. -1.
        -11    1    3    3    0    0 -0.78677200533E+01  0.12001191084E+02 -0.20858508973E+02  0.25318116105E+02  0.51100000000E-03 0.  1.
         12    1    3    3    0    0  0.23214680697E+02 -0.23877981375E+02 -0.93362345050E-01  0.33302974506E+02  0.00000000000E+00 0. -1.
</event>
<event>
 7    1  0.2153242E-013  0.7246155E+02  0.7816164E-02  0.1226708E+00
        -11   -1    0    0    0    0  0.00000000000E+00  0.00000000000E+00  0.45593999997E+02  0.45594000000E+02  0.51100000000E-03 0.  1.
         11   -1    0    0    0    0 -0.00000000000E+00 -0.00000000000E+00 -0.45593999997E+02  0.45594000000E+02  0.51100000000E-03 0. -1.
    9900012    2    1    2    0    0  0.45992429137E+01 -0.13057354419E+02  0.12610810074E+02  0.72461546237E+02  0.69999968661E+02 0.  0.
         12    1    1    2    0    0 -0.45992429137E+01  0.13057354419E+02 -0.12610810074E+02  0.18726453763E+02  0.00000000000E+00 0. -1.
         11    1    3    3    0    0  0.40969461816E+01 -0.14325794875E+02  0.16465374067E+02  0.22206348422E+02  0.51100000000E-03 0. -1.
        -11    1    3    3    0    0  0.19783881531E+02 -0.90548798755E+01  0.10434152768E+02  0.24130154625E+02  0.51100000000E-03 0.  1.
         12    1    3    3    0    0 -0.19281584799E+02  0.10323320332E+02 -0.14288716761E+02  0.26125043190E+02  0.00000000000E+00 0. -1.
</event>
<event>
 7    1  0.2153242E-013  0.7246151E+02  0.7816164E-02  0.1226708E+00
        -11   -1    0    0    0    0  0.00000000000E+00  0.00000000000E+00  0.45593999997E+02  0.45594000000E+02  0.51100000000E-03 0.  1.
         11   -1    0    0    0    0 -0.00000000000E+00 -0.00000000000E+00 -0.45593999997E+02  0.45594000000E+02  0.51100000000E-03 0. -1.
    9900012    2    1    2    0    0  0.52975927929E+01 -0.14652174886E+02  0.10388974417E+02  0.72461507863E+02  0.69999918672E+02 0.  0.
         12    1    1    2    0    0 -0.52975927929E+01  0.14652174886E+02 -0.10388974417E+02  0.18726492137E+02  0.00000000000E+00 0. -1.
         11    1    3    3    0    0  0.30314003649E+01 -0.77910848150E+01 -0.73741055303E+01  0.11147547865E+02  0.51100000000E-03 0. -1.
        -11    1    3    3    0    0 -0.13726699389E+02 -0.22898956896E+02 -0.71554197286E+01  0.27640270165E+02  0.51100000000E-03 0.  1.
        -12    1    3    3    0    0  0.15992891817E+02  0.16037866824E+02  0.24918499676E+02  0.33673689834E+02  0.00000000000E+00 0.  1.
</event>
<event>
 7    1  0.2153242E-013  0.7246160E+02  0.7816164E-02  0.1226708E+00
        -11   -1    0    0    0    0  0.00000000000E+00  0.00000000000E+00  0.45593999997E+02  0.45594000000E+02  0.51100000000E-03 0.  1.
         11   -1    0    0    0    0 -0.00000000000E+00 -0.00000000000E+00 -0.45593999997E+02  0.45594000000E+02  0.51100000000E-03 0. -1.
    9900012    2    1    2    0    0 -0.16853842931E+02 -0.54815554158E+01  0.60480353342E+01  0.72461596108E+02  0.70000033628E+02 0.  0.
         12    1    1    2    0    0  0.16853842931E+02  0.54815554158E+01 -0.60480353342E+01  0.18726403892E+02  0.00000000000E+00 0. -1.
         11    1    3    3    0    0 -0.54641756819E+00  0.69853663123E+01  0.71852376445E+01  0.10036012901E+02  0.51100000000E-03 0. -1.
        -11    1    3    3    0    0 -0.89858555425E+01  0.76380093621E+01  0.25597099410E+02  0.28183262503E+02  0.51100000000E-03 0.  1.
         12    1    3    3    0    0 -0.73215698199E+01 -0.20104931090E+02 -0.26734301720E+02  0.34242320705E+02  0.00000000000E+00 0. -1.
</event>
<event>
 7    1  0.2153242E-013  0.7246157E+02  0.7816164E-02  0.1226708E+00
        -11   -1    0    0    0    0  0.00000000000E+00  0.00000000000E+00  0.45593999997E+02  0.45594000000E+02  0.51100000000E-03 0.  1.
         11   -1    0    0    0    0 -0.00000000000E+00 -0.00000000000E+00 -0.45593999997E+02  0.45594000000E+02  0.51100000000E-03 0. -1.
    9900012    2    1    2    0    0 -0.75379228393E+01  0.14901660400E+02  0.84734476081E+01  0.72461572744E+02  0.70000003191E+02 0.  0.
         12    1    1    2    0    0  0.75379228393E+01 -0.14901660400E+02 -0.84734476081E+01  0.18726427256E+02  0.00000000000E+00 0. -1.
         11    1    3    3    0    0 -0.10194775712E+02  0.26105767748E+02  0.13748772758E+02  0.31216555129E+02  0.51100000000E-03 0. -1.
        -11    1    3    3    0    0  0.98484429883E+00  0.10897761022E+02  0.95956045894E+01  0.14553581734E+02  0.51100000000E-03 0.  1.
         12    1    3    3    0    0  0.16720085744E+01 -0.22101868369E+02 -0.14870929739E+02  0.26691435881E+02  0.00000000000E+00 0. -1.
</event>
<event>
 7    1  0.2153242E-013  0.7246157E+02  0.7816164E-02  0.1226708E+00
        -11   -1    0    0    0    0  0.00000000000E+00  0.00000000000E+00  0.45593999997E+02  0.45594000000E+02  0.51100000000E-03 0.  1.
         11   -1    0    0    0    0 -0.00000000000E+00 -0.00000000000E+00 -0.45593999997E+02  0.45594000000E+02  0.51100000000E-03 0. -1.
    9900012    2    1    2    0    0  0.63786615627E+01 -0.16958382524E+02 -0.47334215625E+01  0.72461565720E+02  0.69999994041E+02 0.  0.
         12    1    1    2    0    0 -0.63786615627E+01  0.16958382524E+02  0.47334215625E+01  0.18726434280E+02  0.00000000000E+00 0. -1.
         11    1    3    3    0    0  0.31123382742E+02 -0.22292598597E+02 -0.12631584561E+02  0.40313544055E+02  0.51100000000E-03 0. -1.
        -11    1    3    3    0    0 -0.48072884092E+01 -0.57054577609E+01 -0.12978961022E+01  0.75727673056E+01  0.51100000000E-03 0.  1.
        -12    1    3    3    0    0 -0.19937432770E+02  0.11039673834E+02  0.91960591010E+01  0.24575254359E+02  0.00000000000E+00 0.  1.
</event>
<event>
 7    1  0.2153242E-013  0.7246161E+02  0.7816164E-02  0.1226708E+00
        -11   -1    0    0    0    0  0.00000000000E+00  0.00000000000E+00  0.45593999997E+02  0.45594000000E+02  0.51100000000E-03 0. -1.
         11   -1    0    0    0    0 -0.00000000000E+00 -0.00000000000E+00 -0.45593999997E+02  0.45594000000E+02  0.51100000000E-03 0.  1.
    9900012    2    1    2    0    0  0.29113434808E+01 -0.35900304621E+01 -0.18147000231E+02  0.72461605340E+02  0.70000045654E+02 0.  0.
         12    1    1    2    0    0 -0.29113434808E+01  0.35900304621E+01  0.18147000231E+02  0.18726394660E+02  0.00000000000E+00 0. -1.
         11    1    3    3    0    0 -0.56357692473E+01  0.18649078512E+02  0.20133268807E+01  0.19585798675E+02  0.51100000000E-03 0. -1.
        -11    1    3    3    0    0 -0.43675514362E+01 -0.18574169936E+02  0.87569854323E+01  0.20994287044E+02  0.51100000000E-03 0.  1.
        -12    1    3    3    0    0  0.12914664164E+02 -0.36649390378E+01 -0.28917312544E+02  0.31881519622E+02  0.00000000000E+00 0.  1.
</event>
<event>
 7    1  0.2153242E-013  0.7246156E+02  0.7816164E-02  0.1226708E+00
        -11   -1    0    0    0    0  0.00000000000E+00  0.00000000000E+00  0.45593999997E+02  0.45594000000E+02  0.51100000000E-03 0.  1.
         11   -1    0    0    0    0 -0.00000000000E+00 -0.00000000000E+00 -0.45593999997E+02  0.45594000000E+02  0.51100000000E-03 0. -1.
    9900012    2    1    2    0    0 -0.29749330244E+01  0.18479261128E+02 -0.58841827678E+00  0.72461560018E+02  0.69999986613E+02 0.  0.
         12    1    1    2    0    0  0.29749330244E+01 -0.18479261128E+02  0.58841827678E+00  0.18726439982E+02  0.00000000000E+00 0. -1.
         11    1    3    3    0    0 -0.29941562597E+02  0.17216517749E+02 -0.45250853101E+01  0.34833633911E+02  0.51100000000E-03 0. -1.
        -11    1    3    3    0    0 -0.36391265556E+01  0.44891325142E+01 -0.23127008170E+01  0.62244789459E+01  0.51100000000E-03 0.  1.
        -12    1    3    3    0    0  0.30605756128E+02 -0.32263891353E+01  0.62493678504E+01  0.31403447160E+02  0.00000000000E+00 0.  1.
</event>
<event>
 7    1  0.2153242E-013  0.7246180E+02  0.7816164E-02  0.1226707E+00
        -11   -1    0    0    0    0  0.00000000000E+00  0.00000000000E+00  0.45593999997E+02  0.45594000000E+02  0.51100000000E-03 0.  1.
         11   -1    0    0    0    0 -0.00000000000E+00 -0.00000000000E+00 -0.45593999997E+02  0.45594000000E+02  0.51100000000E-03 0. -1.
    9900012    2    1    2    0    0  0.17746843574E+02 -0.30975602597E+01  0.51113024929E+01  0.72461795111E+02  0.70000292864E+02 0.  0.
         12    1    1    2    0    0 -0.17746843574E+02  0.30975602597E+01 -0.51113024929E+01  0.18726204889E+02  0.00000000000E+00 0. -1.
         11    1    3    3    0    0  0.43032275880E+01  0.25599517889E+02 -0.15710228551E+02  0.30342451536E+02  0.51100000000E-03 0. -1.
        -11    1    3    3    0    0  0.62562938780E+01 -0.38418252372E+00  0.81418994852E+01  0.10275180621E+02  0.51100000000E-03 0.  1.
        -12    1    3    3    0    0  0.71873221075E+01 -0.28312895625E+02  0.12679631558E+02  0.31844162954E+02  0.00000000000E+00 0.  1.
</event>
<event>
 7    1  0.2153242E-013  0.7246154E+02  0.7816164E-02  0.1226708E+00
        -11   -1    0    0    0    0  0.00000000000E+00  0.00000000000E+00  0.45593999997E+02  0.45594000000E+02  0.51100000000E-03 0.  1.
         11   -1    0    0    0    0 -0.00000000000E+00 -0.00000000000E+00 -0.45593999997E+02  0.45594000000E+02  0.51100000000E-03 0. -1.
    9900012    2    1    2    0    0 -0.17250607944E+02 -0.47563339644E+00  0.72712065405E+01  0.72461544219E+02  0.69999966032E+02 0.  0.
         12    1    1    2    0    0  0.17250607944E+02  0.47563339644E+00 -0.72712065405E+01  0.18726455781E+02  0.00000000000E+00 0. -1.
         11    1    3    3    0    0 -0.30253688441E+01  0.70648601731E+01  0.16445274687E+01  0.78593623638E+01  0.51100000000E-03 0. -1.
        -11    1    3    3    0    0  0.12200890967E+02  0.67304141713E+01  0.25170337266E+02  0.28769881711E+02  0.51100000000E-03 0.  1.
         12    1    3    3    0    0 -0.26426130066E+02 -0.14270907741E+02 -0.19543658194E+02  0.35832300145E+02  0.00000000000E+00 0. -1.
</event>
<event>
 7    1  0.2153242E-013  0.7246153E+02  0.7816164E-02  0.1226708E+00
        -11   -1    0    0    0    0  0.00000000000E+00  0.00000000000E+00  0.45593999997E+02  0.45594000000E+02  0.51100000000E-03 0.  1.
         11   -1    0    0    0    0 -0.00000000000E+00 -0.00000000000E+00 -0.45593999997E+02  0.45594000000E+02  0.51100000000E-03 0. -1.
    9900012    2    1    2    0    0 -0.15318003895E+02 -0.60441022995E+01  0.89167488504E+01  0.72461526066E+02  0.69999942385E+02 0.  0.
         12    1    1    2    0    0  0.15318003895E+02  0.60441022995E+01 -0.89167488504E+01  0.18726473934E+02  0.00000000000E+00 0. -1.
         11    1    3    3    0    0 -0.28799277672E+02 -0.24332366213E+02 -0.64606115339E+01  0.38251822722E+02  0.51100000000E-03 0. -1.
        -11    1    3    3    0    0  0.64825872754E+01 -0.34922253008E+01  0.59467471101E+01  0.94648495386E+01  0.51100000000E-03 0.  1.
        -12    1    3    3    0    0  0.69986865012E+01  0.21780489214E+02  0.94306132742E+01  0.24744853806E+02  0.00000000000E+00 0.  1.
</event>
<event>
 7    1  0.2153242E-013  0.7246166E+02  0.7816164E-02  0.1226708E+00
        -11   -1    0    0    0    0  0.00000000000E+00  0.00000000000E+00  0.45593999997E+02  0.45594000000E+02  0.51100000000E-03 0. -1.
         11   -1    0    0    0    0 -0.00000000000E+00 -0.00000000000E+00 -0.45593999997E+02  0.45594000000E+02  0.51100000000E-03 0.  1.
    9900012    2    1    2    0    0  0.88972449462E+01 -0.43208749702E+01 -0.15901100392E+02  0.72461657009E+02  0.70000112962E+02 0.  0.
         12    1    1    2    0    0 -0.88972449462E+01  0.43208749702E+01  0.15901100392E+02  0.18726342991E+02  0.00000000000E+00 0. -1.
         11    1    3    3    0    0  0.16915008047E+02 -0.97156968343E+01  0.19440645009E+02  0.27539988033E+02  0.51100000000E-03 0. -1.
        -11    1    3    3    0    0 -0.92413354052E+01 -0.60421255790E+01 -0.43551886534E+01  0.11869171414E+02  0.51100000000E-03 0.  1.
         12    1    3    3    0    0  0.12235723040E+01  0.11436947443E+02 -0.30986556748E+02  0.33052497562E+02  0.00000000000E+00 0. -1.
</event>
<event>
 7    1  0.2153242E-013  0.7246156E+02  0.7816164E-02  0.1226708E+00
        -11   -1    0    0    0    0  0.00000000000E+00  0.00000000000E+00  0.45593999997E+02  0.45594000000E+02  0.51100000000E-03 0. -1.
         11   -1    0    0    0    0 -0.00000000000E+00 -0.00000000000E+00 -0.45593999997E+02  0.45594000000E+02  0.51100000000E-03 0.  1.
    9900012    2    1    2    0    0  0.14876164525E+02 -0.92908051313E+01 -0.65620178389E+01  0.72461563898E+02  0.69999991668E+02 0.  0.
         12    1    1    2    0    0 -0.14876164525E+02  0.92908051313E+01  0.65620178389E+01  0.18726436102E+02  0.00000000000E+00 0. -1.
         11    1    3    3    0    0 -0.54396994247E+01 -0.16323616832E+02 -0.23049950397E+02  0.28763709946E+02  0.51100000000E-03 0. -1.
        -11    1    3    3    0    0 -0.76749681499E+01  0.48154844883E+01 -0.29715095001E+01  0.95354022427E+01  0.51100000000E-03 0.  1.
        -12    1    3    3    0    0  0.27990832099E+02  0.22173272122E+01  0.19459442058E+02  0.34162451709E+02  0.00000000000E+00 0.  1.
</event>
<event>
 7    1  0.2153242E-013  0.7246158E+02  0.7816164E-02  0.1226708E+00
        -11   -1    0    0    0    0  0.00000000000E+00  0.00000000000E+00  0.45593999997E+02  0.45594000000E+02  0.51100000000E-03 0. -1.
         11   -1    0    0    0    0 -0.00000000000E+00 -0.00000000000E+00 -0.45593999997E+02  0.45594000000E+02  0.51100000000E-03 0.  1.
    9900012    2    1    2    0    0 -0.39842320746E+01  0.16607361069E+02  0.76811631313E+01  0.72461579788E+02  0.70000012367E+02 0.  0.
         12    1    1    2    0    0  0.39842320746E+01 -0.16607361069E+02 -0.76811631313E+01  0.18726420212E+02  0.00000000000E+00 0. -1.
         11    1    3    3    0    0  0.67202430144E+01 -0.23123829771E+01  0.71704499617E+01  0.10095748319E+02  0.51100000000E-03 0. -1.
        -11    1    3    3    0    0 -0.17597293922E+02  0.38012171886E+02 -0.18612037863E+01  0.41929155068E+02  0.51100000000E-03 0.  1.
         12    1    3    3    0    0  0.68928188329E+01 -0.19092427840E+02  0.23719169559E+01  0.20436676401E+02  0.00000000000E+00 0. -1.
</event>
<event>
 7    1  0.2153242E-013  0.7246161E+02  0.7816164E-02  0.1226708E+00
        -11   -1    0    0    0    0  0.00000000000E+00  0.00000000000E+00  0.45593999997E+02  0.45594000000E+02  0.51100000000E-03 0. -1.
         11   -1    0    0    0    0 -0.00000000000E+00 -0.00000000000E+00 -0.45593999997E+02  0.45594000000E+02  0.51100000000E-03 0.  1.
    9900012    2    1    2    0    0  0.78240667724E+01  0.12645856768E+01 -0.16966506721E+02  0.72461613586E+02  0.70000056396E+02 0.  0.
         12    1    1    2    0    0 -0.78240667724E+01 -0.12645856768E+01  0.16966506721E+02  0.18726386414E+02  0.00000000000E+00 0. -1.
         11    1    3    3    0    0 -0.64440118732E+01 -0.27655891334E+02 -0.25856697254E+01  0.28514194757E+02  0.51100000000E-03 0. -1.
        -11    1    3    3    0    0  0.11573232373E+02  0.53225460696E+01  0.45999190100E+01  0.13543576314E+02  0.51100000000E-03 0.  1.
         12    1    3    3    0    0  0.26948462729E+01  0.23597930941E+02 -0.18980756006E+02  0.30403842515E+02  0.00000000000E+00 0. -1.
</event>
<event>
 7    1  0.2153242E-013  0.7246151E+02  0.7816164E-02  0.1226708E+00
        -11   -1    0    0    0    0  0.00000000000E+00  0.00000000000E+00  0.45593999997E+02  0.45594000000E+02  0.51100000000E-03 0.  1.
         11   -1    0    0    0    0 -0.00000000000E+00 -0.00000000000E+00 -0.45593999997E+02  0.45594000000E+02  0.51100000000E-03 0. -1.
    9900012    2    1    2    0    0  0.16592918918E+01 -0.22236112908E+01  0.18519818833E+02  0.72461511104E+02  0.69999922894E+02 0.  0.
         12    1    1    2    0    0 -0.16592918918E+01  0.22236112908E+01 -0.18519818833E+02  0.18726488896E+02  0.00000000000E+00 0. -1.
         11    1    3    3    0    0 -0.62654232206E+01 -0.23134876606E+02  0.47674353231E+01  0.24437808484E+02  0.51100000000E-03 0. -1.
        -11    1    3    3    0    0  0.12364539496E+02  0.94869534805E+01 -0.11890099922E+02  0.19602515137E+02  0.51100000000E-03 0.  1.
        -12    1    3    3    0    0 -0.44398243834E+01  0.11424311834E+02  0.25642483431E+02  0.28421187483E+02  0.00000000000E+00 0.  1.
</event>
<event>
 7    1  0.2153242E-013  0.7246156E+02  0.7816164E-02  0.1226708E+00
        -11   -1    0    0    0    0  0.00000000000E+00  0.00000000000E+00  0.45593999997E+02  0.45594000000E+02  0.51100000000E-03 0. -1.
         11   -1    0    0    0    0 -0.00000000000E+00 -0.00000000000E+00 -0.45593999997E+02  0.45594000000E+02  0.51100000000E-03 0.  1.
    9900012    2    1    2    0    0 -0.17299745623E+02  0.21174431156E+01  0.68494351467E+01  0.72461560782E+02  0.69999987608E+02 0.  0.
         12    1    1    2    0    0  0.17299745623E+02 -0.21174431156E+01 -0.68494351467E+01  0.18726439218E+02  0.00000000000E+00 0. -1.
         11    1    3    3    0    0  0.12489529365E+02  0.11905156193E+02 -0.69738216427E+00  0.17268683502E+02  0.51100000000E-03 0. -1.
        -11    1    3    3    0    0 -0.16154087284E+02  0.76023162783E+01 -0.15223230918E+02  0.23462662010E+02  0.51100000000E-03 0.  1.
         12    1    3    3    0    0 -0.13635187704E+02 -0.17390029356E+02  0.22770048229E+02  0.31730215270E+02  0.00000000000E+00 0. -1.
</event>
<event>
 7    1  0.2153242E-013  0.7246147E+02  0.7816164E-02  0.1226708E+00
        -11   -1    0    0    0    0  0.00000000000E+00  0.00000000000E+00  0.45593999997E+02  0.45594000000E+02  0.51100000000E-03 0.  1.
         11   -1    0    0    0    0 -0.00000000000E+00 -0.00000000000E+00 -0.45593999997E+02  0.45594000000E+02  0.51100000000E-03 0. -1.
    9900012    2    1    2    0    0  0.79983940499E+00  0.94242508353E+01  0.16162503361E+02  0.72461474381E+02  0.69999875054E+02 0.  0.
         12    1    1    2    0    0 -0.79983940499E+00 -0.94242508353E+01 -0.16162503361E+02  0.18726525619E+02  0.00000000000E+00 0. -1.
         11    1    3    3    0    0 -0.12629340785E+01 -0.77758406978E+01  0.74466641317E+01  0.10840272506E+02  0.51100000000E-03 0. -1.
        -11    1    3    3    0    0 -0.21352341883E+02  0.27741597990E+02  0.19273250551E+01  0.35060424200E+02  0.51100000000E-03 0.  1.
         12    1    3    3    0    0  0.23415115367E+02 -0.10541506457E+02  0.67885141742E+01  0.26560777675E+02  0.00000000000E+00 0. -1.
</event>
<event>
 7    1  0.2153242E-013  0.7246154E+02  0.7816164E-02  0.1226708E+00
        -11   -1    0    0    0    0  0.00000000000E+00  0.00000000000E+00  0.45593999997E+02  0.45594000000E+02  0.51100000000E-03 0.  1.
         11   -1    0    0    0    0 -0.00000000000E+00 -0.00000000000E+00 -0.45593999997E+02  0.45594000000E+02  0.51100000000E-03 0. -1.
    9900012    2    1    2    0    0 -0.13763993828E+02 -0.30844528531E+01  0.12317417012E+02  0.72461544453E+02  0.69999966337E+02 0.  0.
         12    1    1    2    0    0  0.13763993828E+02  0.30844528531E+01 -0.12317417012E+02  0.18726455547E+02  0.00000000000E+00 0. -1.
         11    1    3    3    0    0 -0.24147820220E+01 -0.29333775071E+02  0.10879258567E+02  0.31379289338E+02  0.51100000000E-03 0. -1.
        -11    1    3    3    0    0 -0.90883196266E+00  0.50231652615E+01  0.13569587831E+02  0.14497995687E+02  0.51100000000E-03 0.  1.
        -12    1    3    3    0    0 -0.10440379843E+02  0.21226156956E+02 -0.12131429385E+02  0.26584259428E+02  0.00000000000E+00 0.  1.
</event>
<event>
 7    1  0.2153242E-013  0.7246156E+02  0.7816164E-02  0.1226708E+00
        -11   -1    0    0    0    0  0.00000000000E+00  0.00000000000E+00  0.45593999997E+02  0.45594000000E+02  0.51100000000E-03 0.  1.
         11   -1    0    0    0    0 -0.00000000000E+00 -0.00000000000E+00 -0.45593999997E+02  0.45594000000E+02  0.51100000000E-03 0. -1.
    9900012    2    1    2    0    0 -0.48283233021E+01  0.74174651291E+01  0.16502968431E+02  0.72461562488E+02  0.69999989831E+02 0.  0.
         12    1    1    2    0    0  0.48283233021E+01 -0.74174651291E+01 -0.16502968431E+02  0.18726437512E+02  0.00000000000E+00 0. -1.
         11    1    3    3    0    0 -0.86191170469E+01  0.28804680758E+01  0.70329652658E+01  0.11491252138E+02  0.51100000000E-03 0. -1.
        -11    1    3    3    0    0 -0.24711247320E+02 -0.49991122111E+01  0.16465022003E+02  0.30112021135E+02  0.51100000000E-03 0.  1.
         12    1    3    3    0    0  0.28502041065E+02  0.95361092644E+01 -0.69950188371E+01  0.30858289215E+02  0.00000000000E+00 0. -1.
</event>
<event>
 7    1  0.2153242E-013  0.7246133E+02  0.7816164E-02  0.1226709E+00
        -11   -1    0    0    0    0  0.00000000000E+00  0.00000000000E+00  0.45593999997E+02  0.45594000000E+02  0.51100000000E-03 0. -1.
         11   -1    0    0    0    0 -0.00000000000E+00 -0.00000000000E+00 -0.45593999997E+02  0.45594000000E+02  0.51100000000E-03 0.  1.
    9900012    2    1    2    0    0  0.13467328448E+02 -0.31101652118E+00 -0.13008561789E+02  0.72461325265E+02  0.69999680803E+02 0.  0.
         12    1    1    2    0    0 -0.13467328448E+02  0.31101652118E+00  0.13008561789E+02  0.18726674735E+02  0.00000000000E+00 0. -1.
         11    1    3    3    0    0  0.15586309995E+02 -0.30043149059E+02 -0.20322037428E+01  0.33906543866E+02  0.51100000000E-03 0. -1.
        -11    1    3    3    0    0  0.76779127579E+01  0.49167244163E+01  0.12588017299E+01  0.92037549598E+01  0.51100000000E-03 0.  1.
        -12    1    3    3    0    0 -0.97968943050E+01  0.24815408121E+02 -0.12235159776E+02  0.29351026439E+02  0.00000000000E+00 0.  1.
</event>
<event>
 7    1  0.2153242E-013  0.7246143E+02  0.7816164E-02  0.1226708E+00
        -11   -1    0    0    0    0  0.00000000000E+00  0.00000000000E+00  0.45593999997E+02  0.45594000000E+02  0.51100000000E-03 0. -1.
         11   -1    0    0    0    0 -0.00000000000E+00 -0.00000000000E+00 -0.45593999997E+02  0.45594000000E+02  0.51100000000E-03 0.  1.
    9900012    2    1    2    0    0 -0.97147241669E+01 -0.86375663154E+01 -0.13479653136E+02  0.72461428874E+02  0.69999815773E+02 0.  0.
         12    1    1    2    0    0  0.97147241669E+01  0.86375663154E+01  0.13479653136E+02  0.18726571126E+02  0.00000000000E+00 0. -1.
         11    1    3    3    0    0  0.25386937380E+01 -0.62947370332E+01 -0.98580268496E+00  0.68586068124E+01  0.51100000000E-03 0. -1.
        -11    1    3    3    0    0 -0.40055162233E+01 -0.31514367986E+02  0.23381403200E+01  0.31853829443E+02  0.51100000000E-03 0.  1.
         12    1    3    3    0    0 -0.82479016817E+01  0.29171538704E+02 -0.14831990771E+02  0.33748992618E+02  0.00000000000E+00 0. -1.
</event>
<event>
 7    1  0.2153242E-013  0.7246155E+02  0.7816164E-02  0.1226708E+00
        -11   -1    0    0    0    0  0.00000000000E+00  0.00000000000E+00  0.45593999997E+02  0.45594000000E+02  0.51100000000E-03 0. -1.
         11   -1    0    0    0    0 -0.00000000000E+00 -0.00000000000E+00 -0.45593999997E+02  0.45594000000E+02  0.51100000000E-03 0.  1.
    9900012    2    1    2    0    0  0.17387603301E+02 -0.22513413020E+01 -0.65789531167E+01  0.72461550515E+02  0.69999974234E+02 0.  0.
         12    1    1    2    0    0 -0.17387603301E+02  0.22513413020E+01  0.65789531167E+01  0.18726449485E+02  0.00000000000E+00 0. -1.
         11    1    3    3    0    0  0.20442719213E+02  0.18591743259E+02  0.11733827768E+02  0.30020666225E+02  0.51100000000E-03 0. -1.
        -11    1    3    3    0    0  0.13624952745E+02 -0.89139589805E+01 -0.23435340101E+01  0.16449624735E+02  0.51100000000E-03 0.  1.
         12    1    3    3    0    0 -0.16680068657E+02 -0.11929125580E+02 -0.15969246875E+02  0.25991259555E+02  0.00000000000E+00 0. -1.
</event>
<event>
 7    1  0.2153242E-013  0.7246158E+02  0.7816164E-02  0.1226708E+00
        -11   -1    0    0    0    0  0.00000000000E+00  0.00000000000E+00  0.45593999997E+02  0.45594000000E+02  0.51100000000E-03 0. -1.
         11   -1    0    0    0    0 -0.00000000000E+00 -0.00000000000E+00 -0.45593999997E+02  0.45594000000E+02  0.51100000000E-03 0.  1.
    9900012    2    1    2    0    0  0.14040843652E+01 -0.18667676192E+02  0.47464135555E+00  0.72461578245E+02  0.70000010358E+02 0.  0.
         12    1    1    2    0    0 -0.14040843652E+01  0.18667676192E+02 -0.47464135555E+00  0.18726421755E+02  0.00000000000E+00 0. -1.
         11    1    3    3    0    0  0.20746982257E+01 -0.29729425921E+02  0.17369847831E+02  0.34494271296E+02  0.51100000000E-03 0. -1.
        -11    1    3    3    0    0  0.14419305607E+02 -0.13023410275E+01 -0.77492067029E+01  0.16421408926E+02  0.51100000000E-03 0.  1.
        -12    1    3    3    0    0 -0.15089919468E+02  0.12364090756E+02 -0.91459997725E+01  0.21545898023E+02  0.00000000000E+00 0.  1.
</event>
<event>
 7    1  0.2153242E-013  0.7246152E+02  0.7816164E-02  0.1226708E+00
        -11   -1    0    0    0    0  0.00000000000E+00  0.00000000000E+00  0.45593999997E+02  0.45594000000E+02  0.51100000000E-03 0. -1.
         11   -1    0    0    0    0 -0.00000000000E+00 -0.00000000000E+00 -0.45593999997E+02  0.45594000000E+02  0.51100000000E-03 0.  1.
    9900012    2    1    2    0    0 -0.11175323316E+02 -0.15021659855E+02 -0.37812367434E+00  0.72461518923E+02  0.69999933079E+02 0.  0.
         12    1    1    2    0    0  0.11175323316E+02  0.15021659855E+02  0.37812367434E+00  0.18726481077E+02  0.00000000000E+00 0. -1.
         11    1    3    3    0    0 -0.23588464770E+02 -0.25942918712E+02 -0.53824571156E+01  0.35474237784E+02  0.51100000000E-03 0. -1.
        -11    1    3    3    0    0 -0.57749095914E+01  0.76754159943E+01 -0.94916332800E+01  0.13503802948E+02  0.51100000000E-03 0.  1.
         12    1    3    3    0    0  0.18188051046E+02  0.32458428620E+01  0.14495966721E+02  0.23483478190E+02  0.00000000000E+00 0. -1.
</event>
<event>
 7    1  0.2153242E-013  0.7246156E+02  0.7816164E-02  0.1226708E+00
        -11   -1    0    0    0    0  0.00000000000E+00  0.00000000000E+00  0.45593999997E+02  0.45594000000E+02  0.51100000000E-03 0.  1.
         11   -1    0    0    0    0 -0.00000000000E+00 -0.00000000000E+00 -0.45593999997E+02  0.45594000000E+02  0.51100000000E-03 0. -1.
    9900012    2    1    2    0    0  0.60653878806E+01 -0.16859891246E+02  0.54437707320E+01  0.72461561397E+02  0.69999988410E+02 0.  0.
         12    1    1    2    0    0 -0.60653878806E+01  0.16859891246E+02 -0.54437707320E+01  0.18726438603E+02  0.00000000000E+00 0. -1.
         11    1    3    3    0    0  0.12512836610E+02 -0.14313826323E+02  0.23958242544E+02  0.30585193969E+02  0.51100000000E-03 0. -1.
        -11    1    3    3    0    0  0.10660835669E+02 -0.11166254537E+00  0.57299933595E+01  0.12103665141E+02  0.51100000000E-03 0.  1.
         12    1    3    3    0    0 -0.17108284398E+02 -0.24344023774E+01 -0.24244465172E+02  0.29772702287E+02  0.00000000000E+00 0. -1.
</event>
<event>
 7    1  0.2414387E-013  0.7246160E+02  0.7816164E-02  0.1226708E+00
        -11   -1    0    0    0    0  0.00000000000E+00  0.00000000000E+00  0.45593999997E+02  0.45594000000E+02  0.51100000000E-03 0. -1.
         11   -1    0    0    0    0 -0.00000000000E+00 -0.00000000000E+00 -0.45593999997E+02  0.45594000000E+02  0.51100000000E-03 0.  1.
    9900012    2    1    2    0    0  0.15385078787E+02  0.19016157345E+01 -0.10505298606E+02  0.72461599105E+02  0.70000037531E+02 0.  0.
         12    1    1    2    0    0 -0.15385078787E+02 -0.19016157345E+01  0.10505298606E+02  0.18726400895E+02  0.00000000000E+00 0. -1.
         11    1    3    3    0    0  0.13316493032E+02  0.41164610137E+01  0.39442731205E+01  0.14485562766E+02  0.51100000000E-03 0. -1.
        -11    1    3    3    0    0  0.18945579764E+02  0.19064349777E+02 -0.15061578830E+02  0.30809667024E+02  0.51100000000E-03 0.  1.
         12    1    3    3    0    0 -0.16876994009E+02 -0.21279195057E+02  0.61200710343E+00  0.27166369314E+02  0.00000000000E+00 0. -1.
</event>
<event>
 7    1  0.2153242E-013  0.7246154E+02  0.7816164E-02  0.1226708E+00
        -11   -1    0    0    0    0  0.00000000000E+00  0.00000000000E+00  0.45593999997E+02  0.45594000000E+02  0.51100000000E-03 0.  1.
         11   -1    0    0    0    0 -0.00000000000E+00 -0.00000000000E+00 -0.45593999997E+02  0.45594000000E+02  0.51100000000E-03 0. -1.
    9900012    2    1    2    0    0  0.10282946636E+02 -0.68010413931E+01  0.14095639047E+02  0.72461542895E+02  0.69999964308E+02 0.  0.
         12    1    1    2    0    0 -0.10282946636E+02  0.68010413931E+01 -0.14095639047E+02  0.18726457105E+02  0.00000000000E+00 0. -1.
         11    1    3    3    0    0  0.32361228624E+02 -0.20704052064E+02  0.13094480307E+01  0.38439843188E+02  0.51100000000E-03 0. -1.
        -11    1    3    3    0    0 -0.32907437192E+01  0.33970696222E+01 -0.44131538929E+01  0.64687714279E+01  0.51100000000E-03 0.  1.
        -12    1    3    3    0    0 -0.18787538268E+02  0.10505941049E+02  0.17199344909E+02  0.27552928280E+02  0.00000000000E+00 0.  1.
</event>
<event>
 7    1  0.2153242E-013  0.7246157E+02  0.7816164E-02  0.1226708E+00
        -11   -1    0    0    0    0  0.00000000000E+00  0.00000000000E+00  0.45593999997E+02  0.45594000000E+02  0.51100000000E-03 0. -1.
         11   -1    0    0    0    0 -0.00000000000E+00 -0.00000000000E+00 -0.45593999997E+02  0.45594000000E+02  0.51100000000E-03 0.  1.
    9900012    2    1    2    0    0  0.14389325231E+02 -0.72316532443E+01 -0.95566499094E+01  0.72461573573E+02  0.70000004270E+02 0.  0.
         12    1    1    2    0    0 -0.14389325231E+02  0.72316532443E+01  0.95566499094E+01  0.18726426427E+02  0.00000000000E+00 0. -1.
         11    1    3    3    0    0 -0.24711041138E+01  0.14663755717E+02 -0.34860322331E+01  0.15273654057E+02  0.51100000000E-03 0. -1.
        -11    1    3    3    0    0 -0.13629241143E+02 -0.16275542141E+02  0.85806130930E+01  0.22897082946E+02  0.51100000000E-03 0.  1.
        -12    1    3    3    0    0  0.30489670488E+02 -0.56198668210E+01 -0.14651230769E+02  0.34290836569E+02  0.00000000000E+00 0.  1.
</event>
<event>
 7    1  0.2153242E-013  0.7246157E+02  0.7816164E-02  0.1226708E+00
        -11   -1    0    0    0    0  0.00000000000E+00  0.00000000000E+00  0.45593999997E+02  0.45594000000E+02  0.51100000000E-03 0. -1.
         11   -1    0    0    0    0 -0.00000000000E+00 -0.00000000000E+00 -0.45593999997E+02  0.45594000000E+02  0.51100000000E-03 0.  1.
    9900012    2    1    2    0    0 -0.16581759308E+02 -0.72432609472E+01  0.48228386651E+01  0.72461565644E+02  0.69999993943E+02 0.  0.
         12    1    1    2    0    0  0.16581759308E+02  0.72432609472E+01 -0.48228386651E+01  0.18726434356E+02  0.00000000000E+00 0. -1.
         11    1    3    3    0    0  0.39381282850E+01  0.47737968540E+01  0.13202036956E+02  0.14580527111E+02  0.51100000000E-03 0. -1.
        -11    1    3    3    0    0  0.16847604797E+02 -0.70632121353E+01  0.29855416789E+01  0.18510651325E+02  0.51100000000E-03 0.  1.
        -12    1    3    3    0    0 -0.37367492390E+02 -0.49538456660E+01 -0.11364739970E+02  0.39370387209E+02  0.00000000000E+00 0.  1.
</event>
<event>
 7    1  0.2153242E-013  0.7246154E+02  0.7816164E-02  0.1226708E+00
        -11   -1    0    0    0    0  0.00000000000E+00  0.00000000000E+00  0.45593999997E+02  0.45594000000E+02  0.51100000000E-03 0. -1.
         11   -1    0    0    0    0 -0.00000000000E+00 -0.00000000000E+00 -0.45593999997E+02  0.45594000000E+02  0.51100000000E-03 0.  1.
    9900012    2    1    2    0    0 -0.80981312490E+01  0.71321251329E+01 -0.15304684127E+02  0.72461540247E+02  0.69999960858E+02 0.  0.
         12    1    1    2    0    0  0.80981312490E+01 -0.71321251329E+01  0.15304684127E+02  0.18726459753E+02  0.00000000000E+00 0. -1.
         11    1    3    3    0    0  0.22329307773E+02  0.91100841176E+01 -0.98167774934E+01  0.26037679214E+02  0.51100000000E-03 0. -1.
        -11    1    3    3    0    0  0.56418785651E+01  0.64967246461E+01  0.14571251996E+01  0.87270521357E+01  0.51100000000E-03 0.  1.
        -12    1    3    3    0    0 -0.36069317587E+02 -0.84746836308E+01 -0.69450318335E+01  0.37696808897E+02  0.00000000000E+00 0.  1.
</event>
<event>
 7    1  0.2153242E-013  0.7246156E+02  0.7816164E-02  0.1226708E+00
        -11   -1    0    0    0    0  0.00000000000E+00  0.00000000000E+00  0.45593999997E+02  0.45594000000E+02  0.51100000000E-03 0.  1.
         11   -1    0    0    0    0 -0.00000000000E+00 -0.00000000000E+00 -0.45593999997E+02  0.45594000000E+02  0.51100000000E-03 0. -1.
    9900012    2    1    2    0    0 -0.88274658948E+01  0.15462497610E+02 -0.58022756276E+01  0.72461564436E+02  0.69999992369E+02 0.  0.
         12    1    1    2    0    0  0.88274658948E+01 -0.15462497610E+02  0.58022756276E+01  0.18726435564E+02  0.00000000000E+00 0. -1.
         11    1    3    3    0    0 -0.13983722626E+02  0.12166152143E+02 -0.12933227885E+02  0.22601507476E+02  0.51100000000E-03 0. -1.
        -11    1    3    3    0    0  0.25875400528E+01  0.22503252178E+02  0.16802072585E+02  0.28202860946E+02  0.51100000000E-03 0.  1.
         12    1    3    3    0    0  0.25687166780E+01 -0.19206906711E+02 -0.96711203282E+01  0.21657196014E+02  0.00000000000E+00 0. -1.
</event>
<event>
 7    1  0.2153242E-013  0.7246154E+02  0.7816164E-02  0.1226708E+00
        -11   -1    0    0    0    0  0.00000000000E+00  0.00000000000E+00  0.45593999997E+02  0.45594000000E+02  0.51100000000E-03 0. -1.
         11   -1    0    0    0    0 -0.00000000000E+00 -0.00000000000E+00 -0.45593999997E+02  0.45594000000E+02  0.51100000000E-03 0.  1.
    9900012    2    1    2    0    0 -0.89050980780E+01  0.14037257254E+02 -0.86217664010E+01  0.72461542277E+02  0.69999963502E+02 0.  0.
         12    1    1    2    0    0  0.89050980780E+01 -0.14037257254E+02  0.86217664010E+01  0.18726457723E+02  0.00000000000E+00 0. -1.
         11    1    3    3    0    0 -0.92695180330E-01 -0.51523453617E+01  0.16285501713E+02  0.17081358887E+02  0.51100000000E-03 0. -1.
        -11    1    3    3    0    0 -0.12499891113E+02 -0.52119199435E+00  0.93956718863E+01  0.15646008097E+02  0.51100000000E-03 0.  1.
        -12    1    3    3    0    0  0.36874882151E+01  0.19710794610E+02 -0.34302940000E+02  0.39734175292E+02  0.00000000000E+00 0.  1.
</event>
<event>
 7    1  0.2153242E-013  0.7246158E+02  0.7816164E-02  0.1226708E+00
        -11   -1    0    0    0    0  0.00000000000E+00  0.00000000000E+00  0.45593999997E+02  0.45594000000E+02  0.51100000000E-03 0.  1.
         11   -1    0    0    0    0 -0.00000000000E+00 -0.00000000000E+00 -0.45593999997E+02  0.45594000000E+02  0.51100000000E-03 0. -1.
    9900012    2    1    2    0    0 -0.12142541656E+02  0.28593838812E+01  0.13966440095E+02  0.72461579013E+02  0.70000011357E+02 0.  0.
         12    1    1    2    0    0  0.12142541656E+02 -0.28593838812E+01 -0.13966440095E+02  0.18726420987E+02  0.00000000000E+00 0. -1.
         11    1    3    3    0    0 -0.19987166005E+01 -0.52787606392E+01  0.10066236207E+02  0.11540766594E+02  0.51100000000E-03 0. -1.
        -11    1    3    3    0    0  0.50020808804E+00 -0.22829963716E+02  0.13836393577E+02  0.26700247918E+02  0.51100000000E-03 0.  1.
        -12    1    3    3    0    0 -0.10644033144E+02  0.30968108236E+02 -0.99361896880E+01  0.34220564502E+02  0.00000000000E+00 0.  1.
</event>
<event>
 7    1  0.2153242E-013  0.7246150E+02  0.7816164E-02  0.1226708E+00
        -11   -1    0    0    0    0  0.00000000000E+00  0.00000000000E+00  0.45593999997E+02  0.45594000000E+02  0.51100000000E-03 0. -1.
         11   -1    0    0    0    0 -0.00000000000E+00 -0.00000000000E+00 -0.45593999997E+02  0.45594000000E+02  0.51100000000E-03 0.  1.
    9900012    2    1    2    0    0  0.18612785397E+02  0.17513311044E+01 -0.10858132523E+01  0.72461496554E+02  0.69999903940E+02 0.  0.
         12    1    1    2    0    0 -0.18612785397E+02 -0.17513311044E+01  0.10858132523E+01  0.18726503446E+02  0.00000000000E+00 0. -1.
         11    1    3    3    0    0  0.27323054099E+01  0.14251865899E+02  0.72517818433E+00  0.14529523671E+02  0.51100000000E-03 0. -1.
        -11    1    3    3    0    0  0.27057785083E+02  0.63948775248E+01 -0.15723283337E+02  0.31941193329E+02  0.51100000000E-03 0.  1.
         12    1    3    3    0    0 -0.11177305095E+02 -0.18895412319E+02  0.13912291900E+02  0.25990779554E+02  0.00000000000E+00 0. -1.
</event>
<event>
 7    1  0.2153242E-013  0.7246151E+02  0.7816164E-02  0.1226708E+00
        -11   -1    0    0    0    0  0.00000000000E+00  0.00000000000E+00  0.45593999997E+02  0.45594000000E+02  0.51100000000E-03 0.  1.
         11   -1    0    0    0    0 -0.00000000000E+00 -0.00000000000E+00 -0.45593999997E+02  0.45594000000E+02  0.51100000000E-03 0. -1.
    9900012    2    1    2    0    0  0.66174527108E+01  0.55441867342E+01  0.16617845069E+02  0.72461509093E+02  0.69999920274E+02 0.  0.
         12    1    1    2    0    0 -0.66174527108E+01 -0.55441867342E+01 -0.16617845069E+02  0.18726490907E+02  0.00000000000E+00 0. -1.
         11    1    3    3    0    0  0.13097453842E+01 -0.74170797254E+01  0.35550130402E+01  0.83286627138E+01  0.51100000000E-03 0. -1.
        -11    1    3    3    0    0  0.26158740825E+01  0.13912367175E+02  0.37212945221E+02  0.39814570824E+02  0.51100000000E-03 0.  1.
         12    1    3    3    0    0  0.26918332441E+01 -0.95110071538E+00 -0.24150113192E+02  0.24318275555E+02  0.00000000000E+00 0. -1.
</event>
<event>
 7    1  0.2153242E-013  0.7246165E+02  0.7816164E-02  0.1226708E+00
        -11   -1    0    0    0    0  0.00000000000E+00  0.00000000000E+00  0.45593999997E+02  0.45594000000E+02  0.51100000000E-03 0. -1.
         11   -1    0    0    0    0 -0.00000000000E+00 -0.00000000000E+00 -0.45593999997E+02  0.45594000000E+02  0.51100000000E-03 0.  1.
    9900012    2    1    2    0    0 -0.10452009093E+02  0.46807480146E+01 -0.14816280167E+02  0.72461653479E+02  0.70000108363E+02 0.  0.
         12    1    1    2    0    0  0.10452009093E+02 -0.46807480146E+01  0.14816280167E+02  0.18726346521E+02  0.00000000000E+00 0. -1.
         11    1    3    3    0    0 -0.90523216046E+00  0.60336434757E+00 -0.12926877638E+02  0.12972573358E+02  0.51100000000E-03 0. -1.
        -11    1    3    3    0    0 -0.15637539741E+02  0.32775228166E+01 -0.28232106417E+02  0.32439584430E+02  0.51100000000E-03 0.  1.
         12    1    3    3    0    0  0.60907628086E+01  0.79986085042E+00  0.26342703889E+02  0.27049495691E+02  0.00000000000E+00 0. -1.
</event>
<event>
 7    1  0.2153242E-013  0.7246157E+02  0.7816164E-02  0.1226708E+00
        -11   -1    0    0    0    0  0.00000000000E+00  0.00000000000E+00  0.45593999997E+02  0.45594000000E+02  0.51100000000E-03 0. -1.
         11   -1    0    0    0    0 -0.00000000000E+00 -0.00000000000E+00 -0.45593999997E+02  0.45594000000E+02  0.51100000000E-03 0.  1.
    9900012    2    1    2    0    0  0.62528281451E+01  0.83607480359E+01 -0.15546033591E+02  0.72461571405E+02  0.70000001447E+02 0.  0.
         12    1    1    2    0    0 -0.62528281451E+01 -0.83607480359E+01  0.15546033591E+02  0.18726428595E+02  0.00000000000E+00 0. -1.
         11    1    3    3    0    0  0.17615328335E+02 -0.70802871944E+01  0.59246252476E+01  0.19887972337E+02  0.51100000000E-03 0. -1.
        -11    1    3    3    0    0 -0.46410977226E+01 -0.15036046056E+02 -0.12511318041E+02  0.20103620282E+02  0.51100000000E-03 0.  1.
         12    1    3    3    0    0 -0.67214024669E+01  0.30477081286E+02 -0.89593407974E+01  0.32469978786E+02  0.00000000000E+00 0. -1.
</event>
<event>
 7    1  0.2153242E-013  0.7246159E+02  0.7816164E-02  0.1226708E+00
        -11   -1    0    0    0    0  0.00000000000E+00  0.00000000000E+00  0.45593999997E+02  0.45594000000E+02  0.51100000000E-03 0. -1.
         11   -1    0    0    0    0 -0.00000000000E+00 -0.00000000000E+00 -0.45593999997E+02  0.45594000000E+02  0.51100000000E-03 0.  1.
    9900012    2    1    2    0    0 -0.12466781961E+02  0.12472848308E+02 -0.62996809295E+01  0.72461586109E+02  0.70000020602E+02 0.  0.
         12    1    1    2    0    0  0.12466781961E+02 -0.12472848308E+02  0.62996809295E+01  0.18726413891E+02  0.00000000000E+00 0. -1.
         11    1    3    3    0    0 -0.45698698907E+01 -0.21581677835E+02 -0.10117833430E+02  0.24269797744E+02  0.51100000000E-03 0. -1.
        -11    1    3    3    0    0  0.92762481889E+01  0.28513530703E+02  0.18873634639E+01  0.30043840545E+02  0.51100000000E-03 0.  1.
         12    1    3    3    0    0 -0.17173160260E+02  0.55409954398E+01  0.19307890365E+01  0.18147947820E+02  0.00000000000E+00 0. -1.
</event>
<event>
 7    1  0.2153242E-013  0.7246157E+02  0.7816164E-02  0.1226708E+00
        -11   -1    0    0    0    0  0.00000000000E+00  0.00000000000E+00  0.45593999997E+02  0.45594000000E+02  0.51100000000E-03 0.  1.
         11   -1    0    0    0    0 -0.00000000000E+00 -0.00000000000E+00 -0.45593999997E+02  0.45594000000E+02  0.51100000000E-03 0. -1.
    9900012    2    1    2    0    0  0.63557477882E+01  0.15589310745E+02  0.82010392143E+01  0.72461569917E+02  0.69999999508E+02 0.  0.
         12    1    1    2    0    0 -0.63557477882E+01 -0.15589310745E+02 -0.82010392143E+01  0.18726430083E+02  0.00000000000E+00 0. -1.
         11    1    3    3    0    0  0.74507117035E+01 -0.68130801522E+01 -0.15425846735E+02  0.18436049301E+02  0.51100000000E-03 0. -1.
        -11    1    3    3    0    0  0.69366667220E+01 -0.11623815674E+02  0.51570747260E+01  0.14485366962E+02  0.51100000000E-03 0.  1.
        -12    1    3    3    0    0 -0.80316306373E+01  0.34026206572E+02  0.18469811224E+02  0.39540153654E+02  0.00000000000E+00 0.  1.
</event>
<event>
 7    1  0.2153242E-013  0.7246159E+02  0.7816164E-02  0.1226708E+00
        -11   -1    0    0    0    0  0.00000000000E+00  0.00000000000E+00  0.45593999997E+02  0.45594000000E+02  0.51100000000E-03 0. -1.
         11   -1    0    0    0    0 -0.00000000000E+00 -0.00000000000E+00 -0.45593999997E+02  0.45594000000E+02  0.51100000000E-03 0.  1.
    9900012    2    1    2    0    0 -0.72795599594E+01 -0.17144024900E+02  0.19413795474E+01  0.72461587169E+02  0.70000021982E+02 0.  0.
         12    1    1    2    0    0  0.72795599594E+01  0.17144024900E+02 -0.19413795474E+01  0.18726412831E+02  0.00000000000E+00 0. -1.
         11    1    3    3    0    0  0.16884331565E+01  0.87351492052E+01 -0.39139630985E+01  0.97197091293E+01  0.51100000000E-03 0. -1.
        -11    1    3    3    0    0 -0.50178032359E+01  0.16170791557E+02 -0.73966408550E+01  0.18476556635E+02  0.51100000000E-03 0.  1.
         12    1    3    3    0    0 -0.39501898800E+01 -0.42049965662E+02  0.13251983501E+02  0.44265321404E+02  0.00000000000E+00 0. -1.
</event>
<event>
 7    1  0.2153242E-013  0.7246161E+02  0.7816164E-02  0.1226708E+00
        -11   -1    0    0    0    0  0.00000000000E+00  0.00000000000E+00  0.45593999997E+02  0.45594000000E+02  0.51100000000E-03 0.  1.
         11   -1    0    0    0    0 -0.00000000000E+00 -0.00000000000E+00 -0.45593999997E+02  0.45594000000E+02  0.51100000000E-03 0. -1.
    9900012    2    1    2    0    0 -0.15217327115E+02  0.10864563532E+02 -0.10353805835E+01  0.72461606908E+02  0.70000047697E+02 0.  0.
         12    1    1    2    0    0  0.15217327115E+02 -0.10864563532E+02  0.10353805835E+01  0.18726393092E+02  0.00000000000E+00 0. -1.
         11    1    3    3    0    0 -0.17325154475E+02  0.92917799037E+01  0.16293195706E+02  0.25533632290E+02  0.51100000000E-03 0. -1.
        -11    1    3    3    0    0 -0.17031131086E+02 -0.43183863489E+01  0.36294144999E+01  0.17941029418E+02  0.51100000000E-03 0.  1.
         12    1    3    3    0    0  0.19138958445E+02  0.58911699774E+01 -0.20957990790E+02  0.28986945200E+02  0.00000000000E+00 0. -1.
</event>
<event>
 7    1  0.2153242E-013  0.7246160E+02  0.7816164E-02  0.1226708E+00
        -11   -1    0    0    0    0  0.00000000000E+00  0.00000000000E+00  0.45593999997E+02  0.45594000000E+02  0.51100000000E-03 0.  1.
         11   -1    0    0    0    0 -0.00000000000E+00 -0.00000000000E+00 -0.45593999997E+02  0.45594000000E+02  0.51100000000E-03 0. -1.
    9900012    2    1    2    0    0  0.18477334268E+02  0.19589414936E+01 -0.23299999299E+01  0.72461595297E+02  0.70000032570E+02 0.  0.
         12    1    1    2    0    0 -0.18477334268E+02 -0.19589414936E+01  0.23299999299E+01  0.18726404703E+02  0.00000000000E+00 0. -1.
         11    1    3    3    0    0  0.31333142179E+02  0.35212098817E+01 -0.13326811480E+02  0.34231106063E+02  0.51100000000E-03 0. -1.
        -11    1    3    3    0    0 -0.14150898009E+01  0.13682766609E+02 -0.36044130228E+01  0.14220139758E+02  0.51100000000E-03 0.  1.
        -12    1    3    3    0    0 -0.11440718110E+02 -0.15245034997E+02  0.14601224573E+02  0.24010349476E+02  0.00000000000E+00 0.  1.
</event>
<event>
 7    1  0.2153242E-013  0.7246153E+02  0.7816164E-02  0.1226708E+00
        -11   -1    0    0    0    0  0.00000000000E+00  0.00000000000E+00  0.45593999997E+02  0.45594000000E+02  0.51100000000E-03 0. -1.
         11   -1    0    0    0    0 -0.00000000000E+00 -0.00000000000E+00 -0.45593999997E+02  0.45594000000E+02  0.51100000000E-03 0.  1.
    9900012    2    1    2    0    0 -0.20554978694E+01 -0.14544793937E+02 -0.11614847771E+02  0.72461527003E+02  0.69999943605E+02 0.  0.
         12    1    1    2    0    0  0.20554978694E+01  0.14544793937E+02  0.11614847771E+02  0.18726472997E+02  0.00000000000E+00 0. -1.
         11    1    3    3    0    0 -0.64557398372E+01 -0.10811300667E+02 -0.97734416336E+01  0.15939917207E+02  0.51100000000E-03 0. -1.
        -11    1    3    3    0    0 -0.24729183775E+02 -0.10035694983E+02 -0.78404321626E+00  0.26699483666E+02  0.51100000000E-03 0.  1.
         12    1    3    3    0    0  0.29129425743E+02  0.63022017128E+01 -0.10573629212E+01  0.29822126130E+02  0.00000000000E+00 0. -1.
</event>
<event>
 7    1  0.2153242E-013  0.7246159E+02  0.7816164E-02  0.1226708E+00
        -11   -1    0    0    0    0  0.00000000000E+00  0.00000000000E+00  0.45593999997E+02  0.45594000000E+02  0.51100000000E-03 0. -1.
         11   -1    0    0    0    0 -0.00000000000E+00 -0.00000000000E+00 -0.45593999997E+02  0.45594000000E+02  0.51100000000E-03 0.  1.
    9900012    2    1    2    0    0 -0.31834583532E+01 -0.14652924808E+02 -0.11217648274E+02  0.72461594971E+02  0.70000032146E+02 0.  0.
         12    1    1    2    0    0  0.31834583532E+01  0.14652924808E+02  0.11217648274E+02  0.18726405029E+02  0.00000000000E+00 0. -1.
         11    1    3    3    0    0 -0.37167630602E+01  0.18757169925E+02  0.21401497100E+00  0.19123063403E+02  0.51100000000E-03 0. -1.
        -11    1    3    3    0    0  0.12139847205E+02  0.39681422682E+01 -0.87924203279E+00  0.12802152555E+02  0.51100000000E-03 0.  1.
        -12    1    3    3    0    0 -0.11606542498E+02 -0.37378237001E+02 -0.10552421212E+02  0.40536379013E+02  0.00000000000E+00 0.  1.
</event>
<event>
 7    1  0.2153242E-013  0.7246157E+02  0.7816164E-02  0.1226708E+00
        -11   -1    0    0    0    0  0.00000000000E+00  0.00000000000E+00  0.45593999997E+02  0.45594000000E+02  0.51100000000E-03 0.  1.
         11   -1    0    0    0    0 -0.00000000000E+00 -0.00000000000E+00 -0.45593999997E+02  0.45594000000E+02  0.51100000000E-03 0. -1.
    9900012    2    1    2    0    0  0.21195480841E+01 -0.15630187317E+02  0.10093749375E+02  0.72461574391E+02  0.70000005336E+02 0.  0.
         12    1    1    2    0    0 -0.21195480841E+01  0.15630187317E+02 -0.10093749375E+02  0.18726425609E+02  0.00000000000E+00 0. -1.
         11    1    3    3    0    0  0.16821365989E+02 -0.22492472794E+02 -0.17984920096E+02  0.33351567238E+02  0.51100000000E-03 0. -1.
        -11    1    3    3    0    0  0.36152711613E+01 -0.75832465146E+00 -0.10742361442E+01  0.38469761373E+01  0.51100000000E-03 0.  1.
        -12    1    3    3    0    0 -0.18317089066E+02  0.76206101281E+01  0.29152905615E+02  0.35263031015E+02  0.00000000000E+00 0.  1.
</event>
<event>
 7    1  0.2153242E-013  0.7246162E+02  0.7816164E-02  0.1226708E+00
        -11   -1    0    0    0    0  0.00000000000E+00  0.00000000000E+00  0.45593999997E+02  0.45594000000E+02  0.51100000000E-03 0.  1.
         11   -1    0    0    0    0 -0.00000000000E+00 -0.00000000000E+00 -0.45593999997E+02  0.45594000000E+02  0.51100000000E-03 0. -1.
    9900012    2    1    2    0    0 -0.18406166154E+02  0.13252995833E+01 -0.31833780960E+01  0.72461621077E+02  0.70000066154E+02 0.  0.
         12    1    1    2    0    0  0.18406166154E+02 -0.13252995833E+01  0.31833780960E+01  0.18726378923E+02  0.00000000000E+00 0. -1.
         11    1    3    3    0    0  0.15450792724E+02  0.55992693545E+01 -0.13927765629E+02  0.21542085990E+02  0.51100000000E-03 0. -1.
        -11    1    3    3    0    0  0.37044449627E+01  0.40103746240E+01 -0.67351765092E+01  0.86699838511E+01  0.51100000000E-03 0.  1.
        -12    1    3    3    0    0 -0.37561403841E+02 -0.82843443952E+01  0.17479564043E+02  0.42249551236E+02  0.00000000000E+00 0.  1.
</event>
<event>
 7    1  0.2153242E-013  0.7246147E+02  0.7816164E-02  0.1226708E+00
        -11   -1    0    0    0    0  0.00000000000E+00  0.00000000000E+00  0.45593999997E+02  0.45594000000E+02  0.51100000000E-03 0.  1.
         11   -1    0    0    0    0 -0.00000000000E+00 -0.00000000000E+00 -0.45593999997E+02  0.45594000000E+02  0.51100000000E-03 0. -1.
    9900012    2    1    2    0    0  0.12805854121E+02  0.10071586802E+02  0.92334193667E+01  0.72461473529E+02  0.69999873945E+02 0.  0.
         12    1    1    2    0    0 -0.12805854121E+02 -0.10071586802E+02 -0.92334193667E+01  0.18726526471E+02  0.00000000000E+00 0. -1.
         11    1    3    3    0    0  0.27499195832E+01  0.23611667737E+02  0.20095795146E+02  0.31127381738E+02  0.51100000000E-03 0. -1.
        -11    1    3    3    0    0 -0.99743636576E+01 -0.16200421050E+02 -0.89882995955E+01  0.21041176356E+02  0.51100000000E-03 0.  1.
        -12    1    3    3    0    0  0.20030298195E+02  0.26603401145E+01 -0.18740761842E+01  0.20292915435E+02  0.00000000000E+00 0.  1.
</event>
<event>
 7    1  0.2153242E-013  0.7246157E+02  0.7816164E-02  0.1226708E+00
        -11   -1    0    0    0    0  0.00000000000E+00  0.00000000000E+00  0.45593999997E+02  0.45594000000E+02  0.51100000000E-03 0.  1.
         11   -1    0    0    0    0 -0.00000000000E+00 -0.00000000000E+00 -0.45593999997E+02  0.45594000000E+02  0.51100000000E-03 0. -1.
    9900012    2    1    2    0    0  0.49899075291E+01  0.10159681058E+02  0.14918475481E+02  0.72461569293E+02  0.69999998696E+02 0.  0.
         12    1    1    2    0    0 -0.49899075291E+01 -0.10159681058E+02 -0.14918475481E+02  0.18726430707E+02  0.00000000000E+00 0. -1.
         11    1    3    3    0    0 -0.13017110619E+02 -0.16831966824E+02  0.11296461908E+02  0.24090876446E+02  0.51100000000E-03 0. -1.
        -11    1    3    3    0    0  0.45273938855E+00 -0.77275278539E+01 -0.40202663441E+01  0.87225111881E+01  0.51100000000E-03 0.  1.
        -12    1    3    3    0    0  0.17554278759E+02  0.34719175736E+02  0.76422799168E+01  0.39648181659E+02  0.00000000000E+00 0.  1.
</event>
<event>
 7    1  0.2153242E-013  0.7246156E+02  0.7816164E-02  0.1226708E+00
        -11   -1    0    0    0    0  0.00000000000E+00  0.00000000000E+00  0.45593999997E+02  0.45594000000E+02  0.51100000000E-03 0.  1.
         11   -1    0    0    0    0 -0.00000000000E+00 -0.00000000000E+00 -0.45593999997E+02  0.45594000000E+02  0.51100000000E-03 0. -1.
    9900012    2    1    2    0    0 -0.85824553421E+01 -0.35559928159E+01  0.16259642597E+02  0.72461558748E+02  0.69999984958E+02 0.  0.
         12    1    1    2    0    0  0.85824553421E+01  0.35559928159E+01 -0.16259642597E+02  0.18726441252E+02  0.00000000000E+00 0. -1.
         11    1    3    3    0    0  0.19234054811E+01 -0.14036065974E+02 -0.28067931937E+01  0.14442601046E+02  0.51100000000E-03 0. -1.
        -11    1    3    3    0    0  0.19106268932E+02  0.13874275687E+02  0.20589185083E+01  0.23701986921E+02  0.51100000000E-03 0.  1.
        -12    1    3    3    0    0 -0.29612129755E+02 -0.33942025286E+01  0.17007517282E+02  0.34316970781E+02  0.00000000000E+00 0.  1.
</event>
<event>
 7    1  0.2153242E-013  0.7246160E+02  0.7816164E-02  0.1226708E+00
        -11   -1    0    0    0    0  0.00000000000E+00  0.00000000000E+00  0.45593999997E+02  0.45594000000E+02  0.51100000000E-03 0.  1.
         11   -1    0    0    0    0 -0.00000000000E+00 -0.00000000000E+00 -0.45593999997E+02  0.45594000000E+02  0.51100000000E-03 0. -1.
    9900012    2    1    2    0    0  0.31764573910E+01  0.10089985279E+02  0.15452516756E+02  0.72461602627E+02  0.70000042119E+02 0.  0.
         12    1    1    2    0    0 -0.31764573910E+01 -0.10089985279E+02 -0.15452516756E+02  0.18726397373E+02  0.00000000000E+00 0. -1.
         11    1    3    3    0    0  0.16721994808E+02  0.28878721687E+01  0.11742473180E+02  0.20636147719E+02  0.51100000000E-03 0. -1.
        -11    1    3    3    0    0  0.12906210301E+02 -0.59706679566E+01  0.14554395289E+02  0.20348207849E+02  0.51100000000E-03 0.  1.
         12    1    3    3    0    0 -0.26451747718E+02  0.13172781067E+02 -0.10844351712E+02  0.31477247059E+02  0.00000000000E+00 0. -1.
</event>
<event>
 7    1  0.2153242E-013  0.7246156E+02  0.7816164E-02  0.1226708E+00
        -11   -1    0    0    0    0  0.00000000000E+00  0.00000000000E+00  0.45593999997E+02  0.45594000000E+02  0.51100000000E-03 0.  1.
         11   -1    0    0    0    0 -0.00000000000E+00 -0.00000000000E+00 -0.45593999997E+02  0.45594000000E+02  0.51100000000E-03 0. -1.
    9900012    2    1    2    0    0 -0.40320225984E+01  0.37123638362E+01  0.17906444549E+02  0.72461558590E+02  0.69999984753E+02 0.  0.
         12    1    1    2    0    0  0.40320225984E+01 -0.37123638362E+01 -0.17906444549E+02  0.18726441410E+02  0.00000000000E+00 0. -1.
         11    1    3    3    0    0 -0.26721699101E+02  0.15276327010E+01 -0.11255641605E+02  0.29035707890E+02  0.51100000000E-03 0. -1.
        -11    1    3    3    0    0  0.44681152799E+01  0.65298211376E+01  0.21985223145E+02  0.23365629785E+02  0.51100000000E-03 0.  1.
        -12    1    3    3    0    0  0.18221561222E+02 -0.43450900024E+01  0.71768630086E+01  0.20060220915E+02  0.00000000000E+00 0.  1.
</event>
<event>
 7    1  0.2153242E-013  0.7246157E+02  0.7816164E-02  0.1226708E+00
        -11   -1    0    0    0    0  0.00000000000E+00  0.00000000000E+00  0.45593999997E+02  0.45594000000E+02  0.51100000000E-03 0.  1.
         11   -1    0    0    0    0 -0.00000000000E+00 -0.00000000000E+00 -0.45593999997E+02  0.45594000000E+02  0.51100000000E-03 0. -1.
    9900012    2    1    2    0    0 -0.11895364439E+02  0.49904275048E+01 -0.13574801524E+02  0.72461566857E+02  0.69999995523E+02 0.  0.
         12    1    1    2    0    0  0.11895364439E+02 -0.49904275048E+01  0.13574801524E+02  0.18726433143E+02  0.00000000000E+00 0. -1.
         11    1    3    3    0    0  0.32469496430E+01 -0.21470932359E+02 -0.21139627944E+02  0.30305568601E+02  0.51100000000E-03 0. -1.
        -11    1    3    3    0    0 -0.19243596330E+02  0.55260938907E+01  0.52455259506E+01  0.20697083276E+02  0.51100000000E-03 0.  1.
        -12    1    3    3    0    0  0.41012822475E+01  0.20935265973E+02  0.23193004693E+01  0.21458914980E+02  0.00000000000E+00 0.  1.
</event>
<event>
 7    1  0.2153242E-013  0.7246156E+02  0.7816164E-02  0.1226708E+00
        -11   -1    0    0    0    0  0.00000000000E+00  0.00000000000E+00  0.45593999997E+02  0.45594000000E+02  0.51100000000E-03 0.  1.
         11   -1    0    0    0    0 -0.00000000000E+00 -0.00000000000E+00 -0.45593999997E+02  0.45594000000E+02  0.51100000000E-03 0. -1.
    9900012    2    1    2    0    0  0.24808117970E+01 -0.18480392357E+02  0.17321268480E+01  0.72461559007E+02  0.69999985297E+02 0.  0.
         12    1    1    2    0    0 -0.24808117970E+01  0.18480392357E+02 -0.17321268480E+01  0.18726440993E+02  0.00000000000E+00 0. -1.
         11    1    3    3    0    0  0.13104093537E+02  0.12640190531E+02  0.19912678746E+02  0.26981594823E+02  0.51100000000E-03 0. -1.
        -11    1    3    3    0    0 -0.48652329067E+01  0.12517402103E+01 -0.10610036563E+02  0.11739259811E+02  0.51100000000E-03 0.  1.
        -12    1    3    3    0    0 -0.57580488337E+01 -0.32372323098E+02 -0.75705153356E+01  0.33740704373E+02  0.00000000000E+00 0.  1.
</event>
<event>
 7    1  0.2153242E-013  0.7246178E+02  0.7816164E-02  0.1226707E+00
        -11   -1    0    0    0    0  0.00000000000E+00  0.00000000000E+00  0.45593999997E+02  0.45594000000E+02  0.51100000000E-03 0. -1.
         11   -1    0    0    0    0 -0.00000000000E+00 -0.00000000000E+00 -0.45593999997E+02  0.45594000000E+02  0.51100000000E-03 0.  1.
    9900012    2    1    2    0    0 -0.69445944217E+01 -0.15335126440E+02 -0.82023101620E+01  0.72461778101E+02  0.70000270707E+02 0.  0.
         12    1    1    2    0    0  0.69445944217E+01  0.15335126440E+02  0.82023101620E+01  0.18726221899E+02  0.00000000000E+00 0. -1.
         11    1    3    3    0    0 -0.10791934200E+02 -0.29467501483E+01  0.27069503357E+01  0.11509854933E+02  0.51100000000E-03 0. -1.
        -11    1    3    3    0    0 -0.27230392368E+02 -0.82223992730E+01 -0.74625477837E+01  0.29407341567E+02  0.51100000000E-03 0.  1.
        -12    1    3    3    0    0  0.31077732146E+02 -0.41659770185E+01 -0.34467127140E+01  0.31544581601E+02  0.00000000000E+00 0.  1.
</event>
<event>
 7    1  0.2153242E-013  0.7246166E+02  0.7816164E-02  0.1226708E+00
        -11   -1    0    0    0    0  0.00000000000E+00  0.00000000000E+00  0.45593999997E+02  0.45594000000E+02  0.51100000000E-03 0.  1.
         11   -1    0    0    0    0 -0.00000000000E+00 -0.00000000000E+00 -0.45593999997E+02  0.45594000000E+02  0.51100000000E-03 0. -1.
    9900012    2    1    2    0    0  0.69419209578E+01  0.17100611698E+02 -0.31709010361E+01  0.72461660251E+02  0.70000117185E+02 0.  0.
         12    1    1    2    0    0 -0.69419209578E+01 -0.17100611698E+02  0.31709010361E+01  0.18726339749E+02  0.00000000000E+00 0. -1.
         11    1    3    3    0    0  0.63340193534E+01 -0.94484244737E+01  0.46143449260E+01  0.12275369875E+02  0.51100000000E-03 0.  1.
        -11    1    3    3    0    0  0.14546776982E+01 -0.11723082592E+02 -0.17104045455E+02  0.20786897889E+02  0.51100000000E-03 0. -1.
        -12    1    3    3    0    0 -0.84677609391E+00  0.38272118763E+02  0.93187994925E+01  0.39399392487E+02  0.00000000000E+00 0.  1.
</event>
<event>
 7    1  0.2153242E-013  0.7246163E+02  0.7816164E-02  0.1226708E+00
        -11   -1    0    0    0    0  0.00000000000E+00  0.00000000000E+00  0.45593999997E+02  0.45594000000E+02  0.51100000000E-03 0. -1.
         11   -1    0    0    0    0 -0.00000000000E+00 -0.00000000000E+00 -0.45593999997E+02  0.45594000000E+02  0.51100000000E-03 0.  1.
    9900012    2    1    2    0    0  0.16374899971E+02  0.39270387792E+01  0.81925619442E+01  0.72461626783E+02  0.70000073588E+02 0.  0.
         12    1    1    2    0    0 -0.16374899971E+02 -0.39270387792E+01 -0.81925619442E+01  0.18726373217E+02  0.00000000000E+00 0. -1.
         11    1    3    3    0    0  0.79594832080E+00  0.19297242903E+02  0.10851609175E+02  0.22153431773E+02  0.51100000000E-03 0. -1.
        -11    1    3    3    0    0  0.28190418772E+02 -0.91288058845E+01  0.10107901821E+02  0.31308217562E+02  0.51100000000E-03 0.  1.
        -12    1    3    3    0    0 -0.12611467121E+02 -0.62413982395E+01 -0.12766949052E+02  0.18999977448E+02  0.00000000000E+00 0.  1.
</event>
<event>
 7    1  0.2153242E-013  0.7246157E+02  0.7816164E-02  0.1226708E+00
        -11   -1    0    0    0    0  0.00000000000E+00  0.00000000000E+00  0.45593999997E+02  0.45594000000E+02  0.51100000000E-03 0. -1.
         11   -1    0    0    0    0 -0.00000000000E+00 -0.00000000000E+00 -0.45593999997E+02  0.45594000000E+02  0.51100000000E-03 0.  1.
    9900012    2    1    2    0    0 -0.15601830854E+02  0.72084947349E+01 -0.74363779773E+01  0.72461568419E+02  0.69999997557E+02 0.  0.
         12    1    1    2    0    0  0.15601830854E+02 -0.72084947349E+01  0.74363779773E+01  0.18726431581E+02  0.00000000000E+00 0. -1.
         11    1    3    3    0    0 -0.87156294466E+01 -0.55961856107E+01  0.98755475634E+01  0.14311042239E+02  0.51100000000E-03 0. -1.
        -11    1    3    3    0    0 -0.19571524204E+02  0.23119586874E+01 -0.31004531514E+02  0.36737864491E+02  0.51100000000E-03 0.  1.
         12    1    3    3    0    0  0.12685322797E+02  0.10492721658E+02  0.13692605974E+02  0.21412661689E+02  0.00000000000E+00 0. -1.
</event>
<event>
 7    1  0.2153242E-013  0.7246124E+02  0.7816164E-02  0.1226709E+00
        -11   -1    0    0    0    0  0.00000000000E+00  0.00000000000E+00  0.45593999997E+02  0.45594000000E+02  0.51100000000E-03 0. -1.
         11   -1    0    0    0    0 -0.00000000000E+00 -0.00000000000E+00 -0.45593999997E+02  0.45594000000E+02  0.51100000000E-03 0.  1.
    9900012    2    1    2    0    0 -0.53349315845E+01 -0.17296868761E+02  0.48008534858E+01  0.72461244858E+02  0.69999576058E+02 0.  0.
         12    1    1    2    0    0  0.53349315845E+01  0.17296868761E+02 -0.48008534858E+01  0.18726755142E+02  0.00000000000E+00 0. -1.
         11    1    3    3    0    0  0.12394187822E+02  0.95013598277E+01  0.12575091879E+02  0.20050552770E+02  0.51100000000E-03 0. -1.
        -11    1    3    3    0    0 -0.44384147230E+01 -0.84490215678E+01  0.16590299062E+02  0.19139579774E+02  0.51100000000E-03 0.  1.
        -12    1    3    3    0    0 -0.13290704684E+02 -0.18349207021E+02 -0.24364537454E+02  0.33271112315E+02  0.00000000000E+00 0.  1.
</event>
<event>
 7    1  0.2153242E-013  0.7246147E+02  0.7816164E-02  0.1226708E+00
        -11   -1    0    0    0    0  0.00000000000E+00  0.00000000000E+00  0.45593999997E+02  0.45594000000E+02  0.51100000000E-03 0.  1.
         11   -1    0    0    0    0 -0.00000000000E+00 -0.00000000000E+00 -0.45593999997E+02  0.45594000000E+02  0.51100000000E-03 0. -1.
    9900012    2    1    2    0    0  0.96086829912E+01  0.57080957167E+01  0.15025771473E+02  0.72461469251E+02  0.69999868372E+02 0.  0.
         12    1    1    2    0    0 -0.96086829912E+01 -0.57080957167E+01 -0.15025771473E+02  0.18726530749E+02  0.00000000000E+00 0. -1.
         11    1    3    3    0    0  0.51275251395E+01  0.11329021082E+02 -0.12154138425E+02  0.17388539727E+02  0.51100000000E-03 0. -1.
        -11    1    3    3    0    0  0.21591889704E+02 -0.11290248503E+02  0.24748029091E+01  0.24490897533E+02  0.51100000000E-03 0.  1.
        -12    1    3    3    0    0 -0.17110731853E+02  0.56693231380E+01  0.24705106989E+02  0.30582031991E+02  0.00000000000E+00 0.  1.
</event>
<event>
 7    1  0.2153242E-013  0.7246162E+02  0.7816164E-02  0.1226708E+00
        -11   -1    0    0    0    0  0.00000000000E+00  0.00000000000E+00  0.45593999997E+02  0.45594000000E+02  0.51100000000E-03 0. -1.
         11   -1    0    0    0    0 -0.00000000000E+00 -0.00000000000E+00 -0.45593999997E+02  0.45594000000E+02  0.51100000000E-03 0.  1.
    9900012    2    1    2    0    0 -0.27002794398E+01  0.18428448166E+02  0.19437032146E+01  0.72461623067E+02  0.70000068746E+02 0.  0.
         12    1    1    2    0    0  0.27002794398E+01 -0.18428448166E+02 -0.19437032146E+01  0.18726376933E+02  0.00000000000E+00 0. -1.
         11    1    3    3    0    0 -0.13221577634E+02  0.16151085513E+02 -0.21442924124E+02  0.29924349176E+02  0.51100000000E-03 0. -1.
        -11    1    3    3    0    0  0.17006592287E+02  0.12707258552E+01 -0.11938425253E+01  0.17095735891E+02  0.51100000000E-03 0.  1.
        -12    1    3    3    0    0 -0.64852940925E+01  0.10066367984E+01  0.24580469863E+02  0.25441538000E+02  0.00000000000E+00 0.  1.
</event>
<event>
 7    1  0.2153242E-013  0.7246194E+02  0.7816164E-02  0.1226707E+00
        -11   -1    0    0    0    0  0.00000000000E+00  0.00000000000E+00  0.45593999997E+02  0.45594000000E+02  0.51100000000E-03 0. -1.
         11   -1    0    0    0    0 -0.00000000000E+00 -0.00000000000E+00 -0.45593999997E+02  0.45594000000E+02  0.51100000000E-03 0.  1.
    9900012    2    1    2    0    0  0.28032213071E+01  0.86664081648E+01 -0.16361559769E+02  0.72461940130E+02  0.70000481778E+02 0.  0.
         12    1    1    2    0    0 -0.28032213071E+01 -0.86664081648E+01  0.16361559769E+02  0.18726059870E+02  0.00000000000E+00 0. -1.
         11    1    3    3    0    0  0.29961842510E+01 -0.76972682421E+01  0.63704610130E+01  0.10431099282E+02  0.51100000000E-03 0. -1.
        -11    1    3    3    0    0 -0.30062894249E+01 -0.16506459882E+02 -0.23686488962E+02  0.29026724816E+02  0.51100000000E-03 0.  1.
         12    1    3    3    0    0  0.28133264809E+01  0.32870136289E+02  0.95446817977E+00  0.33004116032E+02  0.00000000000E+00 0. -1.
</event>
<event>
 7    1  0.2153242E-013  0.7246159E+02  0.7816164E-02  0.1226708E+00
        -11   -1    0    0    0    0  0.00000000000E+00  0.00000000000E+00  0.45593999997E+02  0.45594000000E+02  0.51100000000E-03 0.  1.
         11   -1    0    0    0    0 -0.00000000000E+00 -0.00000000000E+00 -0.45593999997E+02  0.45594000000E+02  0.51100000000E-03 0. -1.
    9900012    2    1    2    0    0 -0.37154385489E-01 -0.12261335957E+02  0.14154039593E+02  0.72461586123E+02  0.70000020620E+02 0.  0.
         12    1    1    2    0    0  0.37154385489E-01  0.12261335957E+02 -0.14154039593E+02  0.18726413877E+02  0.00000000000E+00 0. -1.
         11    1    3    3    0    0 -0.96179860892E+01  0.23699957365E+02  0.39113671531E+01  0.25874551760E+02  0.51100000000E-03 0. -1.
        -11    1    3    3    0    0 -0.20956691024E+01  0.14999068859E+01 -0.40717670756E+01  0.48188003728E+01  0.51100000000E-03 0.  1.
        -12    1    3    3    0    0  0.11676500806E+02 -0.37461200208E+02  0.14314439515E+02  0.41768233991E+02  0.00000000000E+00 0.  1.
</event>
<event>
 7    1  0.2153242E-013  0.7246155E+02  0.7816164E-02  0.1226708E+00
        -11   -1    0    0    0    0  0.00000000000E+00  0.00000000000E+00  0.45593999997E+02  0.45594000000E+02  0.51100000000E-03 0. -1.
         11   -1    0    0    0    0 -0.00000000000E+00 -0.00000000000E+00 -0.45593999997E+02  0.45594000000E+02  0.51100000000E-03 0.  1.
    9900012    2    1    2    0    0 -0.16213280900E+02 -0.82523511705E+01  0.44393738386E+01  0.72461552994E+02  0.69999977463E+02 0.  0.
         12    1    1    2    0    0  0.16213280900E+02  0.82523511705E+01 -0.44393738386E+01  0.18726447006E+02  0.00000000000E+00 0. -1.
         11    1    3    3    0    0  0.22056730444E+02 -0.13226874860E+02  0.14416152522E+02  0.29483470457E+02  0.51100000000E-03 0. -1.
        -11    1    3    3    0    0  0.11052496647E+01 -0.14111604079E+01 -0.11306554682E+01  0.21192764253E+01  0.51100000000E-03 0.  1.
        -12    1    3    3    0    0 -0.39375261009E+02  0.63856840972E+01 -0.88461232152E+01  0.40858806111E+02  0.00000000000E+00 0.  1.
</event>
<event>
 7    1  0.2521942E-013  0.7246157E+02  0.7816164E-02  0.1226708E+00
        -11   -1    0    0    0    0  0.00000000000E+00  0.00000000000E+00  0.45593999997E+02  0.45594000000E+02  0.51100000000E-03 0. -1.
         11   -1    0    0    0    0 -0.00000000000E+00 -0.00000000000E+00 -0.45593999997E+02  0.45594000000E+02  0.51100000000E-03 0.  1.
    9900012    2    1    2    0    0 -0.14114680724E+02  0.26032472913E+01 -0.12028227385E+02  0.72461565143E+02  0.69999993290E+02 0.  0.
         12    1    1    2    0    0  0.14114680724E+02 -0.26032472913E+01  0.12028227385E+02  0.18726434857E+02  0.00000000000E+00 0. -1.
         11    1    3    3    0    0 -0.22032704024E+00  0.16920424661E+01 -0.64481812406E+01  0.66701269317E+01  0.51100000000E-03 0. -1.
        -11    1    3    3    0    0  0.50868976565E+01 -0.40107686174E+01 -0.32134851357E+02  0.32781266978E+02  0.51100000000E-03 0.  1.
         12    1    3    3    0    0 -0.18981251340E+02  0.49219734426E+01  0.26554805212E+02  0.33010171234E+02  0.00000000000E+00 0. -1.
</event>
<event>
 7    1  0.2153242E-013  0.7246161E+02  0.7816164E-02  0.1226708E+00
        -11   -1    0    0    0    0  0.00000000000E+00  0.00000000000E+00  0.45593999997E+02  0.45594000000E+02  0.51100000000E-03 0. -1.
         11   -1    0    0    0    0 -0.00000000000E+00 -0.00000000000E+00 -0.45593999997E+02  0.45594000000E+02  0.51100000000E-03 0.  1.
    9900012    2    1    2    0    0  0.19506087437E+01 -0.18210073806E+02 -0.39071991480E+01  0.72461605054E+02  0.70000045280E+02 0.  0.
         12    1    1    2    0    0 -0.19506087437E+01  0.18210073806E+02  0.39071991480E+01  0.18726394946E+02  0.00000000000E+00 0. -1.
         11    1    3    3    0    0 -0.44120058547E+01  0.21604344948E+02 -0.61561886606E+01  0.22893496356E+02  0.51100000000E-03 0. -1.
        -11    1    3    3    0    0 -0.52083607635E+01  0.15144098235E+01  0.37988732374E+01  0.66220764939E+01  0.51100000000E-03 0.  1.
        -12    1    3    3    0    0  0.11570975362E+02 -0.41328828578E+02 -0.15498837247E+01  0.42946032204E+02  0.00000000000E+00 0.  1.
</event>
<event>
 7    1  0.2153242E-013  0.7246158E+02  0.7816164E-02  0.1226708E+00
        -11   -1    0    0    0    0  0.00000000000E+00  0.00000000000E+00  0.45593999997E+02  0.45594000000E+02  0.51100000000E-03 0. -1.
         11   -1    0    0    0    0 -0.00000000000E+00 -0.00000000000E+00 -0.45593999997E+02  0.45594000000E+02  0.51100000000E-03 0.  1.
    9900012    2    1    2    0    0  0.94560043032E+01 -0.36602822040E+01 -0.15743727145E+02  0.72461584764E+02  0.70000018849E+02 0.  0.
         12    1    1    2    0    0 -0.94560043032E+01  0.36602822040E+01  0.15743727145E+02  0.18726415236E+02  0.00000000000E+00 0. -1.
         11    1    3    3    0    0 -0.15065863553E+01  0.89793435437E+01 -0.13536251109E+01  0.92049287952E+01  0.51100000000E-03 0. -1.
        -11    1    3    3    0    0  0.33297240337E+02  0.23507609256E+01 -0.14614725487E+01  0.33412096511E+02  0.51100000000E-03 0.  1.
         12    1    3    3    0    0 -0.22334649678E+02 -0.14990386673E+02 -0.12928629485E+02  0.29844559458E+02  0.00000000000E+00 0. -1.
</event>
<event>
 7    1  0.2153242E-013  0.7246157E+02  0.7816164E-02  0.1226708E+00
        -11   -1    0    0    0    0  0.00000000000E+00  0.00000000000E+00  0.45593999997E+02  0.45594000000E+02  0.51100000000E-03 0. -1.
         11   -1    0    0    0    0 -0.00000000000E+00 -0.00000000000E+00 -0.45593999997E+02  0.45594000000E+02  0.51100000000E-03 0.  1.
    9900012    2    1    2    0    0 -0.16865003653E+02 -0.18751223106E+01 -0.79205212823E+01  0.72461572437E+02  0.70000002791E+02 0.  0.
         12    1    1    2    0    0  0.16865003653E+02  0.18751223106E+01  0.79205212823E+01  0.18726427563E+02  0.00000000000E+00 0. -1.
         11    1    3    3    0    0  0.14421623700E+02  0.95249588606E+01 -0.39680421731E+01  0.17732834810E+02  0.51100000000E-03 0. -1.
        -11    1    3    3    0    0 -0.15420736411E+02  0.16193440621E+02 -0.48715974611E+01  0.22885783637E+02  0.51100000000E-03 0.  1.
        -12    1    3    3    0    0 -0.15865890942E+02 -0.27593521792E+02  0.91911835187E+00  0.31842953990E+02  0.00000000000E+00 0.  1.
</event>
<event>
 7    1  0.2153242E-013  0.7246139E+02  0.7816164E-02  0.1226708E+00
        -11   -1    0    0    0    0  0.00000000000E+00  0.00000000000E+00  0.45593999997E+02  0.45594000000E+02  0.51100000000E-03 0.  1.
         11   -1    0    0    0    0 -0.00000000000E+00 -0.00000000000E+00 -0.45593999997E+02  0.45594000000E+02  0.51100000000E-03 0. -1.
    9900012    2    1    2    0    0  0.72621642472E+01 -0.15536962338E+02  0.75199540729E+01  0.72461389589E+02  0.69999764597E+02 0.  0.
         12    1    1    2    0    0 -0.72621642472E+01  0.15536962338E+02 -0.75199540729E+01  0.18726610411E+02  0.00000000000E+00 0. -1.
         11    1    3    3    0    0 -0.39178637419E+01 -0.14030326244E+02 -0.25522641988E+00  0.14569311981E+02  0.51100000000E-03 0. -1.
        -11    1    3    3    0    0  0.10626115262E+02 -0.26118283488E+02 -0.71678221686E+01  0.29093929484E+02  0.51100000000E-03 0.  1.
         12    1    3    3    0    0  0.55391272724E+00  0.24611647395E+02  0.14943002661E+02  0.28798148123E+02  0.00000000000E+00 0. -1.
</event>
<event>
 7    1  0.2153242E-013  0.7246163E+02  0.7816164E-02  0.1226708E+00
        -11   -1    0    0    0    0  0.00000000000E+00  0.00000000000E+00  0.45593999997E+02  0.45594000000E+02  0.51100000000E-03 0. -1.
         11   -1    0    0    0    0 -0.00000000000E+00 -0.00000000000E+00 -0.45593999997E+02  0.45594000000E+02  0.51100000000E-03 0.  1.
    9900012    2    1    2    0    0 -0.71840865097E+01  0.10018950354E+02 -0.14095617219E+02  0.72461631159E+02  0.70000079288E+02 0.  0.
         12    1    1    2    0    0  0.71840865097E+01 -0.10018950354E+02  0.14095617219E+02  0.18726368841E+02  0.00000000000E+00 0. -1.
         11    1    3    3    0    0 -0.25036730309E+02  0.37971060531E+01  0.19282325427E+02  0.31828665587E+02  0.51100000000E-03 0. -1.
        -11    1    3    3    0    0 -0.99841876116E+00 -0.22727740857E+01 -0.31679526299E+01  0.40247069699E+01  0.51100000000E-03 0.  1.
        -12    1    3    3    0    0  0.18851062560E+02  0.84946183865E+01 -0.30209990016E+02  0.36608258603E+02  0.00000000000E+00 0.  1.
</event>
<event>
 7    1  0.2153242E-013  0.7246155E+02  0.7816164E-02  0.1226708E+00
        -11   -1    0    0    0    0  0.00000000000E+00  0.00000000000E+00  0.45593999997E+02  0.45594000000E+02  0.51100000000E-03 0. -1.
         11   -1    0    0    0    0 -0.00000000000E+00 -0.00000000000E+00 -0.45593999997E+02  0.45594000000E+02  0.51100000000E-03 0.  1.
    9900012    2    1    2    0    0  0.16992984964E+02 -0.69050944778E+01  0.37733388630E+01  0.72461549351E+02  0.69999972718E+02 0.  0.
         12    1    1    2    0    0 -0.16992984964E+02  0.69050944778E+01 -0.37733388630E+01  0.18726450649E+02  0.00000000000E+00 0. -1.
         11    1    3    3    0    0  0.27045312562E+00 -0.33548573763E+01 -0.14976452234E+02  0.15349994615E+02  0.51100000000E-03 0. -1.
        -11    1    3    3    0    0  0.83413299646E+01  0.19418255733E+02 -0.63542480299E+01  0.22068595551E+02  0.51100000000E-03 0.  1.
         12    1    3    3    0    0  0.83812018733E+01 -0.22968492835E+02  0.25104039127E+02  0.35042959185E+02  0.00000000000E+00 0. -1.
</event>
<event>
 7    1  0.2153242E-013  0.7246163E+02  0.7816164E-02  0.1226708E+00
        -11   -1    0    0    0    0  0.00000000000E+00  0.00000000000E+00  0.45593999997E+02  0.45594000000E+02  0.51100000000E-03 0. -1.
         11   -1    0    0    0    0 -0.00000000000E+00 -0.00000000000E+00 -0.45593999997E+02  0.45594000000E+02  0.51100000000E-03 0.  1.
    9900012    2    1    2    0    0  0.44685141146E+01  0.17862355591E+02 -0.34125489750E+01  0.72461632062E+02  0.70000080464E+02 0.  0.
         12    1    1    2    0    0 -0.44685141146E+01 -0.17862355591E+02  0.34125489750E+01  0.18726367938E+02  0.00000000000E+00 0. -1.
         11    1    3    3    0    0  0.17882144011E+00  0.32712775100E+02  0.32707901047E+00  0.32714898942E+02  0.51100000000E-03 0. -1.
        -11    1    3    3    0    0 -0.94609803203E+01  0.53172397245E+01 -0.97710125290E+01  0.14603282953E+02  0.51100000000E-03 0.  1.
        -12    1    3    3    0    0  0.13750672995E+02 -0.20167659234E+02  0.60313845435E+01  0.25143450167E+02  0.00000000000E+00 0.  1.
</event>
<event>
 7    1  0.2153242E-013  0.7246159E+02  0.7816164E-02  0.1226708E+00
        -11   -1    0    0    0    0  0.00000000000E+00  0.00000000000E+00  0.45593999997E+02  0.45594000000E+02  0.51100000000E-03 0. -1.
         11   -1    0    0    0    0 -0.00000000000E+00 -0.00000000000E+00 -0.45593999997E+02  0.45594000000E+02  0.51100000000E-03 0.  1.
    9900012    2    1    2    0    0  0.14429379524E+02  0.11819832050E+02  0.16622077465E+01  0.72461591970E+02  0.70000028236E+02 0.  0.
         12    1    1    2    0    0 -0.14429379524E+02 -0.11819832050E+02 -0.16622077465E+01  0.18726408030E+02  0.00000000000E+00 0. -1.
         11    1    3    3    0    0 -0.95502362800E+01 -0.57603402046E+01  0.18100203056E+02  0.21260429987E+02  0.51100000000E-03 0. -1.
        -11    1    3    3    0    0 -0.73311007987E+01  0.29130983631E+01 -0.14577799614E+02  0.16575386054E+02  0.51100000000E-03 0.  1.
        -12    1    3    3    0    0  0.31310716602E+02  0.14667073891E+02 -0.18601956962E+01  0.34625775929E+02  0.00000000000E+00 0.  1.
</event>
<event>
 7    1  0.2153242E-013  0.7246159E+02  0.7816164E-02  0.1226708E+00
        -11   -1    0    0    0    0  0.00000000000E+00  0.00000000000E+00  0.45593999997E+02  0.45594000000E+02  0.51100000000E-03 0.  1.
         11   -1    0    0    0    0 -0.00000000000E+00 -0.00000000000E+00 -0.45593999997E+02  0.45594000000E+02  0.51100000000E-03 0. -1.
    9900012    2    1    2    0    0  0.78201452614E+01  0.12433169636E+02  0.11616369684E+02  0.72461590207E+02  0.70000025940E+02 0.  0.
         12    1    1    2    0    0 -0.78201452614E+01 -0.12433169636E+02 -0.11616369684E+02  0.18726409793E+02  0.00000000000E+00 0. -1.
         11    1    3    3    0    0 -0.27838931387E+00 -0.71670270480E+01  0.33370303859E+02  0.34132403332E+02  0.51100000000E-03 0.  1.
        -11    1    3    3    0    0 -0.25582232708E+01  0.14570611140E+02 -0.14643270300E+01  0.14865781823E+02  0.51100000000E-03 0. -1.
        -12    1    3    3    0    0  0.10656757846E+02  0.50295855443E+01 -0.20289607145E+02  0.23463405052E+02  0.00000000000E+00 0.  1.
</event>
<event>
 7    1  0.2153242E-013  0.7246160E+02  0.7816164E-02  0.1226708E+00
        -11   -1    0    0    0    0  0.00000000000E+00  0.00000000000E+00  0.45593999997E+02  0.45594000000E+02  0.51100000000E-03 0. -1.
         11   -1    0    0    0    0 -0.00000000000E+00 -0.00000000000E+00 -0.45593999997E+02  0.45594000000E+02  0.51100000000E-03 0.  1.
    9900012    2    1    2    0    0  0.13713692034E+02  0.93051659024E+01 -0.87193262158E+01  0.72461598548E+02  0.70000036806E+02 0.  0.
         12    1    1    2    0    0 -0.13713692034E+02 -0.93051659024E+01  0.87193262158E+01  0.18726401452E+02  0.00000000000E+00 0. -1.
         11    1    3    3    0    0  0.18605121064E+01  0.48559991763E+01 -0.29953010854E+01  0.60011717316E+01  0.51100000000E-03 0. -1.
        -11    1    3    3    0    0 -0.79101647078E+00  0.31248530419E+02 -0.15976140008E+02  0.35104606681E+02  0.51100000000E-03 0.  1.
         12    1    3    3    0    0  0.12644196398E+02 -0.26799363693E+02  0.10252114878E+02  0.31355820136E+02  0.00000000000E+00 0. -1.
</event>
<event>
 7    1  0.2153242E-013  0.7246161E+02  0.7816164E-02  0.1226708E+00
        -11   -1    0    0    0    0  0.00000000000E+00  0.00000000000E+00  0.45593999997E+02  0.45594000000E+02  0.51100000000E-03 0.  1.
         11   -1    0    0    0    0 -0.00000000000E+00 -0.00000000000E+00 -0.45593999997E+02  0.45594000000E+02  0.51100000000E-03 0. -1.
    9900012    2    1    2    0    0 -0.44247155735E+00  0.32433331785E+01  0.18438077585E+02  0.72461609632E+02  0.70000051244E+02 0.  0.
         12    1    1    2    0    0  0.44247155735E+00 -0.32433331785E+01 -0.18438077585E+02  0.18726390368E+02  0.00000000000E+00 0. -1.
         11    1    3    3    0    0  0.74015283713E+01  0.50183348547E+00 -0.85072122793E+01  0.11287476250E+02  0.51100000000E-03 0. -1.
        -11    1    3    3    0    0  0.10149947629E+02  0.17687010924E+02  0.31323528122E+02  0.37376666606E+02  0.51100000000E-03 0.  1.
         12    1    3    3    0    0 -0.17993947558E+02 -0.14945511231E+02 -0.43782382578E+01  0.23797466775E+02  0.00000000000E+00 0. -1.
</event>
<event>
 7    1  0.2153242E-013  0.7246165E+02  0.7816164E-02  0.1226708E+00
        -11   -1    0    0    0    0  0.00000000000E+00  0.00000000000E+00  0.45593999997E+02  0.45594000000E+02  0.51100000000E-03 0.  1.
         11   -1    0    0    0    0 -0.00000000000E+00 -0.00000000000E+00 -0.45593999997E+02  0.45594000000E+02  0.51100000000E-03 0. -1.
    9900012    2    1    2    0    0  0.63287785802E+01 -0.87517003404E+01  0.15298056863E+02  0.72461648488E+02  0.70000101862E+02 0.  0.
         12    1    1    2    0    0 -0.63287785802E+01  0.87517003404E+01 -0.15298056863E+02  0.18726351512E+02  0.00000000000E+00 0. -1.
         11    1    3    3    0    0  0.74408628029E+01  0.83523603881E+01  0.54114006826E+01  0.12426247258E+02  0.51100000000E-03 0. -1.
        -11    1    3    3    0    0 -0.63842159848E+01  0.13609160534E+02  0.21963121590E+02  0.26614773612E+02  0.51100000000E-03 0.  1.
         12    1    3    3    0    0  0.52721317621E+01 -0.30713221262E+02 -0.12076465410E+02  0.33420627618E+02  0.00000000000E+00 0. -1.
</event>
<event>
 7    1  0.2153242E-013  0.7246160E+02  0.7816164E-02  0.1226708E+00
        -11   -1    0    0    0    0  0.00000000000E+00  0.00000000000E+00  0.45593999997E+02  0.45594000000E+02  0.51100000000E-03 0.  1.
         11   -1    0    0    0    0 -0.00000000000E+00 -0.00000000000E+00 -0.45593999997E+02  0.45594000000E+02  0.51100000000E-03 0. -1.
    9900012    2    1    2    0    0 -0.13172737165E+02  0.13301134743E+02  0.48687249058E+00  0.72461595254E+02  0.70000032515E+02 0.  0.
         12    1    1    2    0    0  0.13172737165E+02 -0.13301134743E+02 -0.48687249058E+00  0.18726404746E+02  0.00000000000E+00 0. -1.
         11    1    3    3    0    0 -0.25280046959E+02 -0.33951114759E+01 -0.22713675474E+00  0.25508021239E+02  0.51100000000E-03 0.  1.
        -11    1    3    3    0    0  0.16876396989E+02 -0.27331318107E+01 -0.14017986564E+02  0.22108521714E+02  0.51100000000E-03 0. -1.
         12    1    3    3    0    0 -0.47690871943E+01  0.19429378030E+02  0.14731995809E+02  0.24845052301E+02  0.00000000000E+00 0. -1.
</event>
<event>
 7    1  0.2153242E-013  0.7246156E+02  0.7816164E-02  0.1226708E+00
        -11   -1    0    0    0    0  0.00000000000E+00  0.00000000000E+00  0.45593999997E+02  0.45594000000E+02  0.51100000000E-03 0.  1.
         11   -1    0    0    0    0 -0.00000000000E+00 -0.00000000000E+00 -0.45593999997E+02  0.45594000000E+02  0.51100000000E-03 0. -1.
    9900012    2    1    2    0    0  0.72704975684E+01 -0.14702095092E+02  0.90370261841E+01  0.72461559408E+02  0.69999985819E+02 0.  0.
         12    1    1    2    0    0 -0.72704975684E+01  0.14702095092E+02 -0.90370261841E+01  0.18726440592E+02  0.00000000000E+00 0. -1.
         11    1    3    3    0    0  0.90213240110E+01  0.16178190539E+02 -0.17850867297E+02  0.25724921760E+02  0.51100000000E-03 0. -1.
        -11    1    3    3    0    0  0.98928973571E+01 -0.14088013105E+02  0.82918460328E+01  0.19107491784E+02  0.51100000000E-03 0.  1.
        -12    1    3    3    0    0 -0.11643723800E+02 -0.16792272526E+02  0.18596047448E+02  0.27629145865E+02  0.00000000000E+00 0.  1.
</event>
<event>
 7    1  0.2153242E-013  0.7246155E+02  0.7816164E-02  0.1226708E+00
        -11   -1    0    0    0    0  0.00000000000E+00  0.00000000000E+00  0.45593999997E+02  0.45594000000E+02  0.51100000000E-03 0. -1.
         11   -1    0    0    0    0 -0.00000000000E+00 -0.00000000000E+00 -0.45593999997E+02  0.45594000000E+02  0.51100000000E-03 0.  1.
    9900012    2    1    2    0    0 -0.82875623880E+00 -0.10249773471E+02 -0.15650408542E+02  0.72461548638E+02  0.69999971788E+02 0.  0.
         12    1    1    2    0    0  0.82875623880E+00  0.10249773471E+02  0.15650408542E+02  0.18726451362E+02  0.00000000000E+00 0. -1.
         11    1    3    3    0    0  0.67040743421E+01  0.21150904608E+02  0.11271448649E+02  0.24886762212E+02  0.51100000000E-03 0. -1.
        -11    1    3    3    0    0  0.52695039697E+01 -0.14521520881E+01 -0.24047123853E+00  0.54712196494E+01  0.51100000000E-03 0.  1.
        -12    1    3    3    0    0 -0.12802334551E+02 -0.29948525990E+02 -0.26681385952E+02  0.42103566776E+02  0.00000000000E+00 0.  1.
</event>
<event>
 7    1  0.2153242E-013  0.7246163E+02  0.7816164E-02  0.1226708E+00
        -11   -1    0    0    0    0  0.00000000000E+00  0.00000000000E+00  0.45593999997E+02  0.45594000000E+02  0.51100000000E-03 0.  1.
         11   -1    0    0    0    0 -0.00000000000E+00 -0.00000000000E+00 -0.45593999997E+02  0.45594000000E+02  0.51100000000E-03 0. -1.
    9900012    2    1    2    0    0 -0.72421142061E+01 -0.79955078428E+01  0.15306874512E+02  0.72461634331E+02  0.70000083420E+02 0.  0.
         12    1    1    2    0    0  0.72421142061E+01  0.79955078428E+01 -0.15306874512E+02  0.18726365669E+02  0.00000000000E+00 0. -1.
         11    1    3    3    0    0 -0.17822783981E+00 -0.26823695090E+02  0.13098042044E+02  0.29851316371E+02  0.51100000000E-03 0. -1.
        -11    1    3    3    0    0 -0.12269209975E+02 -0.83745722788E+01  0.96086878050E+00  0.14885907541E+02  0.51100000000E-03 0.  1.
         12    1    3    3    0    0  0.52053236083E+01  0.27202759526E+02  0.12479636870E+01  0.27724410419E+02  0.00000000000E+00 0. -1.
</event>
<event>
 7    1  0.2153242E-013  0.7246149E+02  0.7816164E-02  0.1226708E+00
        -11   -1    0    0    0    0  0.00000000000E+00  0.00000000000E+00  0.45593999997E+02  0.45594000000E+02  0.51100000000E-03 0.  1.
         11   -1    0    0    0    0 -0.00000000000E+00 -0.00000000000E+00 -0.45593999997E+02  0.45594000000E+02  0.51100000000E-03 0. -1.
    9900012    2    1    2    0    0 -0.18333987653E+02  0.36661035606E+01  0.10519444437E+01  0.72461494568E+02  0.69999901352E+02 0.  0.
         12    1    1    2    0    0  0.18333987653E+02 -0.36661035606E+01 -0.10519444437E+01  0.18726505432E+02  0.00000000000E+00 0. -1.
         11    1    3    3    0    0  0.87284647499E+01  0.45830907228E+01  0.17819031615E+02  0.20364397989E+02  0.51100000000E-03 0. -1.
        -11    1    3    3    0    0 -0.11776435118E+01  0.16713348480E+02 -0.39974682515E+00  0.16759554274E+02  0.51100000000E-03 0.  1.
         12    1    3    3    0    0 -0.25884808891E+02 -0.17630335643E+02 -0.16367340347E+02  0.35337542306E+02  0.00000000000E+00 0. -1.
</event>
<event>
 7    1  0.2153242E-013  0.7246157E+02  0.7816164E-02  0.1226708E+00
        -11   -1    0    0    0    0  0.00000000000E+00  0.00000000000E+00  0.45593999997E+02  0.45594000000E+02  0.51100000000E-03 0. -1.
         11   -1    0    0    0    0 -0.00000000000E+00 -0.00000000000E+00 -0.45593999997E+02  0.45594000000E+02  0.51100000000E-03 0.  1.
    9900012    2    1    2    0    0  0.15435435118E+02  0.88934595163E+01 -0.57734764513E+01  0.72461566549E+02  0.69999995122E+02 0.  0.
         12    1    1    2    0    0 -0.15435435118E+02 -0.88934595163E+01  0.57734764513E+01  0.18726433451E+02  0.00000000000E+00 0. -1.
         11    1    3    3    0    0 -0.86496135015E+01  0.14130825190E+02 -0.24510234870E+02  0.29584584633E+02  0.51100000000E-03 0.  1.
        -11    1    3    3    0    0  0.27763990101E+01 -0.12909577815E+02  0.14895417936E+02  0.19905754609E+02  0.51100000000E-03 0. -1.
        -12    1    3    3    0    0  0.21308649609E+02  0.76722121407E+01  0.38413404823E+01  0.22971227307E+02  0.00000000000E+00 0.  1.
</event>
<event>
 7    1  0.2153242E-013  0.7246143E+02  0.7816164E-02  0.1226708E+00
        -11   -1    0    0    0    0  0.00000000000E+00  0.00000000000E+00  0.45593999997E+02  0.45594000000E+02  0.51100000000E-03 0. -1.
         11   -1    0    0    0    0 -0.00000000000E+00 -0.00000000000E+00 -0.45593999997E+02  0.45594000000E+02  0.51100000000E-03 0.  1.
    9900012    2    1    2    0    0  0.60492688366E+01  0.31600389472E+01 -0.17438601204E+02  0.72461433002E+02  0.69999821151E+02 0.  0.
         12    1    1    2    0    0 -0.60492688366E+01 -0.31600389472E+01  0.17438601204E+02  0.18726566998E+02  0.00000000000E+00 0. -1.
         11    1    3    3    0    0 -0.11133420907E+02  0.71565676690E+01 -0.48216033208E+01  0.14086070450E+02  0.51100000000E-03 0. -1.
        -11    1    3    3    0    0 -0.53346504030E+01 -0.87184074684E+01  0.17626425623E+02  0.20375475558E+02  0.51100000000E-03 0.  1.
        -12    1    3    3    0    0  0.22517340146E+02  0.47218787465E+01 -0.30243423506E+02  0.37999886993E+02  0.00000000000E+00 0.  1.
</event>
<event>
 7    1  0.2153242E-013  0.7246159E+02  0.7816164E-02  0.1226708E+00
        -11   -1    0    0    0    0  0.00000000000E+00  0.00000000000E+00  0.45593999997E+02  0.45594000000E+02  0.51100000000E-03 0.  1.
         11   -1    0    0    0    0 -0.00000000000E+00 -0.00000000000E+00 -0.45593999997E+02  0.45594000000E+02  0.51100000000E-03 0. -1.
    9900012    2    1    2    0    0  0.90380309782E+01 -0.11530964201E+02  0.11663162746E+02  0.72461588047E+02  0.70000023127E+02 0.  0.
         12    1    1    2    0    0 -0.90380309782E+01  0.11530964201E+02 -0.11663162746E+02  0.18726411953E+02  0.00000000000E+00 0. -1.
         11    1    3    3    0    0  0.91494144663E+01  0.13723139058E+02 -0.14826803910E+02  0.22178152428E+02  0.51100000000E-03 0. -1.
        -11    1    3    3    0    0  0.11776075357E+02  0.17282288307E+00  0.16946078351E+02  0.20636748539E+02  0.51100000000E-03 0.  1.
        -12    1    3    3    0    0 -0.11887458845E+02 -0.25426926142E+02  0.95438883056E+01  0.29646687080E+02  0.00000000000E+00 0.  1.
</event>
<event>
 7    1  0.2153242E-013  0.7246129E+02  0.7816164E-02  0.1226709E+00
        -11   -1    0    0    0    0  0.00000000000E+00  0.00000000000E+00  0.45593999997E+02  0.45594000000E+02  0.51100000000E-03 0.  1.
         11   -1    0    0    0    0 -0.00000000000E+00 -0.00000000000E+00 -0.45593999997E+02  0.45594000000E+02  0.51100000000E-03 0. -1.
    9900012    2    1    2    0    0 -0.74628397958E+01 -0.59016521693E+00  0.17165291193E+02  0.72461294616E+02  0.69999640877E+02 0.  0.
         12    1    1    2    0    0  0.74628397958E+01  0.59016521693E+00 -0.17165291193E+02  0.18726705384E+02  0.00000000000E+00 0. -1.
         11    1    3    3    0    0 -0.30562667878E+02 -0.65723612512E+01  0.17916345701E+02  0.36031486838E+02  0.51100000000E-03 0. -1.
        -11    1    3    3    0    0 -0.57671240220E+01 -0.24510727729E+01 -0.10556482122E+01  0.63546731334E+01  0.51100000000E-03 0.  1.
        -12    1    3    3    0    0  0.28866952104E+02  0.84332688072E+01  0.30459370392E+00  0.30075134645E+02  0.00000000000E+00 0.  1.
</event>
<event>
 7    1  0.2153242E-013  0.7246160E+02  0.7816164E-02  0.1226708E+00
        -11   -1    0    0    0    0  0.00000000000E+00  0.00000000000E+00  0.45593999997E+02  0.45594000000E+02  0.51100000000E-03 0.  1.
         11   -1    0    0    0    0 -0.00000000000E+00 -0.00000000000E+00 -0.45593999997E+02  0.45594000000E+02  0.51100000000E-03 0. -1.
    9900012    2    1    2    0    0 -0.14278809106E+02  0.49531648395E+01  0.11057112420E+02  0.72461602415E+02  0.70000041843E+02 0.  0.
         12    1    1    2    0    0  0.14278809106E+02 -0.49531648395E+01 -0.11057112420E+02  0.18726397585E+02  0.00000000000E+00 0. -1.
         11    1    3    3    0    0 -0.95899496618E+01  0.45141782241E+01 -0.14597856517E+02  0.18040020917E+02  0.51100000000E-03 0. -1.
        -11    1    3    3    0    0  0.71635815704E+01  0.20922753018E+02  0.20597664383E+02  0.30221553122E+02  0.51100000000E-03 0.  1.
         12    1    3    3    0    0 -0.11852441015E+02 -0.20483766403E+02  0.50573045538E+01  0.24200028376E+02  0.00000000000E+00 0. -1.
</event>
<event>
 7    1  0.2153242E-013  0.7246157E+02  0.7816164E-02  0.1226708E+00
        -11   -1    0    0    0    0  0.00000000000E+00  0.00000000000E+00  0.45593999997E+02  0.45594000000E+02  0.51100000000E-03 0.  1.
         11   -1    0    0    0    0 -0.00000000000E+00 -0.00000000000E+00 -0.45593999997E+02  0.45594000000E+02  0.51100000000E-03 0. -1.
    9900012    2    1    2    0    0  0.54327816350E+01 -0.95245757125E+01  0.15180459463E+02  0.72461574599E+02  0.70000005608E+02 0.  0.
         12    1    1    2    0    0 -0.54327816350E+01  0.95245757125E+01 -0.15180459463E+02  0.18726425401E+02  0.00000000000E+00 0. -1.
         11    1    3    3    0    0 -0.43205976592E+00  0.29738316629E+01  0.97395127542E+01  0.10192568830E+02  0.51100000000E-03 0. -1.
        -11    1    3    3    0    0 -0.52937158565E+01  0.57701377666E+01  0.29233276870E+02  0.30263879365E+02  0.51100000000E-03 0.  1.
         12    1    3    3    0    0  0.11158557257E+02 -0.18268545142E+02 -0.23792330161E+02  0.32005126404E+02  0.00000000000E+00 0. -1.
</event>
<event>
 7    1  0.2153242E-013  0.7246158E+02  0.7816164E-02  0.1226708E+00
        -11   -1    0    0    0    0  0.00000000000E+00  0.00000000000E+00  0.45593999997E+02  0.45594000000E+02  0.51100000000E-03 0.  1.
         11   -1    0    0    0    0 -0.00000000000E+00 -0.00000000000E+00 -0.45593999997E+02  0.45594000000E+02  0.51100000000E-03 0. -1.
    9900012    2    1    2    0    0  0.41912862736E+01  0.12353460040E+02 -0.13435172671E+02  0.72461582289E+02  0.70000015625E+02 0.  0.
         12    1    1    2    0    0 -0.41912862736E+01 -0.12353460040E+02  0.13435172671E+02  0.18726417711E+02  0.00000000000E+00 0. -1.
         11    1    3    3    0    0  0.22277711854E+02  0.93099822228E+01 -0.13903645568E+02  0.27861865960E+02  0.51100000000E-03 0. -1.
        -11    1    3    3    0    0 -0.54824424998E+01  0.14989860693E+02 -0.14582213628E+02  0.21619298183E+02  0.51100000000E-03 0.  1.
        -12    1    3    3    0    0 -0.12603983080E+02 -0.11946382876E+02  0.15050686525E+02  0.22980418146E+02  0.00000000000E+00 0.  1.
</event>
<event>
 7    1  0.2153242E-013  0.7246157E+02  0.7816164E-02  0.1226708E+00
        -11   -1    0    0    0    0  0.00000000000E+00  0.00000000000E+00  0.45593999997E+02  0.45594000000E+02  0.51100000000E-03 0.  1.
         11   -1    0    0    0    0 -0.00000000000E+00 -0.00000000000E+00 -0.45593999997E+02  0.45594000000E+02  0.51100000000E-03 0. -1.
    9900012    2    1    2    0    0  0.12559741747E+02  0.10805617267E+02 -0.87275833304E+01  0.72461569800E+02  0.69999999356E+02 0.  0.
         12    1    1    2    0    0 -0.12559741747E+02 -0.10805617267E+02  0.87275833304E+01  0.18726430200E+02  0.00000000000E+00 0. -1.
         11    1    3    3    0    0  0.69818364757E+01  0.15504870813E+02  0.10557609592E+02  0.20015248688E+02  0.51100000000E-03 0. -1.
        -11    1    3    3    0    0 -0.34380013497E+01 -0.15153439547E+02  0.11084007026E+02  0.19086691578E+02  0.51100000000E-03 0.  1.
         12    1    3    3    0    0  0.90159066206E+01  0.10454186001E+02 -0.30369199948E+02  0.33359629533E+02  0.00000000000E+00 0. -1.
</event>
<event>
 7    1  0.2153242E-013  0.7246157E+02  0.7816164E-02  0.1226708E+00
        -11   -1    0    0    0    0  0.00000000000E+00  0.00000000000E+00  0.45593999997E+02  0.45594000000E+02  0.51100000000E-03 0.  1.
         11   -1    0    0    0    0 -0.00000000000E+00 -0.00000000000E+00 -0.45593999997E+02  0.45594000000E+02  0.51100000000E-03 0. -1.
    9900012    2    1    2    0    0 -0.43649355098E+01 -0.83887557507E+01  0.16163391273E+02  0.72461572084E+02  0.70000002331E+02 0.  0.
         12    1    1    2    0    0  0.43649355098E+01  0.83887557507E+01 -0.16163391273E+02  0.18726427916E+02  0.00000000000E+00 0. -1.
         11    1    3    3    0    0 -0.18053721871E+02  0.20345985570E+01  0.76298726947E+01  0.19705111577E+02  0.51100000000E-03 0. -1.
        -11    1    3    3    0    0 -0.12717406918E+02  0.46573998932E+01  0.16475234800E+02  0.21327380862E+02  0.51100000000E-03 0.  1.
         12    1    3    3    0    0  0.26406193279E+02 -0.15080754201E+02 -0.79417162213E+01  0.31429079644E+02  0.00000000000E+00 0. -1.
</event>
<event>
 7    1  0.2153242E-013  0.7246161E+02  0.7816164E-02  0.1226708E+00
        -11   -1    0    0    0    0  0.00000000000E+00  0.00000000000E+00  0.45593999997E+02  0.45594000000E+02  0.51100000000E-03 0. -1.
         11   -1    0    0    0    0 -0.00000000000E+00 -0.00000000000E+00 -0.45593999997E+02  0.45594000000E+02  0.51100000000E-03 0.  1.
    9900012    2    1    2    0    0 -0.55752101347E-01  0.18345948478E+02 -0.37551083102E+01  0.72461607601E+02  0.70000048599E+02 0.  0.
         12    1    1    2    0    0  0.55752101347E-01 -0.18345948478E+02  0.37551083102E+01  0.18726392399E+02  0.00000000000E+00 0. -1.
         11    1    3    3    0    0  0.18513540280E+01 -0.43827165918E+01  0.25560067727E+02  0.25999091887E+02  0.51100000000E-03 0. -1.
        -11    1    3    3    0    0 -0.31991871117E+01 -0.17428169848E+01  0.38012745990E+01  0.52651588823E+01  0.51100000000E-03 0.  1.
        -12    1    3    3    0    0  0.12920809824E+01  0.24471482054E+02 -0.33116450637E+02  0.41197356832E+02  0.00000000000E+00 0.  1.
</event>
<event>
 7    1  0.2153242E-013  0.7246158E+02  0.7816164E-02  0.1226708E+00
        -11   -1    0    0    0    0  0.00000000000E+00  0.00000000000E+00  0.45593999997E+02  0.45594000000E+02  0.51100000000E-03 0.  1.
         11   -1    0    0    0    0 -0.00000000000E+00 -0.00000000000E+00 -0.45593999997E+02  0.45594000000E+02  0.51100000000E-03 0. -1.
    9900012    2    1    2    0    0 -0.47736911774E+01 -0.86081536960E+01  0.15930794750E+02  0.72461583928E+02  0.70000017761E+02 0.  0.
         12    1    1    2    0    0  0.47736911774E+01  0.86081536960E+01 -0.15930794750E+02  0.18726416072E+02  0.00000000000E+00 0. -1.
         11    1    3    3    0    0  0.16296564722E+02 -0.20938208169E+02 -0.63460539749E+01  0.27281110395E+02  0.51100000000E-03 0. -1.
        -11    1    3    3    0    0  0.33312285767E+01  0.60925855650E+01 -0.46138397656E+01  0.83369179161E+01  0.51100000000E-03 0.  1.
        -12    1    3    3    0    0 -0.24401484476E+02  0.62374689076E+01  0.26890688491E+02  0.36843555617E+02  0.00000000000E+00 0.  1.
</event>
<event>
 7    1  0.2153242E-013  0.7246162E+02  0.7816164E-02  0.1226708E+00
        -11   -1    0    0    0    0  0.00000000000E+00  0.00000000000E+00  0.45593999997E+02  0.45594000000E+02  0.51100000000E-03 0. -1.
         11   -1    0    0    0    0 -0.00000000000E+00 -0.00000000000E+00 -0.45593999997E+02  0.45594000000E+02  0.51100000000E-03 0.  1.
    9900012    2    1    2    0    0  0.10539026958E+02 -0.59422002991E-02 -0.15479221855E+02  0.72461616639E+02  0.70000060373E+02 0.  0.
         12    1    1    2    0    0 -0.10539026958E+02  0.59422002991E-02  0.15479221855E+02  0.18726383361E+02  0.00000000000E+00 0. -1.
         11    1    3    3    0    0 -0.17383634372E+02  0.78795516935E+01  0.15326854572E+02  0.24478369026E+02  0.51100000000E-03 0. -1.
        -11    1    3    3    0    0  0.10106603622E+02 -0.11273882262E+02 -0.40727402502E+01  0.15679000971E+02  0.51100000000E-03 0.  1.
        -12    1    3    3    0    0  0.17816057708E+02  0.33883883685E+01 -0.26733336176E+02  0.32304246642E+02  0.00000000000E+00 0.  1.
</event>
<event>
 7    1  0.2153242E-013  0.7246158E+02  0.7816164E-02  0.1226708E+00
        -11   -1    0    0    0    0  0.00000000000E+00  0.00000000000E+00  0.45593999997E+02  0.45594000000E+02  0.51100000000E-03 0. -1.
         11   -1    0    0    0    0 -0.00000000000E+00 -0.00000000000E+00 -0.45593999997E+02  0.45594000000E+02  0.51100000000E-03 0.  1.
    9900012    2    1    2    0    0  0.15722358077E+02  0.41634608245E+01 -0.92818059402E+01  0.72461578264E+02  0.70000010381E+02 0.  0.
         12    1    1    2    0    0 -0.15722358077E+02 -0.41634608245E+01  0.92818059402E+01  0.18726421736E+02  0.00000000000E+00 0. -1.
         11    1    3    3    0    0  0.10764908628E+02 -0.22088804564E+02 -0.90419882641E+00  0.24588943056E+02  0.51100000000E-03 0. -1.
        -11    1    3    3    0    0  0.48037603472E+01 -0.97463211341E+01 -0.41288142754E+01  0.11623854641E+02  0.51100000000E-03 0.  1.
        -12    1    3    3    0    0  0.15368910221E+00  0.35998586523E+02 -0.42487928384E+01  0.36248780567E+02  0.00000000000E+00 0.  1.
</event>
<event>
 7    1  0.2153242E-013  0.7246157E+02  0.7816164E-02  0.1226708E+00
        -11   -1    0    0    0    0  0.00000000000E+00  0.00000000000E+00  0.45593999997E+02  0.45594000000E+02  0.51100000000E-03 0.  1.
         11   -1    0    0    0    0 -0.00000000000E+00 -0.00000000000E+00 -0.45593999997E+02  0.45594000000E+02  0.51100000000E-03 0. -1.
    9900012    2    1    2    0    0  0.78393727504E+01  0.11349359838E+02 -0.12665524325E+02  0.72461568405E+02  0.69999997538E+02 0.  0.
         12    1    1    2    0    0 -0.78393727504E+01 -0.11349359838E+02  0.12665524325E+02  0.18726431595E+02  0.00000000000E+00 0. -1.
         11    1    3    3    0    0 -0.12077506875E+02 -0.16695203695E+02  0.18427385176E+01  0.20687959886E+02  0.51100000000E-03 0.  1.
        -11    1    3    3    0    0  0.10286830248E+02  0.20732381376E+02 -0.26196877379E+02  0.34956070986E+02  0.51100000000E-03 0. -1.
        -12    1    3    3    0    0  0.96300493771E+01  0.73121821575E+01  0.11688614536E+02  0.16817537533E+02  0.00000000000E+00 0.  1.
</event>
<event>
 7    1  0.2153242E-013  0.7246159E+02  0.7816164E-02  0.1226708E+00
        -11   -1    0    0    0    0  0.00000000000E+00  0.00000000000E+00  0.45593999997E+02  0.45594000000E+02  0.51100000000E-03 0.  1.
         11   -1    0    0    0    0 -0.00000000000E+00 -0.00000000000E+00 -0.45593999997E+02  0.45594000000E+02  0.51100000000E-03 0. -1.
    9900012    2    1    2    0    0  0.24949785382E-01 -0.64837059886E+01  0.17568135696E+02  0.72461589301E+02  0.70000024759E+02 0.  0.
         12    1    1    2    0    0 -0.24949785382E-01  0.64837059886E+01 -0.17568135696E+02  0.18726410699E+02  0.00000000000E+00 0. -1.
         11    1    3    3    0    0 -0.40006965239E+01 -0.33245107590E+01  0.11757052958E+02  0.12856369588E+02  0.51100000000E-03 0. -1.
        -11    1    3    3    0    0  0.42678904666E+01 -0.79420425558E+01  0.31864399397E+02  0.33115417530E+02  0.51100000000E-03 0.  1.
         12    1    3    3    0    0 -0.24224415738E+00  0.47828473263E+01 -0.26053316658E+02  0.26489802183E+02  0.00000000000E+00 0. -1.
</event>
<event>
 7    1  0.2153242E-013  0.7246177E+02  0.7816164E-02  0.1226707E+00
        -11   -1    0    0    0    0  0.00000000000E+00  0.00000000000E+00  0.45593999997E+02  0.45594000000E+02  0.51100000000E-03 0. -1.
         11   -1    0    0    0    0 -0.00000000000E+00 -0.00000000000E+00 -0.45593999997E+02  0.45594000000E+02  0.51100000000E-03 0.  1.
    9900012    2    1    2    0    0 -0.67937872770E+01  0.10322555146E+01 -0.17419829711E+02  0.72461773360E+02  0.70000264530E+02 0.  0.
         12    1    1    2    0    0  0.67937872770E+01 -0.10322555146E+01  0.17419829711E+02  0.18726226640E+02  0.00000000000E+00 0. -1.
         11    1    3    3    0    0 -0.16176317382E+02  0.13989889404E+02  0.17115636989E+02  0.27392248527E+02  0.51100000000E-03 0. -1.
        -11    1    3    3    0    0  0.12522172061E+02  0.16583856385E+01 -0.91069002102E+01  0.15572111859E+02  0.51100000000E-03 0.  1.
        -12    1    3    3    0    0 -0.31396419557E+01 -0.14616019528E+02 -0.25428566490E+02  0.29497412974E+02  0.00000000000E+00 0.  1.
</event>
<event>
 7    1  0.2153242E-013  0.7246160E+02  0.7816164E-02  0.1226708E+00
        -11   -1    0    0    0    0  0.00000000000E+00  0.00000000000E+00  0.45593999997E+02  0.45594000000E+02  0.51100000000E-03 0.  1.
         11   -1    0    0    0    0 -0.00000000000E+00 -0.00000000000E+00 -0.45593999997E+02  0.45594000000E+02  0.51100000000E-03 0. -1.
    9900012    2    1    2    0    0  0.76833457738E+01 -0.57793553993E+01  0.16069948524E+02  0.72461601610E+02  0.70000040794E+02 0.  0.
         12    1    1    2    0    0 -0.76833457738E+01  0.57793553993E+01 -0.16069948524E+02  0.18726398390E+02  0.00000000000E+00 0. -1.
         11    1    3    3    0    0  0.25706048041E+01  0.12961499119E+02 -0.10006783695E+02  0.16575409155E+02  0.51100000000E-03 0. -1.
        -11    1    3    3    0    0  0.95497637051E+00  0.77418383832E+01 -0.88893523051E+01  0.11826606702E+02  0.51100000000E-03 0.  1.
        -12    1    3    3    0    0  0.41577645992E+01 -0.26482692901E+02  0.34966084524E+02  0.44059585753E+02  0.00000000000E+00 0.  1.
</event>
<event>
 7    1  0.2153242E-013  0.7246153E+02  0.7816164E-02  0.1226708E+00
        -11   -1    0    0    0    0  0.00000000000E+00  0.00000000000E+00  0.45593999997E+02  0.45594000000E+02  0.51100000000E-03 0.  1.
         11   -1    0    0    0    0 -0.00000000000E+00 -0.00000000000E+00 -0.45593999997E+02  0.45594000000E+02  0.51100000000E-03 0. -1.
    9900012    2    1    2    0    0  0.17298020360E+02  0.50836855169E+01  0.50611394823E+01  0.72461534779E+02  0.69999953735E+02 0.  0.
         12    1    1    2    0    0 -0.17298020360E+02 -0.50836855169E+01 -0.50611394823E+01  0.18726465221E+02  0.00000000000E+00 0. -1.
         11    1    3    3    0    0 -0.22021305056E+02  0.97070599864E+01 -0.83957593524E+01  0.25488304481E+02  0.51100000000E-03 0. -1.
        -11    1    3    3    0    0  0.68516034498E+01 -0.23394888895E+01 -0.56925074429E+01  0.92099033299E+01  0.51100000000E-03 0.  1.
        -12    1    3    3    0    0  0.32467721966E+02 -0.22838855799E+01  0.19149406278E+02  0.37763326969E+02  0.00000000000E+00 0.  1.
</event>
<event>
 7    1  0.2153242E-013  0.7246158E+02  0.7816164E-02  0.1226708E+00
        -11   -1    0    0    0    0  0.00000000000E+00  0.00000000000E+00  0.45593999997E+02  0.45594000000E+02  0.51100000000E-03 0. -1.
         11   -1    0    0    0    0 -0.00000000000E+00 -0.00000000000E+00 -0.45593999997E+02  0.45594000000E+02  0.51100000000E-03 0.  1.
    9900012    2    1    2    0    0 -0.43869938283E+01  0.17752186714E+02 -0.40364531824E+01  0.72461580100E+02  0.70000012774E+02 0.  0.
         12    1    1    2    0    0  0.43869938283E+01 -0.17752186714E+02  0.40364531824E+01  0.18726419900E+02  0.00000000000E+00 0. -1.
         11    1    3    3    0    0 -0.92323669510E+01  0.16544431605E+02  0.24821900602E+02  0.31226296073E+02  0.51100000000E-03 0. -1.
        -11    1    3    3    0    0 -0.16852495716E+01 -0.65079642249E+01  0.33263041866E+01  0.75005309328E+01  0.51100000000E-03 0.  1.
        -12    1    3    3    0    0  0.65306226942E+01  0.77157193343E+01 -0.32184657971E+02  0.33734753095E+02  0.00000000000E+00 0.  1.
</event>
<event>
 7    1  0.2153242E-013  0.7246163E+02  0.7816164E-02  0.1226708E+00
        -11   -1    0    0    0    0  0.00000000000E+00  0.00000000000E+00  0.45593999997E+02  0.45594000000E+02  0.51100000000E-03 0.  1.
         11   -1    0    0    0    0 -0.00000000000E+00 -0.00000000000E+00 -0.45593999997E+02  0.45594000000E+02  0.51100000000E-03 0. -1.
    9900012    2    1    2    0    0  0.12265305523E+02  0.10990079979E+01  0.14107842633E+02  0.72461634578E+02  0.70000083742E+02 0.  0.
         12    1    1    2    0    0 -0.12265305523E+02 -0.10990079979E+01 -0.14107842633E+02  0.18726365422E+02  0.00000000000E+00 0. -1.
         11    1    3    3    0    0  0.41229829891E+01  0.59116591794E+01  0.30493131978E+02  0.31333333705E+02  0.51100000000E-03 0. -1.
        -11    1    3    3    0    0  0.11688483697E+02 -0.11638700461E+02  0.59269113096E+01  0.17527357972E+02  0.51100000000E-03 0.  1.
         12    1    3    3    0    0 -0.35461611630E+01  0.68260492797E+01 -0.22312200655E+02  0.23600942901E+02  0.00000000000E+00 0. -1.
</event>
<event>
 7    1  0.2153242E-013  0.7246157E+02  0.7816164E-02  0.1226708E+00
        -11   -1    0    0    0    0  0.00000000000E+00  0.00000000000E+00  0.45593999997E+02  0.45594000000E+02  0.51100000000E-03 0. -1.
         11   -1    0    0    0    0 -0.00000000000E+00 -0.00000000000E+00 -0.45593999997E+02  0.45594000000E+02  0.51100000000E-03 0.  1.
    9900012    2    1    2    0    0 -0.57273904904E+01 -0.70780898008E+01 -0.16363892016E+02  0.72461566304E+02  0.69999994802E+02 0.  0.
         12    1    1    2    0    0  0.57273904904E+01  0.70780898008E+01  0.16363892016E+02  0.18726433696E+02  0.00000000000E+00 0. -1.
         11    1    3    3    0    0 -0.28147044121E+01 -0.78068826293E+01  0.78352084710E+00  0.83356992804E+01  0.51100000000E-03 0. -1.
        -11    1    3    3    0    0  0.37661582285E+01  0.30412368849E+02 -0.37221379579E+01  0.30869895336E+02  0.51100000000E-03 0.  1.
         12    1    3    3    0    0 -0.66788443069E+01 -0.29683576021E+02 -0.13425274905E+02  0.33255971688E+02  0.00000000000E+00 0. -1.
</event>
<event>
 7    1  0.2153242E-013  0.7246159E+02  0.7816164E-02  0.1226708E+00
        -11   -1    0    0    0    0  0.00000000000E+00  0.00000000000E+00  0.45593999997E+02  0.45594000000E+02  0.51100000000E-03 0. -1.
         11   -1    0    0    0    0 -0.00000000000E+00 -0.00000000000E+00 -0.45593999997E+02  0.45594000000E+02  0.51100000000E-03 0.  1.
    9900012    2    1    2    0    0  0.11878631718E+02  0.22352396606E+01 -0.14303154217E+02  0.72461590616E+02  0.70000026473E+02 0.  0.
         12    1    1    2    0    0 -0.11878631718E+02 -0.22352396606E+01  0.14303154217E+02  0.18726409384E+02  0.00000000000E+00 0. -1.
         11    1    3    3    0    0 -0.41916164120E+01  0.14060770465E+02  0.24097728225E+02  0.28213036350E+02  0.51100000000E-03 0. -1.
        -11    1    3    3    0    0  0.11260326144E+00 -0.31881190519E+00  0.53019843403E+00  0.62883317816E+00  0.51100000000E-03 0.  1.
        -12    1    3    3    0    0  0.15957644869E+02 -0.11506718899E+02 -0.38931080877E+02  0.43619721088E+02  0.00000000000E+00 0.  1.
</event>
<event>
 7    1  0.2153242E-013  0.7246153E+02  0.7816164E-02  0.1226708E+00
        -11   -1    0    0    0    0  0.00000000000E+00  0.00000000000E+00  0.45593999997E+02  0.45594000000E+02  0.51100000000E-03 0.  1.
         11   -1    0    0    0    0 -0.00000000000E+00 -0.00000000000E+00 -0.45593999997E+02  0.45594000000E+02  0.51100000000E-03 0. -1.
    9900012    2    1    2    0    0  0.36934918663E+01  0.22968087253E+01  0.18214376942E+02  0.72461528366E+02  0.69999945380E+02 0.  0.
         12    1    1    2    0    0 -0.36934918663E+01 -0.22968087253E+01 -0.18214376942E+02  0.18726471634E+02  0.00000000000E+00 0. -1.
         11    1    3    3    0    0  0.87611419870E+01 -0.79505503778E+00  0.11362846935E+02  0.14370247463E+02  0.51100000000E-03 0. -1.
        -11    1    3    3    0    0  0.72821111072E+01  0.52415480597E+00  0.30460845741E+02  0.31323585427E+02  0.51100000000E-03 0.  1.
         12    1    3    3    0    0 -0.12349761228E+02  0.25677089571E+01 -0.23609315734E+02  0.26767695476E+02  0.00000000000E+00 0. -1.
</event>
<event>
 7    1  0.2153242E-013  0.7246155E+02  0.7816164E-02  0.1226708E+00
        -11   -1    0    0    0    0  0.00000000000E+00  0.00000000000E+00  0.45593999997E+02  0.45594000000E+02  0.51100000000E-03 0. -1.
         11   -1    0    0    0    0 -0.00000000000E+00 -0.00000000000E+00 -0.45593999997E+02  0.45594000000E+02  0.51100000000E-03 0.  1.
    9900012    2    1    2    0    0 -0.45679439293E+01 -0.14744172144E+02 -0.10602976360E+02  0.72461552615E+02  0.69999976970E+02 0.  0.
         12    1    1    2    0    0  0.45679439293E+01  0.14744172144E+02  0.10602976360E+02  0.18726447385E+02  0.00000000000E+00 0. -1.
         11    1    3    3    0    0 -0.57257744852E+01 -0.31005116223E+01  0.28339449675E+02  0.29077862265E+02  0.51100000000E-03 0. -1.
        -11    1    3    3    0    0 -0.70754856559E+00 -0.72400368046E+01 -0.43787314103E+01  0.84907035592E+01  0.51100000000E-03 0.  1.
        -12    1    3    3    0    0  0.18653791215E+01 -0.44036237176E+01 -0.34563694624E+02  0.34892986791E+02  0.00000000000E+00 0.  1.
</event>
<event>
 7    1  0.2153242E-013  0.7246180E+02  0.7816164E-02  0.1226707E+00
        -11   -1    0    0    0    0  0.00000000000E+00  0.00000000000E+00  0.45593999997E+02  0.45594000000E+02  0.51100000000E-03 0. -1.
         11   -1    0    0    0    0 -0.00000000000E+00 -0.00000000000E+00 -0.45593999997E+02  0.45594000000E+02  0.51100000000E-03 0.  1.
    9900012    2    1    2    0    0 -0.18272979963E+02 -0.40894093748E+01 -0.21372465801E+00  0.72461795259E+02  0.70000293058E+02 0.  0.
         12    1    1    2    0    0  0.18272979963E+02  0.40894093748E+01  0.21372465801E+00  0.18726204741E+02  0.00000000000E+00 0. -1.
         11    1    3    3    0    0 -0.93170012279E+01  0.93843048121E+01 -0.23774598964E+02  0.27204838630E+02  0.51100000000E-03 0.  1.
        -11    1    3    3    0    0  0.62769341003E+01 -0.48279134092E+01 -0.66467045865E+01  0.10338632971E+02  0.51100000000E-03 0. -1.
        -12    1    3    3    0    0 -0.15232912836E+02 -0.86458007776E+01  0.30207578893E+02  0.34918323658E+02  0.00000000000E+00 0.  1.
</event>
<event>
 7    1  0.2153242E-013  0.7246163E+02  0.7816164E-02  0.1226708E+00
        -11   -1    0    0    0    0  0.00000000000E+00  0.00000000000E+00  0.45593999997E+02  0.45594000000E+02  0.51100000000E-03 0. -1.
         11   -1    0    0    0    0 -0.00000000000E+00 -0.00000000000E+00 -0.45593999997E+02  0.45594000000E+02  0.51100000000E-03 0.  1.
    9900012    2    1    2    0    0  0.17544767989E+02 -0.57817809133E+01  0.30706621802E+01  0.72461632478E+02  0.70000081006E+02 0.  0.
         12    1    1    2    0    0 -0.17544767989E+02  0.57817809133E+01 -0.30706621802E+01  0.18726367522E+02  0.00000000000E+00 0. -1.
         11    1    3    3    0    0 -0.41131436995E+01 -0.30820989002E+01 -0.39485527089E+00  0.51549195599E+01  0.51100000000E-03 0. -1.
        -11    1    3    3    0    0 -0.14707046517E+02 -0.21147543324E+02  0.60104745492E+01  0.26450739318E+02  0.51100000000E-03 0.  1.
         12    1    3    3    0    0  0.36364958206E+02  0.18447861311E+02 -0.25449570982E+01  0.40855973601E+02  0.00000000000E+00 0. -1.
</event>
<event>
 7    1  0.2153242E-013  0.7246156E+02  0.7816164E-02  0.1226708E+00
        -11   -1    0    0    0    0  0.00000000000E+00  0.00000000000E+00  0.45593999997E+02  0.45594000000E+02  0.51100000000E-03 0. -1.
         11   -1    0    0    0    0 -0.00000000000E+00 -0.00000000000E+00 -0.45593999997E+02  0.45594000000E+02  0.51100000000E-03 0.  1.
    9900012    2    1    2    0    0 -0.89385523625E+01  0.10509250446E+02 -0.12662442924E+02  0.72461560828E+02  0.69999987668E+02 0.  0.
         12    1    1    2    0    0  0.89385523625E+01 -0.10509250446E+02  0.12662442924E+02  0.18726439172E+02  0.00000000000E+00 0. -1.
         11    1    3    3    0    0 -0.20326266499E+02 -0.12576110002E+02  0.10492650927E+02  0.26103857499E+02  0.51100000000E-03 0. -1.
        -11    1    3    3    0    0 -0.54731241594E+00  0.73877114856E+01  0.70886021994E+01  0.10253102617E+02  0.51100000000E-03 0.  1.
        -12    1    3    3    0    0  0.11935026552E+02  0.15697648963E+02 -0.30243696050E+02  0.36104600712E+02  0.00000000000E+00 0.  1.
</event>
<event>
 7    1  0.2153242E-013  0.7246156E+02  0.7816164E-02  0.1226708E+00
        -11   -1    0    0    0    0  0.00000000000E+00  0.00000000000E+00  0.45593999997E+02  0.45594000000E+02  0.51100000000E-03 0.  1.
         11   -1    0    0    0    0 -0.00000000000E+00 -0.00000000000E+00 -0.45593999997E+02  0.45594000000E+02  0.51100000000E-03 0. -1.
    9900012    2    1    2    0    0  0.15682444109E+02  0.61370813466E+01  0.81900412547E+01  0.72461558895E+02  0.69999985151E+02 0.  0.
         12    1    1    2    0    0 -0.15682444109E+02 -0.61370813466E+01 -0.81900412547E+01  0.18726441105E+02  0.00000000000E+00 0. -1.
         11    1    3    3    0    0  0.66511065324E+01  0.15473163090E+02 -0.11118355762E+02  0.20181026466E+02  0.51100000000E-03 0. -1.
        -11    1    3    3    0    0 -0.59291100835E+01 -0.55804507102E+01 -0.13648491177E+02  0.15892674041E+02  0.51100000000E-03 0.  1.
        -12    1    3    3    0    0  0.14960447660E+02 -0.37556310335E+01  0.32956888194E+02  0.36387858388E+02  0.00000000000E+00 0.  1.
</event>
<event>
 7    1  0.2153242E-013  0.7246164E+02  0.7816164E-02  0.1226708E+00
        -11   -1    0    0    0    0  0.00000000000E+00  0.00000000000E+00  0.45593999997E+02  0.45594000000E+02  0.51100000000E-03 0.  1.
         11   -1    0    0    0    0 -0.00000000000E+00 -0.00000000000E+00 -0.45593999997E+02  0.45594000000E+02  0.51100000000E-03 0. -1.
    9900012    2    1    2    0    0 -0.24741738766E+01 -0.74460930897E+00  0.18547254842E+02  0.72461637791E+02  0.70000087927E+02 0.  0.
         12    1    1    2    0    0  0.24741738766E+01  0.74460930897E+00 -0.18547254842E+02  0.18726362209E+02  0.00000000000E+00 0. -1.
         11    1    3    3    0    0  0.11352566341E+02  0.67265112478E+01  0.99902869042E+01  0.16550907793E+02  0.51100000000E-03 0. -1.
        -11    1    3    3    0    0 -0.23372827720E+02  0.15506925495E+02 -0.34904978326E+01  0.28265480525E+02  0.51100000000E-03 0.  1.
         12    1    3    3    0    0  0.95460875021E+01 -0.22978046051E+02  0.12047465771E+02  0.27645249473E+02  0.00000000000E+00 0. -1.
</event>
<event>
 7    1  0.2153242E-013  0.7246152E+02  0.7816164E-02  0.1226708E+00
        -11   -1    0    0    0    0  0.00000000000E+00  0.00000000000E+00  0.45593999997E+02  0.45594000000E+02  0.51100000000E-03 0.  1.
         11   -1    0    0    0    0 -0.00000000000E+00 -0.00000000000E+00 -0.45593999997E+02  0.45594000000E+02  0.51100000000E-03 0. -1.
    9900012    2    1    2    0    0  0.83001022340E+01 -0.12599674797E+02 -0.11092237018E+02  0.72461515435E+02  0.69999928536E+02 0.  0.
         12    1    1    2    0    0 -0.83001022340E+01  0.12599674797E+02  0.11092237018E+02  0.18726484565E+02  0.00000000000E+00 0. -1.
         11    1    3    3    0    0 -0.83364933276E+01 -0.15036069648E+02  0.12301928885E+02  0.21140434385E+02  0.51100000000E-03 0. -1.
        -11    1    3    3    0    0  0.28941954003E+01  0.44675381836E+01  0.12092497586E+02  0.13212258042E+02  0.51100000000E-03 0.  1.
         12    1    3    3    0    0  0.13742400161E+02 -0.20311433334E+01 -0.35486663489E+02  0.38108823008E+02  0.00000000000E+00 0. -1.
</event>
<event>
 7    1  0.2153242E-013  0.7246157E+02  0.7816164E-02  0.1226708E+00
        -11   -1    0    0    0    0  0.00000000000E+00  0.00000000000E+00  0.45593999997E+02  0.45594000000E+02  0.51100000000E-03 0. -1.
         11   -1    0    0    0    0 -0.00000000000E+00 -0.00000000000E+00 -0.45593999997E+02  0.45594000000E+02  0.51100000000E-03 0.  1.
    9900012    2    1    2    0    0  0.14615606705E+01  0.11597912839E+02 -0.14629819461E+02  0.72461565228E+02  0.69999993400E+02 0.  0.
         12    1    1    2    0    0 -0.14615606705E+01 -0.11597912839E+02  0.14629819461E+02  0.18726434772E+02  0.00000000000E+00 0. -1.
         11    1    3    3    0    0  0.26987018615E+01 -0.18945342299E+02  0.99845176503E+01  0.21584707076E+02  0.51100000000E-03 0. -1.
        -11    1    3    3    0    0 -0.40591980445E+01 -0.41679981855E+01 -0.12870254801E+02  0.14124190473E+02  0.51100000000E-03 0.  1.
         12    1    3    3    0    0  0.28220568534E+01  0.34711253323E+02 -0.11744082311E+02  0.36752667679E+02  0.00000000000E+00 0. -1.
</event>
<event>
 7    1  0.2153242E-013  0.7246162E+02  0.7816164E-02  0.1226708E+00
        -11   -1    0    0    0    0  0.00000000000E+00  0.00000000000E+00  0.45593999997E+02  0.45594000000E+02  0.51100000000E-03 0.  1.
         11   -1    0    0    0    0 -0.00000000000E+00 -0.00000000000E+00 -0.45593999997E+02  0.45594000000E+02  0.51100000000E-03 0. -1.
    9900012    2    1    2    0    0 -0.16605045293E+02  0.32007278223E+01  0.80439607596E+01  0.72461615072E+02  0.70000058331E+02 0.  0.
         12    1    1    2    0    0  0.16605045293E+02 -0.32007278223E+01 -0.80439607596E+01  0.18726384928E+02  0.00000000000E+00 0. -1.
         11    1    3    3    0    0 -0.12764276903E+02 -0.21919423145E+02 -0.70896109722E+01  0.26337244728E+02  0.51100000000E-03 0. -1.
        -11    1    3    3    0    0 -0.16011757449E+02  0.30690111242E+01 -0.79616350869E+00  0.16322655497E+02  0.51100000000E-03 0.  1.
         12    1    3    3    0    0  0.12170989058E+02  0.22051139843E+02  0.15929735241E+02  0.29801714847E+02  0.00000000000E+00 0. -1.
</event>
<event>
 7    1  0.2153242E-013  0.7246154E+02  0.7816164E-02  0.1226708E+00
        -11   -1    0    0    0    0  0.00000000000E+00  0.00000000000E+00  0.45593999997E+02  0.45594000000E+02  0.51100000000E-03 0. -1.
         11   -1    0    0    0    0 -0.00000000000E+00 -0.00000000000E+00 -0.45593999997E+02  0.45594000000E+02  0.51100000000E-03 0.  1.
    9900012    2    1    2    0    0 -0.11615783148E+02  0.14632357060E+02 -0.12837135914E+01  0.72461542464E+02  0.69999963746E+02 0.  0.
         12    1    1    2    0    0  0.11615783148E+02 -0.14632357060E+02  0.12837135914E+01  0.18726457536E+02  0.00000000000E+00 0. -1.
         11    1    3    3    0    0 -0.13935260789E+02  0.50438042790E+01 -0.22272836327E+02  0.26752769822E+02  0.51100000000E-03 0. -1.
        -11    1    3    3    0    0 -0.95889094700E+01 -0.11427073484E+02  0.21407261144E+01  0.15070099595E+02  0.51100000000E-03 0.  1.
        -12    1    3    3    0    0  0.11908387111E+02  0.21015626265E+02  0.18848396621E+02  0.30638673047E+02  0.00000000000E+00 0.  1.
</event>
<event>
 7    1  0.2153242E-013  0.7246170E+02  0.7816164E-02  0.1226708E+00
        -11   -1    0    0    0    0  0.00000000000E+00  0.00000000000E+00  0.45593999997E+02  0.45594000000E+02  0.51100000000E-03 0.  1.
         11   -1    0    0    0    0 -0.00000000000E+00 -0.00000000000E+00 -0.45593999997E+02  0.45594000000E+02  0.51100000000E-03 0. -1.
    9900012    2    1    2    0    0 -0.72252519126E+01  0.13100469974E+02  0.11262672844E+02  0.72461698221E+02  0.70000166647E+02 0.  0.
         12    1    1    2    0    0  0.72252519126E+01 -0.13100469974E+02 -0.11262672844E+02  0.18726301779E+02  0.00000000000E+00 0. -1.
         11    1    3    3    0    0 -0.16213829105E+02  0.13925164530E+02 -0.27117120980E+00  0.21374564218E+02  0.51100000000E-03 0. -1.
        -11    1    3    3    0    0 -0.88573207795E+01 -0.16930990223E+02  0.17939009130E+02  0.26209132190E+02  0.51100000000E-03 0.  1.
         12    1    3    3    0    0  0.17845897972E+02  0.16106295667E+02 -0.64051650761E+01  0.24878001813E+02  0.00000000000E+00 0. -1.
</event>
<event>
 7    1  0.2153242E-013  0.7246158E+02  0.7816164E-02  0.1226708E+00
        -11   -1    0    0    0    0  0.00000000000E+00  0.00000000000E+00  0.45593999997E+02  0.45594000000E+02  0.51100000000E-03 0.  1.
         11   -1    0    0    0    0 -0.00000000000E+00 -0.00000000000E+00 -0.45593999997E+02  0.45594000000E+02  0.51100000000E-03 0. -1.
    9900012    2    1    2    0    0  0.39009968177E+01 -0.11460859407E+02  0.14286692667E+02  0.72461583849E+02  0.70000017657E+02 0.  0.
         12    1    1    2    0    0 -0.39009968177E+01  0.11460859407E+02 -0.14286692667E+02  0.18726416151E+02  0.00000000000E+00 0. -1.
         11    1    3    3    0    0  0.80109268361E+01  0.13553176505E+02 -0.25114346395E+01  0.15942736477E+02  0.51100000000E-03 0. -1.
        -11    1    3    3    0    0  0.93283333680E+01 -0.55572998452E+01 -0.13982805528E+02  0.17703678592E+02  0.51100000000E-03 0.  1.
        -12    1    3    3    0    0 -0.13438263386E+02 -0.19456736067E+02  0.30780932835E+02  0.38815168780E+02  0.00000000000E+00 0.  1.
</event>
<event>
 7    1  0.2153242E-013  0.7246156E+02  0.7816164E-02  0.1226708E+00
        -11   -1    0    0    0    0  0.00000000000E+00  0.00000000000E+00  0.45593999997E+02  0.45594000000E+02  0.51100000000E-03 0.  1.
         11   -1    0    0    0    0 -0.00000000000E+00 -0.00000000000E+00 -0.45593999997E+02  0.45594000000E+02  0.51100000000E-03 0. -1.
    9900012    2    1    2    0    0  0.15850195031E+02 -0.44777610329E+01  0.89106904397E+01  0.72461563326E+02  0.69999990923E+02 0.  0.
         12    1    1    2    0    0 -0.15850195031E+02  0.44777610329E+01 -0.89106904397E+01  0.18726436674E+02  0.00000000000E+00 0. -1.
         11    1    3    3    0    0  0.20409908477E+02  0.35862980076E+01  0.40213600229E+01  0.21109174170E+02  0.51100000000E-03 0. -1.
        -11    1    3    3    0    0  0.18435848533E+02  0.72159252911E+01  0.11591145860E+02  0.22941332820E+02  0.51100000000E-03 0.  1.
         12    1    3    3    0    0 -0.22995561979E+02 -0.15279984332E+02 -0.67018154429E+01  0.28411056337E+02  0.00000000000E+00 0. -1.
</event>
<event>
 7    1  0.2153242E-013  0.7246159E+02  0.7816164E-02  0.1226708E+00
        -11   -1    0    0    0    0  0.00000000000E+00  0.00000000000E+00  0.45593999997E+02  0.45594000000E+02  0.51100000000E-03 0. -1.
         11   -1    0    0    0    0 -0.00000000000E+00 -0.00000000000E+00 -0.45593999997E+02  0.45594000000E+02  0.51100000000E-03 0.  1.
    9900012    2    1    2    0    0  0.40079165297E+00  0.71060908599E+01 -0.17321121045E+02  0.72461590960E+02  0.70000026921E+02 0.  0.
         12    1    1    2    0    0 -0.40079165297E+00 -0.71060908599E+01  0.17321121045E+02  0.18726409040E+02  0.00000000000E+00 0. -1.
         11    1    3    3    0    0  0.97937727844E+01  0.17034062629E+02 -0.99239210933E+01  0.22012757327E+02  0.51100000000E-03 0. -1.
        -11    1    3    3    0    0  0.13983042874E+02 -0.83722532167E+01 -0.18388015956E+02  0.24571105856E+02  0.51100000000E-03 0.  1.
         12    1    3    3    0    0 -0.23376024005E+02 -0.15557185522E+01  0.10990816004E+02  0.25877727778E+02  0.00000000000E+00 0. -1.
</event>
<event>
 7    1  0.2153242E-013  0.7246158E+02  0.7816164E-02  0.1226708E+00
        -11   -1    0    0    0    0  0.00000000000E+00  0.00000000000E+00  0.45593999997E+02  0.45594000000E+02  0.51100000000E-03 0. -1.
         11   -1    0    0    0    0 -0.00000000000E+00 -0.00000000000E+00 -0.45593999997E+02  0.45594000000E+02  0.51100000000E-03 0.  1.
    9900012    2    1    2    0    0  0.56210343054E+01 -0.17859436980E+02  0.35123450808E+00  0.72461577982E+02  0.70000010014E+02 0.  0.
         12    1    1    2    0    0 -0.56210343054E+01  0.17859436980E+02 -0.35123450808E+00  0.18726422018E+02  0.00000000000E+00 0. -1.
         11    1    3    3    0    0 -0.33662747745E+01 -0.14460186272E+02  0.66694943917E+01  0.16276085173E+02  0.51100000000E-03 0. -1.
        -11    1    3    3    0    0  0.59642763106E+01 -0.98112925041E+01 -0.29652675451E+02  0.31798037898E+02  0.51100000000E-03 0.  1.
         12    1    3    3    0    0  0.30230327693E+01  0.64120417953E+01  0.23334415568E+02  0.24387454910E+02  0.00000000000E+00 0. -1.
</event>
<event>
 7    1  0.2153242E-013  0.7246158E+02  0.7816164E-02  0.1226708E+00
        -11   -1    0    0    0    0  0.00000000000E+00  0.00000000000E+00  0.45593999997E+02  0.45594000000E+02  0.51100000000E-03 0. -1.
         11   -1    0    0    0    0 -0.00000000000E+00 -0.00000000000E+00 -0.45593999997E+02  0.45594000000E+02  0.51100000000E-03 0.  1.
    9900012    2    1    2    0    0 -0.28305475404E+01 -0.37259964481E+01 -0.18132390727E+02  0.72461584369E+02  0.70000018335E+02 0.  0.
         12    1    1    2    0    0  0.28305475404E+01  0.37259964481E+01  0.18132390727E+02  0.18726415631E+02  0.00000000000E+00 0. -1.
         11    1    3    3    0    0 -0.60706049090E+01  0.98164813043E+01 -0.69675385843E+00  0.11562915522E+02  0.51100000000E-03 0. -1.
        -11    1    3    3    0    0 -0.64670822799E+01 -0.34181736552E+02 -0.57119855395E+01  0.35253950786E+02  0.51100000000E-03 0.  1.
         12    1    3    3    0    0  0.97071396484E+01  0.20639258800E+02 -0.11723651329E+02  0.25644718061E+02  0.00000000000E+00 0. -1.
</event>
<event>
 7    1  0.2153242E-013  0.7246157E+02  0.7816164E-02  0.1226708E+00
        -11   -1    0    0    0    0  0.00000000000E+00  0.00000000000E+00  0.45593999997E+02  0.45594000000E+02  0.51100000000E-03 0. -1.
         11   -1    0    0    0    0 -0.00000000000E+00 -0.00000000000E+00 -0.45593999997E+02  0.45594000000E+02  0.51100000000E-03 0.  1.
    9900012    2    1    2    0    0  0.23563392541E+01  0.13901070383E+02  0.12324245891E+02  0.72461571369E+02  0.70000001400E+02 0.  0.
         12    1    1    2    0    0 -0.23563392541E+01 -0.13901070383E+02 -0.12324245891E+02  0.18726428631E+02  0.00000000000E+00 0. -1.
         11    1    3    3    0    0  0.63707145994E+00  0.39442901411E+02  0.32245084115E+01  0.39579613269E+02  0.51100000000E-03 0. -1.
        -11    1    3    3    0    0 -0.73024001625E+01 -0.78684418222E+01 -0.68708389059E+00  0.10756835472E+02  0.51100000000E-03 0.  1.
        -12    1    3    3    0    0  0.90216679566E+01 -0.17673389206E+02  0.97868213705E+01  0.22125122627E+02  0.00000000000E+00 0.  1.
</event>
<event>
 7    1  0.2153242E-013  0.7246158E+02  0.7816164E-02  0.1226708E+00
        -11   -1    0    0    0    0  0.00000000000E+00  0.00000000000E+00  0.45593999997E+02  0.45594000000E+02  0.51100000000E-03 0.  1.
         11   -1    0    0    0    0 -0.00000000000E+00 -0.00000000000E+00 -0.45593999997E+02  0.45594000000E+02  0.51100000000E-03 0. -1.
    9900012    2    1    2    0    0 -0.31452737570E+01 -0.13799584565E+02  0.12262037743E+02  0.72461578805E+02  0.70000011086E+02 0.  0.
         12    1    1    2    0    0  0.31452737570E+01  0.13799584565E+02 -0.12262037743E+02  0.18726421195E+02  0.00000000000E+00 0. -1.
         11    1    3    3    0    0 -0.16662411872E+02  0.97201512048E+01  0.12105602188E+02  0.22774172069E+02  0.51100000000E-03 0. -1.
        -11    1    3    3    0    0 -0.12927192376E+02  0.77719847755E+00  0.40408914040E+01  0.13566323887E+02  0.51100000000E-03 0.  1.
         12    1    3    3    0    0  0.26444330491E+02 -0.24296934248E+02 -0.38844558488E+01  0.36121082849E+02  0.00000000000E+00 0. -1.
</event>
<event>
 7    1  0.2153242E-013  0.7246137E+02  0.7816164E-02  0.1226709E+00
        -11   -1    0    0    0    0  0.00000000000E+00  0.00000000000E+00  0.45593999997E+02  0.45594000000E+02  0.51100000000E-03 0. -1.
         11   -1    0    0    0    0 -0.00000000000E+00 -0.00000000000E+00 -0.45593999997E+02  0.45594000000E+02  0.51100000000E-03 0.  1.
    9900012    2    1    2    0    0 -0.41829871538E+01  0.31082810201E+01 -0.17986880927E+02  0.72461369820E+02  0.69999738844E+02 0.  0.
         12    1    1    2    0    0  0.41829871538E+01 -0.31082810201E+01  0.17986880927E+02  0.18726630180E+02  0.00000000000E+00 0. -1.
         11    1    3    3    0    0  0.88455797829E+01 -0.70234625397E+01  0.10108505909E+02  0.15157677913E+02  0.51100000000E-03 0. -1.
        -11    1    3    3    0    0 -0.94471897193E+01  0.29122869055E+02 -0.17057291691E+02  0.35047711704E+02  0.51100000000E-03 0.  1.
         12    1    3    3    0    0 -0.35813772173E+01 -0.18991125496E+02 -0.11038095145E+02  0.22255980203E+02  0.00000000000E+00 0. -1.
</event>
<event>
 7    1  0.2153358E-013  0.7246155E+02  0.7816164E-02  0.1226708E+00
        -11   -1    0    0    0    0  0.00000000000E+00  0.00000000000E+00  0.45593999997E+02  0.45594000000E+02  0.51100000000E-03 0.  1.
         11   -1    0    0    0    0 -0.00000000000E+00 -0.00000000000E+00 -0.45593999997E+02  0.45594000000E+02  0.51100000000E-03 0. -1.
    9900012    2    1    2    0    0 -0.14564956399E+02 -0.99933497609E+01  0.62189261969E+01  0.72461547122E+02  0.69999969814E+02 0.  0.
         12    1    1    2    0    0  0.14564956399E+02  0.99933497609E+01 -0.62189261969E+01  0.18726452878E+02  0.00000000000E+00 0. -1.
         11    1    3    3    0    0 -0.44889785360E+01 -0.16806975207E+02 -0.83778307888E+01  0.19308376236E+02  0.51100000000E-03 0. -1.
        -11    1    3    3    0    0 -0.15841157959E+02 -0.60170499600E+01  0.28639409884E+02  0.33277063789E+02  0.51100000000E-03 0.  1.
         12    1    3    3    0    0  0.57651800956E+01  0.12830675406E+02 -0.14042652898E+02  0.19876107097E+02  0.00000000000E+00 0. -1.
</event>
<event>
 7    1  0.2153242E-013  0.7246158E+02  0.7816164E-02  0.1226708E+00
        -11   -1    0    0    0    0  0.00000000000E+00  0.00000000000E+00  0.45593999997E+02  0.45594000000E+02  0.51100000000E-03 0. -1.
         11   -1    0    0    0    0 -0.00000000000E+00 -0.00000000000E+00 -0.45593999997E+02  0.45594000000E+02  0.51100000000E-03 0.  1.
    9900012    2    1    2    0    0 -0.18333130072E+02  0.36989937280E+01 -0.94474181453E+00  0.72461581497E+02  0.70000014594E+02 0.  0.
         12    1    1    2    0    0  0.18333130072E+02 -0.36989937280E+01  0.94474181453E+00  0.18726418503E+02  0.00000000000E+00 0. -1.
         11    1    3    3    0    0 -0.20485656811E+02  0.11957647717E+01  0.30559581273E+02  0.36810052923E+02  0.51100000000E-03 0. -1.
        -11    1    3    3    0    0  0.23046264006E+01 -0.68655750359E+01 -0.15443665378E+02  0.17057380338E+02  0.51100000000E-03 0.  1.
        -12    1    3    3    0    0 -0.15209966182E+00  0.93688039922E+01 -0.16060657710E+02  0.18594148236E+02  0.00000000000E+00 0.  1.
</event>
<event>
 7    1  0.2153242E-013  0.7246162E+02  0.7816164E-02  0.1226708E+00
        -11   -1    0    0    0    0  0.00000000000E+00  0.00000000000E+00  0.45593999997E+02  0.45594000000E+02  0.51100000000E-03 0.  1.
         11   -1    0    0    0    0 -0.00000000000E+00 -0.00000000000E+00 -0.45593999997E+02  0.45594000000E+02  0.51100000000E-03 0. -1.
    9900012    2    1    2    0    0 -0.37263157269E+01 -0.99711080914E+01 -0.15406783761E+02  0.72461617239E+02  0.70000061154E+02 0.  0.
         12    1    1    2    0    0  0.37263157269E+01  0.99711080914E+01  0.15406783761E+02  0.18726382761E+02  0.00000000000E+00 0. -1.
         11    1    3    3    0    0  0.33783551347E+01 -0.92347103410E+01 -0.28204708876E+02  0.29869696375E+02  0.51100000000E-03 0. -1.
        -11    1    3    3    0    0 -0.21302594223E+02 -0.59731350677E+01 -0.95289982434E+00  0.22144680659E+02  0.51100000000E-03 0.  1.
        -12    1    3    3    0    0  0.14197923361E+02  0.52367373173E+01  0.13750824939E+02  0.20447240205E+02  0.00000000000E+00 0.  1.
</event>
<event>
 7    1  0.2153242E-013  0.7246156E+02  0.7816164E-02  0.1226708E+00
        -11   -1    0    0    0    0  0.00000000000E+00  0.00000000000E+00  0.45593999997E+02  0.45594000000E+02  0.51100000000E-03 0.  1.
         11   -1    0    0    0    0 -0.00000000000E+00 -0.00000000000E+00 -0.45593999997E+02  0.45594000000E+02  0.51100000000E-03 0. -1.
    9900012    2    1    2    0    0  0.18475037579E+02 -0.29678023804E+01  0.73797996891E+00  0.72461562032E+02  0.69999989237E+02 0.  0.
         12    1    1    2    0    0 -0.18475037579E+02  0.29678023804E+01 -0.73797996891E+00  0.18726437968E+02  0.00000000000E+00 0. -1.
         11    1    3    3    0    0 -0.14091978020E+02 -0.94443054577E+01  0.25884599459E+01  0.17160386803E+02  0.51100000000E-03 0. -1.
        -11    1    3    3    0    0 -0.37265629227E+01  0.47936031922E+01  0.14303832152E+02  0.15539160764E+02  0.51100000000E-03 0.  1.
         12    1    3    3    0    0  0.36293578522E+02  0.16828998851E+01 -0.16154312129E+02  0.39762014465E+02  0.00000000000E+00 0. -1.
</event>
<event>
 7    1  0.2386978E-013  0.7246157E+02  0.7816164E-02  0.1226708E+00
        -11   -1    0    0    0    0  0.00000000000E+00  0.00000000000E+00  0.45593999997E+02  0.45594000000E+02  0.51100000000E-03 0.  1.
         11   -1    0    0    0    0 -0.00000000000E+00 -0.00000000000E+00 -0.45593999997E+02  0.45594000000E+02  0.51100000000E-03 0. -1.
    9900012    2    1    2    0    0  0.16418690803E+02 -0.11677798526E+01  0.89298342937E+01  0.72461573272E+02  0.70000003880E+02 0.  0.
         12    1    1    2    0    0 -0.16418690803E+02  0.11677798526E+01 -0.89298342937E+01  0.18726426728E+02  0.00000000000E+00 0. -1.
         11    1    3    3    0    0  0.93597343610E+01  0.13603108520E+02  0.10897016067E+02  0.19783683887E+02  0.51100000000E-03 0. -1.
        -11    1    3    3    0    0  0.10507858145E+02 -0.16441588456E+02  0.21422139554E+02  0.28976697139E+02  0.51100000000E-03 0.  1.
         12    1    3    3    0    0 -0.34489017026E+01  0.16707000836E+01 -0.23389321328E+02  0.23701192246E+02  0.00000000000E+00 0. -1.
</event>
<event>
 7    1  0.2153242E-013  0.7246155E+02  0.7816164E-02  0.1226708E+00
        -11   -1    0    0    0    0  0.00000000000E+00  0.00000000000E+00  0.45593999997E+02  0.45594000000E+02  0.51100000000E-03 0.  1.
         11   -1    0    0    0    0 -0.00000000000E+00 -0.00000000000E+00 -0.45593999997E+02  0.45594000000E+02  0.51100000000E-03 0. -1.
    9900012    2    1    2    0    0 -0.63907128946E+01  0.12119682532E+02  0.12765271747E+02  0.72461546017E+02  0.69999968375E+02 0.  0.
         12    1    1    2    0    0  0.63907128946E+01 -0.12119682532E+02 -0.12765271747E+02  0.18726453983E+02  0.00000000000E+00 0. -1.
         11    1    3    3    0    0  0.10130168213E+02  0.15912809352E+02 -0.13825425075E+02  0.23387607579E+02  0.51100000000E-03 0. -1.
        -11    1    3    3    0    0 -0.33534333876E+01  0.15400962640E+02  0.18789141162E+02  0.24524823987E+02  0.51100000000E-03 0.  1.
         12    1    3    3    0    0 -0.13167447720E+02 -0.19194089460E+02  0.78015556603E+01  0.24549114452E+02  0.00000000000E+00 0. -1.
</event>
<event>
 7    1  0.2153242E-013  0.7246161E+02  0.7816164E-02  0.1226708E+00
        -11   -1    0    0    0    0  0.00000000000E+00  0.00000000000E+00  0.45593999997E+02  0.45594000000E+02  0.51100000000E-03 0. -1.
         11   -1    0    0    0    0 -0.00000000000E+00 -0.00000000000E+00 -0.45593999997E+02  0.45594000000E+02  0.51100000000E-03 0.  1.
    9900012    2    1    2    0    0  0.17451602739E+02  0.30347862350E+01 -0.60752898241E+01  0.72461614548E+02  0.70000057649E+02 0.  0.
         12    1    1    2    0    0 -0.17451602739E+02 -0.30347862350E+01  0.60752898241E+01  0.18726385452E+02  0.00000000000E+00 0. -1.
         11    1    3    3    0    0  0.13108216954E+01  0.10535528676E+01  0.19649836669E+02  0.19721671038E+02  0.51100000000E-03 0. -1.
        -11    1    3    3    0    0 -0.13389129431E+02  0.12708653764E+00  0.21424031547E+00  0.13391446415E+02  0.51100000000E-03 0.  1.
        -12    1    3    3    0    0  0.29529910475E+02  0.18541468298E+01 -0.25939366809E+02  0.39348497094E+02  0.00000000000E+00 0.  1.
</event>
<event>
 7    1  0.2153242E-013  0.7246166E+02  0.7816164E-02  0.1226708E+00
        -11   -1    0    0    0    0  0.00000000000E+00  0.00000000000E+00  0.45593999997E+02  0.45594000000E+02  0.51100000000E-03 0. -1.
         11   -1    0    0    0    0 -0.00000000000E+00 -0.00000000000E+00 -0.45593999997E+02  0.45594000000E+02  0.51100000000E-03 0.  1.
    9900012    2    1    2    0    0 -0.12288285266E+02 -0.13857151374E+02  0.27664624866E+01  0.72461657226E+02  0.70000113245E+02 0.  0.
         12    1    1    2    0    0  0.12288285266E+02  0.13857151374E+02 -0.27664624866E+01  0.18726342774E+02  0.00000000000E+00 0. -1.
         11    1    3    3    0    0  0.24741534581E+01 -0.16802500209E+02 -0.67416671144E+00  0.16997057087E+02  0.51100000000E-03 0. -1.
        -11    1    3    3    0    0  0.11730015875E+02 -0.11842901681E+02  0.15551000895E+02  0.22796517756E+02  0.51100000000E-03 0.  1.
        -12    1    3    3    0    0 -0.26492454599E+02  0.14788250515E+02 -0.12110371697E+02  0.32668082384E+02  0.00000000000E+00 0.  1.
</event>
<event>
 7    1  0.2153242E-013  0.7246163E+02  0.7816164E-02  0.1226708E+00
        -11   -1    0    0    0    0  0.00000000000E+00  0.00000000000E+00  0.45593999997E+02  0.45594000000E+02  0.51100000000E-03 0.  1.
         11   -1    0    0    0    0 -0.00000000000E+00 -0.00000000000E+00 -0.45593999997E+02  0.45594000000E+02  0.51100000000E-03 0. -1.
    9900012    2    1    2    0    0 -0.10774892947E+02 -0.56402451508E+01  0.14239603899E+02  0.72461628153E+02  0.70000075371E+02 0.  0.
         12    1    1    2    0    0  0.10774892947E+02  0.56402451508E+01 -0.14239603899E+02  0.18726371847E+02  0.00000000000E+00 0. -1.
         11    1    3    3    0    0 -0.10935253666E+02  0.19797370742E+02  0.13270330637E+02  0.26222458629E+02  0.51100000000E-03 0.  1.
        -11    1    3    3    0    0 -0.16100655979E+02 -0.32354467698E+01 -0.65967850259E+01  0.17697932413E+02  0.51100000000E-03 0. -1.
        -12    1    3    3    0    0  0.16261016698E+02 -0.22202169123E+02  0.75660582875E+01  0.28541237111E+02  0.00000000000E+00 0.  1.
</event>
<event>
 7    1  0.2153242E-013  0.7246156E+02  0.7816164E-02  0.1226708E+00
        -11   -1    0    0    0    0  0.00000000000E+00  0.00000000000E+00  0.45593999997E+02  0.45594000000E+02  0.51100000000E-03 0. -1.
         11   -1    0    0    0    0 -0.00000000000E+00 -0.00000000000E+00 -0.45593999997E+02  0.45594000000E+02  0.51100000000E-03 0.  1.
    9900012    2    1    2    0    0  0.12807445080E+01  0.13166398645E+02 -0.13254634988E+02  0.72461555905E+02  0.69999981255E+02 0.  0.
         12    1    1    2    0    0 -0.12807445080E+01 -0.13166398645E+02  0.13254634988E+02  0.18726444095E+02  0.00000000000E+00 0. -1.
         11    1    3    3    0    0 -0.60870907315E+01 -0.92936203244E+01 -0.85755574326E+01  0.14034394816E+02  0.51100000000E-03 0. -1.
        -11    1    3    3    0    0 -0.95087076762E+01 -0.88582481795E+01 -0.16441340690E+02  0.20957141179E+02  0.51100000000E-03 0.  1.
         12    1    3    3    0    0  0.16876542916E+02  0.31318267149E+02  0.11762263134E+02  0.37470019910E+02  0.00000000000E+00 0. -1.
</event>
<event>
 7    1  0.2153242E-013  0.7246148E+02  0.7816164E-02  0.1226708E+00
        -11   -1    0    0    0    0  0.00000000000E+00  0.00000000000E+00  0.45593999997E+02  0.45594000000E+02  0.51100000000E-03 0. -1.
         11   -1    0    0    0    0 -0.00000000000E+00 -0.00000000000E+00 -0.45593999997E+02  0.45594000000E+02  0.51100000000E-03 0.  1.
    9900012    2    1    2    0    0 -0.13355485277E+02 -0.12763154326E+02 -0.30684881450E+01  0.72461475634E+02  0.69999876687E+02 0.  0.
         12    1    1    2    0    0  0.13355485277E+02  0.12763154326E+02  0.30684881450E+01  0.18726524366E+02  0.00000000000E+00 0. -1.
         11    1    3    3    0    0  0.13715622082E+01  0.19841632427E+02 -0.70499143596E+01  0.21101489355E+02  0.51100000000E-03 0. -1.
        -11    1    3    3    0    0 -0.18436386596E+02 -0.52559974405E+01  0.12003219731E+02  0.22618645936E+02  0.51100000000E-03 0.  1.
         12    1    3    3    0    0  0.37093391104E+01 -0.27348789313E+02 -0.80217935161E+01  0.28741340343E+02  0.00000000000E+00 0. -1.
</event>
<event>
 7    1  0.2153242E-013  0.7246129E+02  0.7816164E-02  0.1226709E+00
        -11   -1    0    0    0    0  0.00000000000E+00  0.00000000000E+00  0.45593999997E+02  0.45594000000E+02  0.51100000000E-03 0.  1.
         11   -1    0    0    0    0 -0.00000000000E+00 -0.00000000000E+00 -0.45593999997E+02  0.45594000000E+02  0.51100000000E-03 0. -1.
    9900012    2    1    2    0    0  0.48110966970E+01  0.42564516922E+01  0.17590503048E+02  0.72461285662E+02  0.69999629212E+02 0.  0.
         12    1    1    2    0    0 -0.48110966970E+01 -0.42564516922E+01 -0.17590503048E+02  0.18726714338E+02  0.00000000000E+00 0. -1.
         11    1    3    3    0    0 -0.58613439404E+01 -0.11221614498E+01 -0.16240620450E+02  0.17302379951E+02  0.51100000000E-03 0. -1.
        -11    1    3    3    0    0  0.15643331775E+02 -0.15228806183E+02  0.12849054879E+02  0.25332362273E+02  0.51100000000E-03 0.  1.
        -12    1    3    3    0    0 -0.49708911373E+01  0.20607419325E+02  0.20982068619E+02  0.29826543438E+02  0.00000000000E+00 0.  1.
</event>
<event>
 7    1  0.2153242E-013  0.7246153E+02  0.7816164E-02  0.1226708E+00
        -11   -1    0    0    0    0  0.00000000000E+00  0.00000000000E+00  0.45593999997E+02  0.45594000000E+02  0.51100000000E-03 0.  1.
         11   -1    0    0    0    0 -0.00000000000E+00 -0.00000000000E+00 -0.45593999997E+02  0.45594000000E+02  0.51100000000E-03 0. -1.
    9900012    2    1    2    0    0  0.16159572375E+02 -0.94575750125E+01 -0.32148039027E+00  0.72461525315E+02  0.69999941407E+02 0.  0.
         12    1    1    2    0    0 -0.16159572375E+02  0.94575750125E+01  0.32148039027E+00  0.18726474685E+02  0.00000000000E+00 0. -1.
         11    1    3    3    0    0  0.71070222644E+01  0.64350969152E+01 -0.12098052741E+02  0.15436421805E+02  0.51100000000E-03 0. -1.
        -11    1    3    3    0    0  0.28350710334E+02  0.27342135478E+01  0.22843773643E+01  0.28573713101E+02  0.51100000000E-03 0.  1.
        -12    1    3    3    0    0 -0.19298160223E+02 -0.18626885475E+02  0.94921949864E+01  0.28451390409E+02  0.00000000000E+00 0.  1.
</event>
<event>
 7    1  0.2153242E-013  0.7246201E+02  0.7816164E-02  0.1226707E+00
        -11   -1    0    0    0    0  0.00000000000E+00  0.00000000000E+00  0.45593999997E+02  0.45594000000E+02  0.51100000000E-03 0.  1.
         11   -1    0    0    0    0 -0.00000000000E+00 -0.00000000000E+00 -0.45593999997E+02  0.45594000000E+02  0.51100000000E-03 0. -1.
    9900012    2    1    2    0    0  0.10907645938E+02 -0.14829412385E+02  0.34314180911E+01  0.72462006256E+02  0.70000567919E+02 0.  0.
         12    1    1    2    0    0 -0.10907645938E+02  0.14829412385E+02 -0.34314180911E+01  0.18725993744E+02  0.00000000000E+00 0. -1.
         11    1    3    3    0    0  0.30195562279E+02 -0.82498097487E+01  0.25419085890E+01  0.31405296396E+02  0.51100000000E-03 0. -1.
        -11    1    3    3    0    0  0.42030072224E+01  0.10954684073E+02  0.33444166107E+00  0.11738067317E+02  0.51100000000E-03 0.  1.
        -12    1    3    3    0    0 -0.23490923563E+02 -0.17534286709E+02  0.55506784097E+00  0.29318642543E+02  0.00000000000E+00 0.  1.
</event>
<event>
 7    1  0.2153242E-013  0.7246189E+02  0.7816164E-02  0.1226707E+00
        -11   -1    0    0    0    0  0.00000000000E+00  0.00000000000E+00  0.45593999997E+02  0.45594000000E+02  0.51100000000E-03 0.  1.
         11   -1    0    0    0    0 -0.00000000000E+00 -0.00000000000E+00 -0.45593999997E+02  0.45594000000E+02  0.51100000000E-03 0. -1.
    9900012    2    1    2    0    0  0.36995263229E+01  0.11240014925E+02  0.14513543131E+02  0.72461885488E+02  0.70000410596E+02 0.  0.
         12    1    1    2    0    0 -0.36995263229E+01 -0.11240014925E+02 -0.14513543131E+02  0.18726114512E+02  0.00000000000E+00 0. -1.
         11    1    3    3    0    0 -0.12739347480E+02 -0.13001462726E+02 -0.10413114937E+02  0.20970502383E+02  0.51100000000E-03 0. -1.
        -11    1    3    3    0    0  0.56697875260E+01 -0.78685930405E+01  0.45810646506E+00  0.97093310182E+01  0.51100000000E-03 0.  1.
        -12    1    3    3    0    0  0.10769086277E+02  0.32110070691E+02  0.24468551603E+02  0.41782052087E+02  0.00000000000E+00 0.  1.
</event>
<event>
 7    1  0.2153242E-013  0.7246157E+02  0.7816164E-02  0.1226708E+00
        -11   -1    0    0    0    0  0.00000000000E+00  0.00000000000E+00  0.45593999997E+02  0.45594000000E+02  0.51100000000E-03 0.  1.
         11   -1    0    0    0    0 -0.00000000000E+00 -0.00000000000E+00 -0.45593999997E+02  0.45594000000E+02  0.51100000000E-03 0. -1.
    9900012    2    1    2    0    0 -0.12607041704E+02 -0.12319036949E+02 -0.63231993875E+01  0.72461574223E+02  0.70000005118E+02 0.  0.
         12    1    1    2    0    0  0.12607041704E+02  0.12319036949E+02  0.63231993875E+01  0.18726425777E+02  0.00000000000E+00 0. -1.
         11    1    3    3    0    0  0.36564548768E+00  0.54666553127E+01 -0.54803211122E+01  0.77493184658E+01  0.51100000000E-03 0. -1.
        -11    1    3    3    0    0 -0.23572692452E+02  0.16364240954E+02 -0.32201546420E+01  0.28876107903E+02  0.51100000000E-03 0.  1.
        -12    1    3    3    0    0  0.10600005259E+02 -0.34149933216E+02  0.23772763667E+01  0.35836147855E+02  0.00000000000E+00 0.  1.
</event>
<event>
 7    1  0.2153242E-013  0.7246158E+02  0.7816164E-02  0.1226708E+00
        -11   -1    0    0    0    0  0.00000000000E+00  0.00000000000E+00  0.45593999997E+02  0.45594000000E+02  0.51100000000E-03 0.  1.
         11   -1    0    0    0    0 -0.00000000000E+00 -0.00000000000E+00 -0.45593999997E+02  0.45594000000E+02  0.51100000000E-03 0. -1.
    9900012    2    1    2    0    0  0.11744414758E+02 -0.14577707313E+02  0.48793710922E+00  0.72461577194E+02  0.70000008987E+02 0.  0.
         12    1    1    2    0    0 -0.11744414758E+02  0.14577707313E+02 -0.48793710922E+00  0.18726422806E+02  0.00000000000E+00 0. -1.
         11    1    3    3    0    0  0.46891384742E+01 -0.95840176479E+01 -0.23620496394E+02  0.25918511996E+02  0.51100000000E-03 0. -1.
        -11    1    3    3    0    0 -0.37205121970E+01  0.11745079574E+02 -0.32185825660E+01  0.12733749613E+02  0.51100000000E-03 0.  1.
        -12    1    3    3    0    0  0.10775788481E+02 -0.16738769239E+02  0.27327016070E+02  0.33809315584E+02  0.00000000000E+00 0.  1.
</event>
<event>
 7    1  0.2153242E-013  0.7246155E+02  0.7816164E-02  0.1226708E+00
        -11   -1    0    0    0    0  0.00000000000E+00  0.00000000000E+00  0.45593999997E+02  0.45594000000E+02  0.51100000000E-03 0.  1.
         11   -1    0    0    0    0 -0.00000000000E+00 -0.00000000000E+00 -0.45593999997E+02  0.45594000000E+02  0.51100000000E-03 0. -1.
    9900012    2    1    2    0    0  0.44244749453E+01  0.14628063581E+02  0.10822362811E+02  0.72461554542E+02  0.69999979480E+02 0.  0.
         12    1    1    2    0    0 -0.44244749453E+01 -0.14628063581E+02 -0.10822362811E+02  0.18726445458E+02  0.00000000000E+00 0. -1.
         11    1    3    3    0    0  0.60048654950E+01  0.19813316378E+02 -0.79752046464E+01  0.22186252611E+02  0.51100000000E-03 0. -1.
        -11    1    3    3    0    0 -0.14000560322E+02  0.11576979248E+02  0.22675739549E+02  0.29055658695E+02  0.51100000000E-03 0.  1.
        -12    1    3    3    0    0  0.12420169772E+02 -0.16762232045E+02 -0.38781720913E+01  0.21219643237E+02  0.00000000000E+00 0.  1.
</event>
<event>
 7    1  0.2153242E-013  0.7246184E+02  0.7816164E-02  0.1226707E+00
        -11   -1    0    0    0    0  0.00000000000E+00  0.00000000000E+00  0.45593999997E+02  0.45594000000E+02  0.51100000000E-03 0.  1.
         11   -1    0    0    0    0 -0.00000000000E+00 -0.00000000000E+00 -0.45593999997E+02  0.45594000000E+02  0.51100000000E-03 0. -1.
    9900012    2    1    2    0    0  0.17281016482E+02 -0.23196270861E+01  0.68304303514E+01  0.72461842378E+02  0.70000354439E+02 0.  0.
         12    1    1    2    0    0 -0.17281016482E+02  0.23196270861E+01 -0.68304303514E+01  0.18726157622E+02  0.00000000000E+00 0. -1.
         11    1    3    3    0    0  0.66638563608E+01  0.28371153432E+01  0.92051262709E+01  0.11712837188E+02  0.51100000000E-03 0. -1.
        -11    1    3    3    0    0  0.25503635822E+02  0.30713724036E+01  0.20062049977E+02  0.32593781894E+02  0.51100000000E-03 0.  1.
         12    1    3    3    0    0 -0.14886475701E+02 -0.82281148329E+01 -0.22436745896E+02  0.28155223297E+02  0.00000000000E+00 0. -1.
</event>
<event>
 7    1  0.2153242E-013  0.7246155E+02  0.7816164E-02  0.1226708E+00
        -11   -1    0    0    0    0  0.00000000000E+00  0.00000000000E+00  0.45593999997E+02  0.45594000000E+02  0.51100000000E-03 0.  1.
         11   -1    0    0    0    0 -0.00000000000E+00 -0.00000000000E+00 -0.45593999997E+02  0.45594000000E+02  0.51100000000E-03 0. -1.
    9900012    2    1    2    0    0 -0.17919521660E+02  0.55586081285E+00  0.54094193177E+01  0.72461546649E+02  0.69999969197E+02 0.  0.
         12    1    1    2    0    0  0.17919521660E+02 -0.55586081285E+00 -0.54094193177E+01  0.18726453351E+02  0.00000000000E+00 0. -1.
         11    1    3    3    0    0  0.33975728147E+01 -0.24119491207E+02  0.85303227612E+01  0.25808133675E+02  0.51100000000E-03 0. -1.
        -11    1    3    3    0    0 -0.12894354124E+02 -0.49778876970E+01  0.51281899081E+01  0.14742525774E+02  0.51100000000E-03 0.  1.
        -12    1    3    3    0    0 -0.84227403510E+01  0.29653239717E+02 -0.82490933516E+01  0.31910887200E+02  0.00000000000E+00 0.  1.
</event>
<event>
 7    1  0.2698854E-013  0.7246151E+02  0.7816164E-02  0.1226708E+00
        -11   -1    0    0    0    0  0.00000000000E+00  0.00000000000E+00  0.45593999997E+02  0.45594000000E+02  0.51100000000E-03 0. -1.
         11   -1    0    0    0    0 -0.00000000000E+00 -0.00000000000E+00 -0.45593999997E+02  0.45594000000E+02  0.51100000000E-03 0.  1.
    9900012    2    1    2    0    0 -0.43486517066E+01 -0.45983227888E+01 -0.17624588350E+02  0.72461509175E+02  0.69999920380E+02 0.  0.
         12    1    1    2    0    0  0.43486517066E+01  0.45983227888E+01  0.17624588350E+02  0.18726490825E+02  0.00000000000E+00 0. -1.
         11    1    3    3    0    0 -0.16819115177E+02  0.17202160936E+01 -0.14483661610E+02  0.22262484872E+02  0.51100000000E-03 0. -1.
        -11    1    3    3    0    0  0.24742462792E+02 -0.85031049104E+01 -0.17276673094E+02  0.31352443152E+02  0.51100000000E-03 0.  1.
         12    1    3    3    0    0 -0.12271999322E+02  0.21845660280E+01  0.14135746354E+02  0.18846581151E+02  0.00000000000E+00 0. -1.
</event>
<event>
 7    1  0.2153242E-013  0.7246154E+02  0.7816164E-02  0.1226708E+00
        -11   -1    0    0    0    0  0.00000000000E+00  0.00000000000E+00  0.45593999997E+02  0.45594000000E+02  0.51100000000E-03 0. -1.
         11   -1    0    0    0    0 -0.00000000000E+00 -0.00000000000E+00 -0.45593999997E+02  0.45594000000E+02  0.51100000000E-03 0.  1.
    9900012    2    1    2    0    0 -0.11395893851E+02  0.11892480282E+02 -0.89096940806E+01  0.72461544581E+02  0.69999966504E+02 0.  0.
         12    1    1    2    0    0  0.11395893851E+02 -0.11892480282E+02  0.89096940806E+01  0.18726455419E+02  0.00000000000E+00 0. -1.
         11    1    3    3    0    0 -0.21193444527E+02  0.22905458710E+02  0.16860236416E+01  0.31251636847E+02  0.51100000000E-03 0. -1.
        -11    1    3    3    0    0  0.11009081895E+02  0.21546784606E+01 -0.21381533779E+02  0.24145651999E+02  0.51100000000E-03 0.  1.
        -12    1    3    3    0    0 -0.12115312189E+01 -0.13167656888E+02  0.10785816057E+02  0.17064255736E+02  0.00000000000E+00 0.  1.
</event>
<event>
 7    1  0.2153242E-013  0.7246157E+02  0.7816164E-02  0.1226708E+00
        -11   -1    0    0    0    0  0.00000000000E+00  0.00000000000E+00  0.45593999997E+02  0.45594000000E+02  0.51100000000E-03 0.  1.
         11   -1    0    0    0    0 -0.00000000000E+00 -0.00000000000E+00 -0.45593999997E+02  0.45594000000E+02  0.51100000000E-03 0. -1.
    9900012    2    1    2    0    0 -0.17947313959E+02 -0.23098704843E+01 -0.48205563940E+01  0.72461565637E+02  0.69999993933E+02 0.  0.
         12    1    1    2    0    0  0.17947313959E+02  0.23098704843E+01  0.48205563940E+01  0.18726434363E+02  0.00000000000E+00 0. -1.
         11    1    3    3    0    0 -0.29755599969E+01 -0.33578326442E+02  0.63206557200E+01  0.34297356355E+02  0.51100000000E-03 0.  1.
        -11    1    3    3    0    0 -0.71079396354E+01  0.13778730190E+02 -0.10960499388E+02  0.18987068194E+02  0.51100000000E-03 0. -1.
        -12    1    3    3    0    0 -0.78638143271E+01  0.17489725768E+02 -0.18071272571E+00  0.19177141088E+02  0.00000000000E+00 0.  1.
</event>
<event>
 7    1  0.2153242E-013  0.7246165E+02  0.7816164E-02  0.1226708E+00
        -11   -1    0    0    0    0  0.00000000000E+00  0.00000000000E+00  0.45593999997E+02  0.45594000000E+02  0.51100000000E-03 0.  1.
         11   -1    0    0    0    0 -0.00000000000E+00 -0.00000000000E+00 -0.45593999997E+02  0.45594000000E+02  0.51100000000E-03 0. -1.
    9900012    2    1    2    0    0  0.67929491927E+01 -0.25698301161E+01  0.17260592109E+02  0.72461648901E+02  0.70000102399E+02 0.  0.
         12    1    1    2    0    0 -0.67929491927E+01  0.25698301161E+01 -0.17260592109E+02  0.18726351099E+02  0.00000000000E+00 0. -1.
         11    1    3    3    0    0 -0.14887655061E+02 -0.16712991184E+02 -0.87417102730E+01  0.24028812835E+02  0.51100000000E-03 0. -1.
        -11    1    3    3    0    0  0.10984302053E+02 -0.93237952914E+01  0.52646285199E+01  0.15339633762E+02  0.51100000000E-03 0.  1.
        -12    1    3    3    0    0  0.10696302200E+02  0.23466956359E+02  0.20737673862E+02  0.33093202303E+02  0.00000000000E+00 0.  1.
</event>
<event>
 7    1  0.2153242E-013  0.7246165E+02  0.7816164E-02  0.1226708E+00
        -11   -1    0    0    0    0  0.00000000000E+00  0.00000000000E+00  0.45593999997E+02  0.45594000000E+02  0.51100000000E-03 0.  1.
         11   -1    0    0    0    0 -0.00000000000E+00 -0.00000000000E+00 -0.45593999997E+02  0.45594000000E+02  0.51100000000E-03 0. -1.
    9900012    2    1    2    0    0  0.41016052725E+01  0.12930264432E+02  0.12909739459E+02  0.72461647526E+02  0.70000100608E+02 0.  0.
         12    1    1    2    0    0 -0.41016052725E+01 -0.12930264432E+02 -0.12909739459E+02  0.18726352474E+02  0.00000000000E+00 0. -1.
         11    1    3    3    0    0 -0.26033580763E+02  0.18830614218E+01  0.29839492679E+01  0.26271604465E+02  0.51100000000E-03 0. -1.
        -11    1    3    3    0    0 -0.42583919753E+01  0.40692876307E+01  0.93986593621E+01  0.11091789851E+02  0.51100000000E-03 0.  1.
        -12    1    3    3    0    0  0.34393578011E+02  0.69779153797E+01  0.52713082863E+00  0.35098253210E+02  0.00000000000E+00 0.  1.
</event>
<event>
 7    1  0.2153242E-013  0.7246161E+02  0.7816164E-02  0.1226708E+00
        -11   -1    0    0    0    0  0.00000000000E+00  0.00000000000E+00  0.45593999997E+02  0.45594000000E+02  0.51100000000E-03 0. -1.
         11   -1    0    0    0    0 -0.00000000000E+00 -0.00000000000E+00 -0.45593999997E+02  0.45594000000E+02  0.51100000000E-03 0.  1.
    9900012    2    1    2    0    0 -0.36523986108E+01  0.12833165025E+01 -0.18321867919E+02  0.72461607905E+02  0.70000048995E+02 0.  0.
         12    1    1    2    0    0  0.36523986108E+01 -0.12833165025E+01  0.18321867919E+02  0.18726392095E+02  0.00000000000E+00 0. -1.
         11    1    3    3    0    0  0.15625312410E+02  0.90247252301E+01 -0.13267815388E+01  0.18092993199E+02  0.51100000000E-03 0. -1.
        -11    1    3    3    0    0 -0.21214037038E+02  0.16570969916E+02 -0.12002043073E+02  0.29473402410E+02  0.51100000000E-03 0.  1.
         12    1    3    3    0    0  0.19363260174E+01 -0.24312378644E+02 -0.49930433076E+01  0.24895212296E+02  0.00000000000E+00 0. -1.
</event>
<event>
 7    1  0.2153242E-013  0.7246157E+02  0.7816164E-02  0.1226708E+00
        -11   -1    0    0    0    0  0.00000000000E+00  0.00000000000E+00  0.45593999997E+02  0.45594000000E+02  0.51100000000E-03 0. -1.
         11   -1    0    0    0    0 -0.00000000000E+00 -0.00000000000E+00 -0.45593999997E+02  0.45594000000E+02  0.51100000000E-03 0.  1.
    9900012    2    1    2    0    0 -0.94953332439E+01 -0.15909575408E+02 -0.27208807253E+01  0.72461571216E+02  0.70000001201E+02 0.  0.
         12    1    1    2    0    0  0.94953332439E+01  0.15909575408E+02  0.27208807253E+01  0.18726428784E+02  0.00000000000E+00 0. -1.
         11    1    3    3    0    0 -0.56011914412E+01  0.98859295545E+01  0.12837946672E+02  0.17144031723E+02  0.51100000000E-03 0. -1.
        -11    1    3    3    0    0 -0.15920164286E+02 -0.14264366597E+02  0.10942647595E+02  0.24013856874E+02  0.51100000000E-03 0.  1.
        -12    1    3    3    0    0  0.12026022483E+02 -0.11531138365E+02 -0.26501474992E+02  0.31303682619E+02  0.00000000000E+00 0.  1.
</event>
<event>
 7    1  0.2153242E-013  0.7246162E+02  0.7816164E-02  0.1226708E+00
        -11   -1    0    0    0    0  0.00000000000E+00  0.00000000000E+00  0.45593999997E+02  0.45594000000E+02  0.51100000000E-03 0. -1.
         11   -1    0    0    0    0 -0.00000000000E+00 -0.00000000000E+00 -0.45593999997E+02  0.45594000000E+02  0.51100000000E-03 0.  1.
    9900012    2    1    2    0    0  0.10851381053E+02 -0.15122373397E+02  0.20587824237E+01  0.72461622000E+02  0.70000067357E+02 0.  0.
         12    1    1    2    0    0 -0.10851381053E+02  0.15122373397E+02 -0.20587824237E+01  0.18726378000E+02  0.00000000000E+00 0. -1.
         11    1    3    3    0    0  0.27839121913E+01  0.28403462692E+01 -0.19487543700E+01  0.44289251375E+01  0.51100000000E-03 0. -1.
        -11    1    3    3    0    0  0.10450605859E+02 -0.18302146884E+02 -0.28494418657E+02  0.35441721717E+02  0.51100000000E-03 0.  1.
         12    1    3    3    0    0 -0.23831369975E+01  0.33942721810E+00  0.32501955451E+02  0.32590975146E+02  0.00000000000E+00 0. -1.
</event>
<event>
 7    1  0.2153242E-013  0.7246159E+02  0.7816164E-02  0.1226708E+00
        -11   -1    0    0    0    0  0.00000000000E+00  0.00000000000E+00  0.45593999997E+02  0.45594000000E+02  0.51100000000E-03 0.  1.
         11   -1    0    0    0    0 -0.00000000000E+00 -0.00000000000E+00 -0.45593999997E+02  0.45594000000E+02  0.51100000000E-03 0. -1.
    9900012    2    1    2    0    0 -0.68156193133E+01  0.11047480058E+01  0.17407051563E+02  0.72461586064E+02  0.70000020543E+02 0.  0.
         12    1    1    2    0    0  0.68156193133E+01 -0.11047480058E+01 -0.17407051563E+02  0.18726413936E+02  0.00000000000E+00 0. -1.
         11    1    3    3    0    0  0.14463637246E+02 -0.23443934964E+02  0.35603470220E+01  0.27775726096E+02  0.51100000000E-03 0. -1.
        -11    1    3    3    0    0 -0.19490257736E+02  0.31538451720E+01  0.12264524464E+01  0.19781836918E+02  0.51100000000E-03 0.  1.
        -12    1    3    3    0    0 -0.17889988236E+01  0.21394837797E+02  0.12620252095E+02  0.24904023051E+02  0.00000000000E+00 0.  1.
</event>
<event>
 7    1  0.2153242E-013  0.7246112E+02  0.7816164E-02  0.1226709E+00
        -11   -1    0    0    0    0  0.00000000000E+00  0.00000000000E+00  0.45593999997E+02  0.45594000000E+02  0.51100000000E-03 0.  1.
         11   -1    0    0    0    0 -0.00000000000E+00 -0.00000000000E+00 -0.45593999997E+02  0.45594000000E+02  0.51100000000E-03 0. -1.
    9900012    2    1    2    0    0 -0.79709820786E+01 -0.16444017605E+02 -0.40931238777E+01  0.72461122701E+02  0.69999416925E+02 0.  0.
         12    1    1    2    0    0  0.79709820786E+01  0.16444017605E+02  0.40931238777E+01  0.18726877299E+02  0.00000000000E+00 0. -1.
         11    1    3    3    0    0 -0.15427745286E+01 -0.11499600398E+01 -0.17307338080E+01  0.25880496739E+01  0.51100000000E-03 0. -1.
        -11    1    3    3    0    0 -0.34925165277E+02 -0.91200377738E+01 -0.13671530683E+02  0.38598614095E+02  0.51100000000E-03 0.  1.
        -12    1    3    3    0    0  0.28496957727E+02 -0.61740197912E+01  0.11309140613E+02  0.31274458932E+02  0.00000000000E+00 0.  1.
</event>
<event>
 7    1  0.2153242E-013  0.7246156E+02  0.7816164E-02  0.1226708E+00
        -11   -1    0    0    0    0  0.00000000000E+00  0.00000000000E+00  0.45593999997E+02  0.45594000000E+02  0.51100000000E-03 0.  1.
         11   -1    0    0    0    0 -0.00000000000E+00 -0.00000000000E+00 -0.45593999997E+02  0.45594000000E+02  0.51100000000E-03 0. -1.
    9900012    2    1    2    0    0  0.31399386130E+01  0.65085192003E+01  0.17275981301E+02  0.72461559693E+02  0.69999986189E+02 0.  0.
         12    1    1    2    0    0 -0.31399386130E+01 -0.65085192003E+01 -0.17275981301E+02  0.18726440307E+02  0.00000000000E+00 0. -1.
         11    1    3    3    0    0  0.12389292878E+02 -0.77066951723E+01  0.66828869776E+01  0.16048324122E+02  0.51100000000E-03 0. -1.
        -11    1    3    3    0    0  0.30976847418E+01  0.32882730254E+02  0.63554514404E+01  0.33634229038E+02  0.51100000000E-03 0.  1.
         12    1    3    3    0    0 -0.12347039007E+02 -0.18667515881E+02  0.42376428831E+01  0.22779006533E+02  0.00000000000E+00 0. -1.
</event>
<event>
 7    1  0.2153242E-013  0.7246157E+02  0.7816164E-02  0.1226708E+00
        -11   -1    0    0    0    0  0.00000000000E+00  0.00000000000E+00  0.45593999997E+02  0.45594000000E+02  0.51100000000E-03 0.  1.
         11   -1    0    0    0    0 -0.00000000000E+00 -0.00000000000E+00 -0.45593999997E+02  0.45594000000E+02  0.51100000000E-03 0. -1.
    9900012    2    1    2    0    0 -0.51155019084E+01 -0.13733965784E+02  0.11657148672E+02  0.72461567049E+02  0.69999995772E+02 0.  0.
         12    1    1    2    0    0  0.51155019084E+01  0.13733965784E+02 -0.11657148672E+02  0.18726432951E+02  0.00000000000E+00 0. -1.
         11    1    3    3    0    0  0.15884497723E+02 -0.10000486003E+01  0.86530139715E+01  0.18116070660E+02  0.51100000000E-03 0. -1.
        -11    1    3    3    0    0 -0.32922823181E+02 -0.76095488306E+01  0.14723899633E+02  0.36859337219E+02  0.51100000000E-03 0.  1.
         12    1    3    3    0    0  0.11922823549E+02 -0.51243683529E+01 -0.11719764933E+02  0.17486159169E+02  0.00000000000E+00 0. -1.
</event>
<event>
 7    1  0.2153242E-013  0.7246148E+02  0.7816164E-02  0.1226708E+00
        -11   -1    0    0    0    0  0.00000000000E+00  0.00000000000E+00  0.45593999997E+02  0.45594000000E+02  0.51100000000E-03 0.  1.
         11   -1    0    0    0    0 -0.00000000000E+00 -0.00000000000E+00 -0.45593999997E+02  0.45594000000E+02  0.51100000000E-03 0. -1.
    9900012    2    1    2    0    0 -0.17171121269E+02  0.74207075437E+01 -0.87653115134E+00  0.72461478355E+02  0.69999880231E+02 0.  0.
         12    1    1    2    0    0  0.17171121269E+02 -0.74207075437E+01  0.87653115134E+00  0.18726521645E+02  0.00000000000E+00 0. -1.
         11    1    3    3    0    0 -0.13865162761E+02 -0.87566014677E+01  0.17087882599E+01  0.16487594283E+02  0.51100000000E-03 0. -1.
        -11    1    3    3    0    0 -0.79728679796E+01 -0.92707246651E+01  0.18786920579E+02  0.22415649550E+02  0.51100000000E-03 0.  1.
         12    1    3    3    0    0  0.46669094717E+01  0.25448033677E+02 -0.21372239991E+02  0.33558234522E+02  0.00000000000E+00 0. -1.
</event>
<event>
 7    1  0.2153242E-013  0.7246163E+02  0.7816164E-02  0.1226708E+00
        -11   -1    0    0    0    0  0.00000000000E+00  0.00000000000E+00  0.45593999997E+02  0.45594000000E+02  0.51100000000E-03 0.  1.
         11   -1    0    0    0    0 -0.00000000000E+00 -0.00000000000E+00 -0.45593999997E+02  0.45594000000E+02  0.51100000000E-03 0. -1.
    9900012    2    1    2    0    0  0.61380393694E-01  0.55834463463E+01  0.17874512898E+02  0.72461632173E+02  0.70000080608E+02 0.  0.
         12    1    1    2    0    0 -0.61380393694E-01 -0.55834463463E+01 -0.17874512898E+02  0.18726367827E+02  0.00000000000E+00 0. -1.
         11    1    3    3    0    0 -0.13141800402E+02  0.32830407894E+02  0.94078932625E+01  0.36593046555E+02  0.51100000000E-03 0. -1.
        -11    1    3    3    0    0  0.18288584208E+01 -0.15421848823E-01 -0.35586050717E+01  0.40010787638E+01  0.51100000000E-03 0.  1.
        -12    1    3    3    0    0  0.11374322375E+02 -0.27231539699E+02  0.12025224707E+02  0.31867506854E+02  0.00000000000E+00 0.  1.
</event>
<event>
 7    1  0.2496598E-013  0.7246148E+02  0.7816164E-02  0.1226708E+00
        -11   -1    0    0    0    0  0.00000000000E+00  0.00000000000E+00  0.45593999997E+02  0.45594000000E+02  0.51100000000E-03 0. -1.
         11   -1    0    0    0    0 -0.00000000000E+00 -0.00000000000E+00 -0.45593999997E+02  0.45594000000E+02  0.51100000000E-03 0.  1.
    9900012    2    1    2    0    0 -0.98037631309E+01  0.40166857573E+01 -0.15441336886E+02  0.72461483484E+02  0.69999886913E+02 0.  0.
         12    1    1    2    0    0  0.98037631309E+01 -0.40166857573E+01  0.15441336886E+02  0.18726516516E+02  0.00000000000E+00 0. -1.
         11    1    3    3    0    0 -0.72971243996E+00 -0.53809192736E+01 -0.36726114157E+01  0.65555203718E+01  0.51100000000E-03 0. -1.
        -11    1    3    3    0    0 -0.21253963055E+02 -0.18723881971E+02 -0.19390597490E+02  0.34326519965E+02  0.51100000000E-03 0.  1.
         12    1    3    3    0    0  0.12179912364E+02  0.28121487002E+02  0.76218720197E+01  0.31579443147E+02  0.00000000000E+00 0. -1.
</event>
<event>
 7    1  0.2153242E-013  0.7246152E+02  0.7816164E-02  0.1226708E+00
        -11   -1    0    0    0    0  0.00000000000E+00  0.00000000000E+00  0.45593999997E+02  0.45594000000E+02  0.51100000000E-03 0. -1.
         11   -1    0    0    0    0 -0.00000000000E+00 -0.00000000000E+00 -0.45593999997E+02  0.45594000000E+02  0.51100000000E-03 0.  1.
    9900012    2    1    2    0    0  0.16960564441E+02 -0.70220997711E+01 -0.37027390115E+01  0.72461523889E+02  0.69999939548E+02 0.  0.
         12    1    1    2    0    0 -0.16960564441E+02  0.70220997711E+01  0.37027390115E+01  0.18726476111E+02  0.00000000000E+00 0. -1.
         11    1    3    3    0    0  0.18611072016E+02 -0.11111224831E+02  0.44555116316E+01  0.22128779970E+02  0.51100000000E-03 0. -1.
        -11    1    3    3    0    0  0.18859314437E+02 -0.12855168189E+02 -0.13088220815E+01  0.22861367100E+02  0.51100000000E-03 0.  1.
         12    1    3    3    0    0 -0.20509822012E+02  0.16944293249E+02 -0.68494285617E+01  0.27471376818E+02  0.00000000000E+00 0. -1.
</event>
<event>
 7    1  0.2153242E-013  0.7246155E+02  0.7816164E-02  0.1226708E+00
        -11   -1    0    0    0    0  0.00000000000E+00  0.00000000000E+00  0.45593999997E+02  0.45594000000E+02  0.51100000000E-03 0.  1.
         11   -1    0    0    0    0 -0.00000000000E+00 -0.00000000000E+00 -0.45593999997E+02  0.45594000000E+02  0.51100000000E-03 0. -1.
    9900012    2    1    2    0    0 -0.53832975897E+01 -0.90852319945E+01  0.15464756243E+02  0.72461547614E+02  0.69999970454E+02 0.  0.
         12    1    1    2    0    0  0.53832975897E+01  0.90852319945E+01 -0.15464756243E+02  0.18726452386E+02  0.00000000000E+00 0. -1.
         11    1    3    3    0    0  0.65872614310E+00  0.17996535660E+00 -0.15739524778E+02  0.15754331092E+02  0.51100000000E-03 0. -1.
        -11    1    3    3    0    0  0.18089211571E+02  0.48646869387E+01  0.17208751045E+02  0.25436703149E+02  0.51100000000E-03 0.  1.
        -12    1    3    3    0    0 -0.24131235304E+02 -0.14129884290E+02  0.13995529975E+02  0.31270513373E+02  0.00000000000E+00 0.  1.
</event>
<event>
 7    1  0.2153242E-013  0.7246158E+02  0.7816164E-02  0.1226708E+00
        -11   -1    0    0    0    0  0.00000000000E+00  0.00000000000E+00  0.45593999997E+02  0.45594000000E+02  0.51100000000E-03 0.  1.
         11   -1    0    0    0    0 -0.00000000000E+00 -0.00000000000E+00 -0.45593999997E+02  0.45594000000E+02  0.51100000000E-03 0. -1.
    9900012    2    1    2    0    0 -0.83112821250E+01  0.75158303517E+01  0.15003788539E+02  0.72461580509E+02  0.70000013307E+02 0.  0.
         12    1    1    2    0    0  0.83112821250E+01 -0.75158303517E+01 -0.15003788539E+02  0.18726419491E+02  0.00000000000E+00 0. -1.
         11    1    3    3    0    0 -0.50871682675E+01  0.24826394451E+02  0.29185766831E+02  0.38652789398E+02  0.51100000000E-03 0. -1.
        -11    1    3    3    0    0 -0.18974579963E+00  0.62432694345E+01 -0.60789701671E+01  0.87159793055E+01  0.51100000000E-03 0.  1.
        -12    1    3    3    0    0 -0.30343680578E+01 -0.23553833534E+02 -0.81030081258E+01  0.25092811806E+02  0.00000000000E+00 0.  1.
</event>
<event>
 7    1  0.2153242E-013  0.7246158E+02  0.7816164E-02  0.1226708E+00
        -11   -1    0    0    0    0  0.00000000000E+00  0.00000000000E+00  0.45593999997E+02  0.45594000000E+02  0.51100000000E-03 0. -1.
         11   -1    0    0    0    0 -0.00000000000E+00 -0.00000000000E+00 -0.45593999997E+02  0.45594000000E+02  0.51100000000E-03 0.  1.
    9900012    2    1    2    0    0 -0.14543438008E+02  0.92692367044E+01 -0.72971496428E+01  0.72461582000E+02  0.70000015249E+02 0.  0.
         12    1    1    2    0    0  0.14543438008E+02 -0.92692367044E+01  0.72971496428E+01  0.18726418000E+02  0.00000000000E+00 0. -1.
         11    1    3    3    0    0 -0.29284675896E+02  0.22215566555E+02 -0.48951625553E+01  0.37082155498E+02  0.51100000000E-03 0. -1.
        -11    1    3    3    0    0 -0.21190973009E+01 -0.16040728249E+02  0.46630524221E+01  0.16838633979E+02  0.51100000000E-03 0.  1.
        -12    1    3    3    0    0  0.16860335189E+02  0.30943983985E+01 -0.70650395096E+01  0.18540792523E+02  0.00000000000E+00 0.  1.
</event>
<event>
 7    1  0.2153242E-013  0.7246156E+02  0.7816164E-02  0.1226708E+00
        -11   -1    0    0    0    0  0.00000000000E+00  0.00000000000E+00  0.45593999997E+02  0.45594000000E+02  0.51100000000E-03 0. -1.
         11   -1    0    0    0    0 -0.00000000000E+00 -0.00000000000E+00 -0.45593999997E+02  0.45594000000E+02  0.51100000000E-03 0.  1.
    9900012    2    1    2    0    0 -0.35992464666E+01 -0.76043283731E+01 -0.16730192886E+02  0.72461555085E+02  0.69999980188E+02 0.  0.
         12    1    1    2    0    0  0.35992464666E+01  0.76043283731E+01  0.16730192886E+02  0.18726444915E+02  0.00000000000E+00 0. -1.
         11    1    3    3    0    0 -0.14418768402E+02 -0.39763116319E+01  0.10940817157E+02  0.18531417019E+02  0.51100000000E-03 0. -1.
        -11    1    3    3    0    0 -0.87082849284E+01  0.15328701855E+02 -0.17599348679E+02  0.24910648349E+02  0.51100000000E-03 0.  1.
        -12    1    3    3    0    0  0.19527806863E+02 -0.18956718597E+02 -0.10071661364E+02  0.29019489718E+02  0.00000000000E+00 0.  1.
</event>
<event>
 7    1  0.2153242E-013  0.7246206E+02  0.7816164E-02  0.1226707E+00
        -11   -1    0    0    0    0  0.00000000000E+00  0.00000000000E+00  0.45593999997E+02  0.45594000000E+02  0.51100000000E-03 0.  1.
         11   -1    0    0    0    0 -0.00000000000E+00 -0.00000000000E+00 -0.45593999997E+02  0.45594000000E+02  0.51100000000E-03 0. -1.
    9900012    2    1    2    0    0  0.10361379002E+02  0.52360116807E+01  0.14693092303E+02  0.72462056644E+02  0.70000633558E+02 0.  0.
         12    1    1    2    0    0 -0.10361379002E+02 -0.52360116807E+01 -0.14693092303E+02  0.18725943356E+02  0.00000000000E+00 0. -1.
         11    1    3    3    0    0 -0.15856372998E+02  0.42312458196E+01 -0.16146342520E+02  0.23022432167E+02  0.51100000000E-03 0. -1.
        -11    1    3    3    0    0  0.19954970937E+02 -0.58072488057E+01  0.41520272869E+01  0.21193497461E+02  0.51100000000E-03 0.  1.
        -12    1    3    3    0    0  0.62627810631E+01  0.68120146669E+01  0.26687407536E+02  0.28246127017E+02  0.00000000000E+00 0.  1.
</event>
<event>
 7    1  0.2153242E-013  0.7246155E+02  0.7816164E-02  0.1226708E+00
        -11   -1    0    0    0    0  0.00000000000E+00  0.00000000000E+00  0.45593999997E+02  0.45594000000E+02  0.51100000000E-03 0. -1.
         11   -1    0    0    0    0 -0.00000000000E+00 -0.00000000000E+00 -0.45593999997E+02  0.45594000000E+02  0.51100000000E-03 0.  1.
    9900012    2    1    2    0    0  0.14658318079E+02  0.39056763873E+01  0.10979959922E+02  0.72461545001E+02  0.69999967050E+02 0.  0.
         12    1    1    2    0    0 -0.14658318079E+02 -0.39056763873E+01 -0.10979959922E+02  0.18726454999E+02  0.00000000000E+00 0. -1.
         11    1    3    3    0    0 -0.20052456393E+02  0.15159355023E+02  0.26827850554E+01  0.25280513998E+02  0.51100000000E-03 0. -1.
        -11    1    3    3    0    0  0.23271167644E+02  0.12179389540E+01  0.16322646826E+02  0.28451000307E+02  0.51100000000E-03 0.  1.
        -12    1    3    3    0    0  0.11439606828E+02 -0.12471617590E+02 -0.80254719587E+01  0.18730030695E+02  0.00000000000E+00 0.  1.
</event>
<event>
 7    1  0.2153242E-013  0.7246153E+02  0.7816164E-02  0.1226708E+00
        -11   -1    0    0    0    0  0.00000000000E+00  0.00000000000E+00  0.45593999997E+02  0.45594000000E+02  0.51100000000E-03 0. -1.
         11   -1    0    0    0    0 -0.00000000000E+00 -0.00000000000E+00 -0.45593999997E+02  0.45594000000E+02  0.51100000000E-03 0.  1.
    9900012    2    1    2    0    0 -0.55341956667E+01 -0.21899818592E+01 -0.17755491371E+02  0.72461526331E+02  0.69999942730E+02 0.  0.
         12    1    1    2    0    0  0.55341956667E+01  0.21899818592E+01  0.17755491371E+02  0.18726473669E+02  0.00000000000E+00 0. -1.
         11    1    3    3    0    0 -0.12390880713E+02 -0.11806938449E+02  0.12922069833E+02  0.21445689763E+02  0.51100000000E-03 0. -1.
        -11    1    3    3    0    0 -0.15694079022E+02  0.43230462976E+01 -0.64874634115E+01  0.17523699022E+02  0.51100000000E-03 0.  1.
         12    1    3    3    0    0  0.22550764068E+02  0.52939102922E+01 -0.24190097793E+02  0.33492137547E+02  0.00000000000E+00 0. -1.
</event>
<event>
 7    1  0.2153242E-013  0.7246133E+02  0.7816164E-02  0.1226709E+00
        -11   -1    0    0    0    0  0.00000000000E+00  0.00000000000E+00  0.45593999997E+02  0.45594000000E+02  0.51100000000E-03 0.  1.
         11   -1    0    0    0    0 -0.00000000000E+00 -0.00000000000E+00 -0.45593999997E+02  0.45594000000E+02  0.51100000000E-03 0. -1.
    9900012    2    1    2    0    0  0.51740373867E+01 -0.10804280706E+02  0.14393925624E+02  0.72461328130E+02  0.69999684535E+02 0.  0.
         12    1    1    2    0    0 -0.51740373867E+01  0.10804280706E+02 -0.14393925624E+02  0.18726671870E+02  0.00000000000E+00 0. -1.
         11    1    3    3    0    0 -0.37774652749E+01  0.53402907253E+01 -0.44220894992E+01  0.78957472562E+01  0.51100000000E-03 0. -1.
        -11    1    3    3    0    0 -0.13999054436E+01 -0.16164239665E+02 -0.19216306050E+02  0.25149727586E+02  0.51100000000E-03 0.  1.
         12    1    3    3    0    0  0.10351408105E+02  0.19668233556E-01  0.38032321173E+02  0.39415853287E+02  0.00000000000E+00 0. -1.
</event>
<event>
 7    1  0.2153242E-013  0.7246158E+02  0.7816164E-02  0.1226708E+00
        -11   -1    0    0    0    0  0.00000000000E+00  0.00000000000E+00  0.45593999997E+02  0.45594000000E+02  0.51100000000E-03 0.  1.
         11   -1    0    0    0    0 -0.00000000000E+00 -0.00000000000E+00 -0.45593999997E+02  0.45594000000E+02  0.51100000000E-03 0. -1.
    9900012    2    1    2    0    0 -0.21113815879E+01 -0.51104404538E+01  0.17891453825E+02  0.72461584064E+02  0.70000017938E+02 0.  0.
         12    1    1    2    0    0  0.21113815879E+01  0.51104404538E+01 -0.17891453825E+02  0.18726415936E+02  0.00000000000E+00 0. -1.
         11    1    3    3    0    0 -0.71365131968E+01  0.12052507314E+02  0.12049958488E+02  0.18476857227E+02  0.51100000000E-03 0. -1.
        -11    1    3    3    0    0  0.14984593340E+01  0.59142706297E+01  0.23775758011E+02  0.24546092290E+02  0.51100000000E-03 0.  1.
         12    1    3    3    0    0  0.35266722749E+01 -0.23077218398E+02 -0.17934262675E+02  0.29438634547E+02  0.00000000000E+00 0. -1.
</event>
<event>
 7    1  0.2153242E-013  0.7246157E+02  0.7816164E-02  0.1226708E+00
        -11   -1    0    0    0    0  0.00000000000E+00  0.00000000000E+00  0.45593999997E+02  0.45594000000E+02  0.51100000000E-03 0.  1.
         11   -1    0    0    0    0 -0.00000000000E+00 -0.00000000000E+00 -0.45593999997E+02  0.45594000000E+02  0.51100000000E-03 0. -1.
    9900012    2    1    2    0    0  0.59995400440E+00 -0.12179235500E+02  0.14212152959E+02  0.72461574449E+02  0.70000005412E+02 0.  0.
         12    1    1    2    0    0 -0.59995400440E+00  0.12179235500E+02 -0.14212152959E+02  0.18726425551E+02  0.00000000000E+00 0. -1.
         11    1    3    3    0    0  0.15831317660E+02 -0.93648189197E+01 -0.20863282769E+02  0.27813791910E+02  0.51100000000E-03 0. -1.
        -11    1    3    3    0    0 -0.71443160066E+01 -0.91852011763E+01  0.46559812957E+01  0.12533448605E+02  0.51100000000E-03 0.  1.
        -12    1    3    3    0    0 -0.80870476490E+01  0.63707845958E+01  0.30419454433E+02  0.32114333934E+02  0.00000000000E+00 0.  1.
</event>
<event>
 7    1  0.2153242E-013  0.7246158E+02  0.7816164E-02  0.1226708E+00
        -11   -1    0    0    0    0  0.00000000000E+00  0.00000000000E+00  0.45593999997E+02  0.45594000000E+02  0.51100000000E-03 0. -1.
         11   -1    0    0    0    0 -0.00000000000E+00 -0.00000000000E+00 -0.45593999997E+02  0.45594000000E+02  0.51100000000E-03 0.  1.
    9900012    2    1    2    0    0  0.16195513398E+02  0.35558674340E+01 -0.87028814362E+01  0.72461575015E+02  0.70000006150E+02 0.  0.
         12    1    1    2    0    0 -0.16195513398E+02 -0.35558674340E+01  0.87028814362E+01  0.18726424985E+02  0.00000000000E+00 0. -1.
         11    1    3    3    0    0 -0.14314940474E+00 -0.25139603316E+01 -0.73044533205E+00  0.26218388480E+01  0.51100000000E-03 0. -1.
        -11    1    3    3    0    0 -0.26785752487E+00 -0.29462812064E+02 -0.83209225933E+01  0.30616446486E+02  0.51100000000E-03 0.  1.
         12    1    3    3    0    0  0.16606520327E+02  0.35532639829E+02  0.34848648914E+00  0.39223289681E+02  0.00000000000E+00 0. -1.
</event>
<event>
 7    1  0.2153242E-013  0.7246159E+02  0.7816164E-02  0.1226708E+00
        -11   -1    0    0    0    0  0.00000000000E+00  0.00000000000E+00  0.45593999997E+02  0.45594000000E+02  0.51100000000E-03 0. -1.
         11   -1    0    0    0    0 -0.00000000000E+00 -0.00000000000E+00 -0.45593999997E+02  0.45594000000E+02  0.51100000000E-03 0.  1.
    9900012    2    1    2    0    0 -0.15492026713E+02 -0.41282153975E+01 -0.96764332032E+01  0.72461590478E+02  0.70000026293E+02 0.  0.
         12    1    1    2    0    0  0.15492026713E+02  0.41282153975E+01  0.96764332032E+01  0.18726409522E+02  0.00000000000E+00 0. -1.
         11    1    3    3    0    0 -0.20119767473E+02 -0.49861756273E+01 -0.94836992723E+01  0.22794901682E+02  0.51100000000E-03 0. -1.
        -11    1    3    3    0    0  0.19970128352E+02 -0.26657507013E+01 -0.17201220956E+02  0.26491399658E+02  0.51100000000E-03 0.  1.
         12    1    3    3    0    0 -0.15342387592E+02  0.35237109311E+01  0.17008487025E+02  0.23175289138E+02  0.00000000000E+00 0. -1.
</event>
<event>
 7    1  0.2153242E-013  0.7246163E+02  0.7816164E-02  0.1226708E+00
        -11   -1    0    0    0    0  0.00000000000E+00  0.00000000000E+00  0.45593999997E+02  0.45594000000E+02  0.51100000000E-03 0.  1.
         11   -1    0    0    0    0 -0.00000000000E+00 -0.00000000000E+00 -0.45593999997E+02  0.45594000000E+02  0.51100000000E-03 0. -1.
    9900012    2    1    2    0    0 -0.87275836520E+01  0.64661003512E+01  0.15254368694E+02  0.72461629972E+02  0.70000077741E+02 0.  0.
         12    1    1    2    0    0  0.87275836520E+01 -0.64661003512E+01 -0.15254368694E+02  0.18726370028E+02  0.00000000000E+00 0. -1.
         11    1    3    3    0    0  0.77066382883E+01  0.79444057965E+01  0.93064326203E+01  0.14460827969E+02  0.51100000000E-03 0. -1.
        -11    1    3    3    0    0 -0.15066605750E+02  0.91495061410E+01  0.28226990111E+02  0.33278807708E+02  0.51100000000E-03 0.  1.
         12    1    3    3    0    0 -0.13676161902E+01 -0.10627811586E+02 -0.22279054037E+02  0.24721994295E+02  0.00000000000E+00 0. -1.
</event>
<event>
 7    1  0.2153242E-013  0.7246157E+02  0.7816164E-02  0.1226708E+00
        -11   -1    0    0    0    0  0.00000000000E+00  0.00000000000E+00  0.45593999997E+02  0.45594000000E+02  0.51100000000E-03 0.  1.
         11   -1    0    0    0    0 -0.00000000000E+00 -0.00000000000E+00 -0.45593999997E+02  0.45594000000E+02  0.51100000000E-03 0. -1.
    9900012    2    1    2    0    0 -0.12756311258E+01  0.47167735252E+01  0.18077724072E+02  0.72461566947E+02  0.69999995640E+02 0.  0.
         12    1    1    2    0    0  0.12756311258E+01 -0.47167735252E+01 -0.18077724072E+02  0.18726433053E+02  0.00000000000E+00 0. -1.
         11    1    3    3    0    0  0.98395204030E+01  0.22623497073E+01  0.42769602352E+01  0.10964797174E+02  0.51100000000E-03 0. -1.
        -11    1    3    3    0    0  0.24242340910E+02 -0.16065599449E+01  0.67414069785E+01  0.25213462593E+02  0.51100000000E-03 0.  1.
         12    1    3    3    0    0 -0.35357492438E+02  0.40609837629E+01  0.70593568582E+01  0.36283307180E+02  0.00000000000E+00 0. -1.
</event>
<event>
 7    1  0.2153242E-013  0.7246147E+02  0.7816164E-02  0.1226708E+00
        -11   -1    0    0    0    0  0.00000000000E+00  0.00000000000E+00  0.45593999997E+02  0.45594000000E+02  0.51100000000E-03 0.  1.
         11   -1    0    0    0    0 -0.00000000000E+00 -0.00000000000E+00 -0.45593999997E+02  0.45594000000E+02  0.51100000000E-03 0. -1.
    9900012    2    1    2    0    0  0.65514340151E+01 -0.15272814223E+02  0.86314991759E+01  0.72461470156E+02  0.69999869552E+02 0.  0.
         12    1    1    2    0    0 -0.65514340151E+01  0.15272814223E+02 -0.86314991759E+01  0.18726529844E+02  0.00000000000E+00 0. -1.
         11    1    3    3    0    0  0.40003899898E+01  0.16346676633E+02  0.25854570853E+02  0.30849242961E+02  0.51100000000E-03 0. -1.
        -11    1    3    3    0    0  0.30137370243E+01  0.24031622253E+01 -0.17996308207E+01  0.42539946972E+01  0.51100000000E-03 0.  1.
        -12    1    3    3    0    0 -0.46269299901E+00 -0.34022653082E+02 -0.15423440857E+02  0.37358232498E+02  0.00000000000E+00 0.  1.
</event>
<event>
 7    1  0.2153242E-013  0.7246158E+02  0.7816164E-02  0.1226708E+00
        -11   -1    0    0    0    0  0.00000000000E+00  0.00000000000E+00  0.45593999997E+02  0.45594000000E+02  0.51100000000E-03 0. -1.
         11   -1    0    0    0    0 -0.00000000000E+00 -0.00000000000E+00 -0.45593999997E+02  0.45594000000E+02  0.51100000000E-03 0.  1.
    9900012    2    1    2    0    0 -0.23989100024E+01 -0.15184202674E+02 -0.10694119955E+02  0.72461575311E+02  0.70000006535E+02 0.  0.
         12    1    1    2    0    0  0.23989100024E+01  0.15184202674E+02  0.10694119955E+02  0.18726424689E+02  0.00000000000E+00 0. -1.
         11    1    3    3    0    0 -0.37120197463E+01 -0.33313970773E+01 -0.53637055421E+01  0.73243862874E+01  0.51100000000E-03 0. -1.
        -11    1    3    3    0    0  0.11612687993E+02 -0.31480703205E+02  0.13386343300E+02  0.36125937827E+02  0.51100000000E-03 0.  1.
         12    1    3    3    0    0 -0.10299578249E+02  0.19627897609E+02 -0.18716757713E+02  0.29011251196E+02  0.00000000000E+00 0. -1.
</event>
<event>
 7    1  0.2153242E-013  0.7246161E+02  0.7816164E-02  0.1226708E+00
        -11   -1    0    0    0    0  0.00000000000E+00  0.00000000000E+00  0.45593999997E+02  0.45594000000E+02  0.51100000000E-03 0.  1.
         11   -1    0    0    0    0 -0.00000000000E+00 -0.00000000000E+00 -0.45593999997E+02  0.45594000000E+02  0.51100000000E-03 0. -1.
    9900012    2    1    2    0    0  0.13688863034E+02 -0.28288561132E+01  0.12461556812E+02  0.72461606961E+02  0.70000047765E+02 0.  0.
         12    1    1    2    0    0 -0.13688863034E+02  0.28288561132E+01 -0.12461556812E+02  0.18726393039E+02  0.00000000000E+00 0. -1.
         11    1    3    3    0    0 -0.48450174657E+01  0.45678945198E+01 -0.21840624548E+01  0.70078515719E+01  0.51100000000E-03 0. -1.
        -11    1    3    3    0    0  0.60260348550E+01  0.12025385850E+02 -0.19825466497E+02  0.23957715312E+02  0.51100000000E-03 0.  1.
        -12    1    3    3    0    0  0.12507845645E+02 -0.19422136483E+02  0.34471085764E+02  0.41496040076E+02  0.00000000000E+00 0.  1.
</event>
<event>
 7    1  0.2153242E-013  0.7246162E+02  0.7816164E-02  0.1226708E+00
        -11   -1    0    0    0    0  0.00000000000E+00  0.00000000000E+00  0.45593999997E+02  0.45594000000E+02  0.51100000000E-03 0. -1.
         11   -1    0    0    0    0 -0.00000000000E+00 -0.00000000000E+00 -0.45593999997E+02  0.45594000000E+02  0.51100000000E-03 0.  1.
    9900012    2    1    2    0    0 -0.10091909306E+02 -0.15405930397E+02  0.33894114717E+01  0.72461616607E+02  0.70000060331E+02 0.  0.
         12    1    1    2    0    0  0.10091909306E+02  0.15405930397E+02 -0.33894114717E+01  0.18726383393E+02  0.00000000000E+00 0. -1.
         11    1    3    3    0    0  0.15665257672E+02  0.10567726490E+02  0.36395407066E+01  0.19243788555E+02  0.51100000000E-03 0. -1.
        -11    1    3    3    0    0 -0.27498571375E+02 -0.10545790567E+01  0.42221120556E+01  0.27840793723E+02  0.51100000000E-03 0.  1.
         12    1    3    3    0    0  0.17414043966E+01 -0.24919077831E+02 -0.44722412906E+01  0.25377034330E+02  0.00000000000E+00 0. -1.
</event>
<event>
 7    1  0.2153242E-013  0.7246161E+02  0.7816164E-02  0.1226708E+00
        -11   -1    0    0    0    0  0.00000000000E+00  0.00000000000E+00  0.45593999997E+02  0.45594000000E+02  0.51100000000E-03 0.  1.
         11   -1    0    0    0    0 -0.00000000000E+00 -0.00000000000E+00 -0.45593999997E+02  0.45594000000E+02  0.51100000000E-03 0. -1.
    9900012    2    1    2    0    0 -0.73342999568E+01 -0.44361189904E+01  0.16649518860E+02  0.72461612580E+02  0.70000055085E+02 0.  0.
         12    1    1    2    0    0  0.73342999568E+01  0.44361189904E+01 -0.16649518860E+02  0.18726387420E+02  0.00000000000E+00 0. -1.
         11    1    3    3    0    0 -0.36387267865E+01  0.44316092984E+01 -0.15235977998E+02  0.16279266550E+02  0.51100000000E-03 0. -1.
        -11    1    3    3    0    0  0.40758497879E+01 -0.10917827869E+02 -0.88677812133E+01  0.14644079376E+02  0.51100000000E-03 0.  1.
        -12    1    3    3    0    0 -0.77714229582E+01  0.20500995799E+01  0.40753278071E+02  0.41538266654E+02  0.00000000000E+00 0.  1.
</event>
<event>
 7    1  0.2153242E-013  0.7246155E+02  0.7816164E-02  0.1226708E+00
        -11   -1    0    0    0    0  0.00000000000E+00  0.00000000000E+00  0.45593999997E+02  0.45594000000E+02  0.51100000000E-03 0. -1.
         11   -1    0    0    0    0 -0.00000000000E+00 -0.00000000000E+00 -0.45593999997E+02  0.45594000000E+02  0.51100000000E-03 0.  1.
    9900012    2    1    2    0    0 -0.56051351276E+01 -0.18936121769E+01 -0.17767289612E+02  0.72461551136E+02  0.69999975043E+02 0.  0.
         12    1    1    2    0    0  0.56051351276E+01  0.18936121769E+01  0.17767289612E+02  0.18726448864E+02  0.00000000000E+00 0. -1.
         11    1    3    3    0    0 -0.13420389364E+02 -0.34615190715E+01  0.17974997513E+02  0.22697786254E+02  0.51100000000E-03 0. -1.
        -11    1    3    3    0    0  0.92932065565E+01  0.12726428114E+02 -0.42515241753E+01  0.16321798881E+02  0.51100000000E-03 0.  1.
        -12    1    3    3    0    0 -0.14779523198E+01 -0.11158521219E+02 -0.31490762950E+02  0.33441966001E+02  0.00000000000E+00 0.  1.
</event>
<event>
 7    1  0.2153242E-013  0.7246156E+02  0.7816164E-02  0.1226708E+00
        -11   -1    0    0    0    0  0.00000000000E+00  0.00000000000E+00  0.45593999997E+02  0.45594000000E+02  0.51100000000E-03 0. -1.
         11   -1    0    0    0    0 -0.00000000000E+00 -0.00000000000E+00 -0.45593999997E+02  0.45594000000E+02  0.51100000000E-03 0.  1.
    9900012    2    1    2    0    0  0.15220286318E+02  0.32369318495E+01 -0.10418481591E+02  0.72461558745E+02  0.69999984955E+02 0.  0.
         12    1    1    2    0    0 -0.15220286318E+02 -0.32369318495E+01  0.10418481591E+02  0.18726441255E+02  0.00000000000E+00 0. -1.
         11    1    3    3    0    0  0.24074417635E+01  0.78390604584E+01 -0.30195865225E+02  0.31289565699E+02  0.51100000000E-03 0.  1.
        -11    1    3    3    0    0  0.97812287644E+01  0.13383374809E+02  0.14907195971E+02  0.22293758082E+02  0.51100000000E-03 0. -1.
        -12    1    3    3    0    0  0.30316157901E+01 -0.17985503418E+02  0.48701876620E+01  0.18878234964E+02  0.00000000000E+00 0.  1.
</event>
<event>
 7    1  0.2357747E-013  0.7246159E+02  0.7816164E-02  0.1226708E+00
        -11   -1    0    0    0    0  0.00000000000E+00  0.00000000000E+00  0.45593999997E+02  0.45594000000E+02  0.51100000000E-03 0.  1.
         11   -1    0    0    0    0 -0.00000000000E+00 -0.00000000000E+00 -0.45593999997E+02  0.45594000000E+02  0.51100000000E-03 0. -1.
    9900012    2    1    2    0    0  0.77720530101E+01  0.69874898868E+00 -0.17023087456E+02  0.72461586444E+02  0.70000021038E+02 0.  0.
         12    1    1    2    0    0 -0.77720530101E+01 -0.69874898868E+00  0.17023087456E+02  0.18726413556E+02  0.00000000000E+00 0. -1.
         11    1    3    3    0    0 -0.46781074917E+01  0.54566638040E+01 -0.15399533453E+02  0.16994278461E+02  0.51100000000E-03 0. -1.
        -11    1    3    3    0    0  0.24623829491E+02  0.62868330631E+01 -0.18861735206E+02  0.31648417086E+02  0.51100000000E-03 0.  1.
         12    1    3    3    0    0 -0.12173668990E+02 -0.11044747878E+02  0.17238181203E+02  0.23818890897E+02  0.00000000000E+00 0. -1.
</event>
<event>
 7    1  0.2153242E-013  0.7246164E+02  0.7816164E-02  0.1226708E+00
        -11   -1    0    0    0    0  0.00000000000E+00  0.00000000000E+00  0.45593999997E+02  0.45594000000E+02  0.51100000000E-03 0.  1.
         11   -1    0    0    0    0 -0.00000000000E+00 -0.00000000000E+00 -0.45593999997E+02  0.45594000000E+02  0.51100000000E-03 0. -1.
    9900012    2    1    2    0    0  0.20063869975E+01  0.45092999868E+01  0.18064247341E+02  0.72461644051E+02  0.70000096081E+02 0.  0.
         12    1    1    2    0    0 -0.20063869975E+01 -0.45092999868E+01 -0.18064247341E+02  0.18726355949E+02  0.00000000000E+00 0. -1.
         11    1    3    3    0    0 -0.18754305999E+02 -0.12420658365E+02  0.49940235951E+01  0.23042070646E+02  0.51100000000E-03 0. -1.
        -11    1    3    3    0    0  0.23314926880E+02  0.78319252604E+01  0.24414307538E+02  0.34655205692E+02  0.51100000000E-03 0.  1.
         12    1    3    3    0    0 -0.25542338840E+01  0.90980330915E+01 -0.11344083792E+02  0.14764367713E+02  0.00000000000E+00 0. -1.
</event>
<event>
 7    1  0.2153242E-013  0.7246143E+02  0.7816164E-02  0.1226708E+00
        -11   -1    0    0    0    0  0.00000000000E+00  0.00000000000E+00  0.45593999997E+02  0.45594000000E+02  0.51100000000E-03 0.  1.
         11   -1    0    0    0    0 -0.00000000000E+00 -0.00000000000E+00 -0.45593999997E+02  0.45594000000E+02  0.51100000000E-03 0. -1.
    9900012    2    1    2    0    0 -0.82370151442E+01 -0.42284048693E+01  0.16277488560E+02  0.72461429037E+02  0.69999815985E+02 0.  0.
         12    1    1    2    0    0  0.82370151442E+01  0.42284048693E+01 -0.16277488560E+02  0.18726570963E+02  0.00000000000E+00 0. -1.
         11    1    3    3    0    0  0.45881690618E+01  0.13559171980E+02  0.13185372086E+02  0.19461666872E+02  0.51100000000E-03 0. -1.
        -11    1    3    3    0    0  0.31270235133E+01  0.69473960137E+01  0.18334399993E+02  0.19854339848E+02  0.51100000000E-03 0.  1.
        -12    1    3    3    0    0 -0.15952207719E+02 -0.24734972863E+02 -0.15242283520E+02  0.33145422317E+02  0.00000000000E+00 0.  1.
</event>
<event>
 7    1  0.2153242E-013  0.7246155E+02  0.7816164E-02  0.1226708E+00
        -11   -1    0    0    0    0  0.00000000000E+00  0.00000000000E+00  0.45593999997E+02  0.45594000000E+02  0.51100000000E-03 0.  1.
         11   -1    0    0    0    0 -0.00000000000E+00 -0.00000000000E+00 -0.45593999997E+02  0.45594000000E+02  0.51100000000E-03 0. -1.
    9900012    2    1    2    0    0  0.18276887012E+02  0.36632428260E+01  0.17933024125E+01  0.72461551314E+02  0.69999975274E+02 0.  0.
         12    1    1    2    0    0 -0.18276887012E+02 -0.36632428260E+01 -0.17933024125E+01  0.18726448686E+02  0.00000000000E+00 0. -1.
         11    1    3    3    0    0  0.45230427959E+01  0.15607242202E+02 -0.17637574985E+02  0.23981825971E+02  0.51100000000E-03 0. -1.
        -11    1    3    3    0    0 -0.58369853978E+01  0.12064865915E+02  0.66206023109E+01  0.14948704402E+02  0.51100000000E-03 0.  1.
        -12    1    3    3    0    0  0.19590829614E+02 -0.24008865291E+02  0.12810275087E+02  0.33531020941E+02  0.00000000000E+00 0.  1.
</event>
<event>
 7    1  0.2153242E-013  0.7246155E+02  0.7816164E-02  0.1226708E+00
        -11   -1    0    0    0    0  0.00000000000E+00  0.00000000000E+00  0.45593999997E+02  0.45594000000E+02  0.51100000000E-03 0. -1.
         11   -1    0    0    0    0 -0.00000000000E+00 -0.00000000000E+00 -0.45593999997E+02  0.45594000000E+02  0.51100000000E-03 0.  1.
    9900012    2    1    2    0    0  0.81237968821E+01  0.11246071838E+02 -0.12578151030E+02  0.72461545694E+02  0.69999967953E+02 0.  0.
         12    1    1    2    0    0 -0.81237968821E+01 -0.11246071838E+02  0.12578151030E+02  0.18726454306E+02  0.00000000000E+00 0. -1.
         11    1    3    3    0    0 -0.16593274467E+02 -0.14750879082E+02 -0.15072777404E+02  0.26834936373E+02  0.51100000000E-03 0. -1.
        -11    1    3    3    0    0 -0.55839893560E+01  0.63609442760E+01  0.42611060285E+01  0.94762637183E+01  0.51100000000E-03 0.  1.
        -12    1    3    3    0    0  0.30301060705E+02  0.19636006644E+02 -0.17664796543E+01  0.36150345602E+02  0.00000000000E+00 0.  1.
</event>
<event>
 7    1  0.2153242E-013  0.7246147E+02  0.7816164E-02  0.1226708E+00
        -11   -1    0    0    0    0  0.00000000000E+00  0.00000000000E+00  0.45593999997E+02  0.45594000000E+02  0.51100000000E-03 0. -1.
         11   -1    0    0    0    0 -0.00000000000E+00 -0.00000000000E+00 -0.45593999997E+02  0.45594000000E+02  0.51100000000E-03 0.  1.
    9900012    2    1    2    0    0 -0.29431111725E+01 -0.16595419437E+01 -0.18419202955E+02  0.72461467477E+02  0.69999866061E+02 0.  0.
         12    1    1    2    0    0  0.29431111725E+01  0.16595419437E+01  0.18419202955E+02  0.18726532523E+02  0.00000000000E+00 0. -1.
         11    1    3    3    0    0  0.82521934108E+01  0.71355300806E+01  0.83902641271E+01  0.13762667547E+02  0.51100000000E-03 0. -1.
        -11    1    3    3    0    0  0.19834121762E+02 -0.39264056294E+01 -0.14864461664E+02  0.25095044691E+02  0.51100000000E-03 0.  1.
        -12    1    3    3    0    0 -0.31029426345E+02 -0.48686663950E+01 -0.11945005418E+02  0.33603755240E+02  0.00000000000E+00 0.  1.
</event>
<event>
 7    1  0.2153242E-013  0.7246148E+02  0.7816164E-02  0.1226708E+00
        -11   -1    0    0    0    0  0.00000000000E+00  0.00000000000E+00  0.45593999997E+02  0.45594000000E+02  0.51100000000E-03 0. -1.
         11   -1    0    0    0    0 -0.00000000000E+00 -0.00000000000E+00 -0.45593999997E+02  0.45594000000E+02  0.51100000000E-03 0.  1.
    9900012    2    1    2    0    0 -0.11605441909E+02 -0.75375087619E+01 -0.12616739549E+02  0.72461483050E+02  0.69999886348E+02 0.  0.
         12    1    1    2    0    0  0.11605441909E+02  0.75375087619E+01  0.12616739549E+02  0.18726516950E+02  0.00000000000E+00 0. -1.
         11    1    3    3    0    0  0.34985535773E+01  0.52781897019E+01  0.14915505615E+02  0.16204057260E+02  0.51100000000E-03 0. -1.
        -11    1    3    3    0    0 -0.58569129435E-01  0.59164934178E+01  0.10043646517E+02  0.11656893253E+02  0.51100000000E-03 0.  1.
        -12    1    3    3    0    0 -0.15045426357E+02 -0.18732191882E+02 -0.37575891681E+02  0.44600532537E+02  0.00000000000E+00 0.  1.
</event>
<event>
 7    1  0.2153242E-013  0.7246155E+02  0.7816164E-02  0.1226708E+00
        -11   -1    0    0    0    0  0.00000000000E+00  0.00000000000E+00  0.45593999997E+02  0.45594000000E+02  0.51100000000E-03 0. -1.
         11   -1    0    0    0    0 -0.00000000000E+00 -0.00000000000E+00 -0.45593999997E+02  0.45594000000E+02  0.51100000000E-03 0.  1.
    9900012    2    1    2    0    0 -0.95790352196E+01  0.15514365138E+02  0.42692692073E+01  0.72461545426E+02  0.69999967604E+02 0.  0.
         12    1    1    2    0    0  0.95790352196E+01 -0.15514365138E+02 -0.42692692073E+01  0.18726454574E+02  0.00000000000E+00 0. -1.
         11    1    3    3    0    0  0.27822646008E+01 -0.60622534460E+00 -0.35878032192E+01  0.45804844370E+01  0.51100000000E-03 0. -1.
        -11    1    3    3    0    0 -0.12258247278E+02 -0.64986497975E+01 -0.24645433232E+02  0.28282405396E+02  0.51100000000E-03 0.  1.
         12    1    3    3    0    0 -0.10305254266E+00  0.22619240280E+02  0.32502505659E+02  0.39598655593E+02  0.00000000000E+00 0. -1.
</event>
<event>
 7    1  0.2153242E-013  0.7246097E+02  0.7816164E-02  0.1226710E+00
        -11   -1    0    0    0    0  0.00000000000E+00  0.00000000000E+00  0.45593999997E+02  0.45594000000E+02  0.51100000000E-03 0.  1.
         11   -1    0    0    0    0 -0.00000000000E+00 -0.00000000000E+00 -0.45593999997E+02  0.45594000000E+02  0.51100000000E-03 0. -1.
    9900012    2    1    2    0    0  0.67772922512E+01  0.15044010337E+02  0.88570670212E+01  0.72460972113E+02  0.69999220753E+02 0.  0.
         12    1    1    2    0    0 -0.67772922512E+01 -0.15044010337E+02 -0.88570670212E+01  0.18727027887E+02  0.00000000000E+00 0. -1.
         11    1    3    3    0    0  0.16797602258E+02  0.39867605326E+01 -0.12991647174E+02  0.21606401776E+02  0.51100000000E-03 0. -1.
        -11    1    3    3    0    0 -0.96368949275E+01 -0.52217550406E+01 -0.10157914855E+02  0.14943885171E+02  0.51100000000E-03 0.  1.
        -12    1    3    3    0    0 -0.38341507932E+00  0.16279004845E+02  0.32006629050E+02  0.35910685165E+02  0.00000000000E+00 0.  1.
</event>
<event>
 7    1  0.2153242E-013  0.7246157E+02  0.7816164E-02  0.1226708E+00
        -11   -1    0    0    0    0  0.00000000000E+00  0.00000000000E+00  0.45593999997E+02  0.45594000000E+02  0.51100000000E-03 0. -1.
         11   -1    0    0    0    0 -0.00000000000E+00 -0.00000000000E+00 -0.45593999997E+02  0.45594000000E+02  0.51100000000E-03 0.  1.
    9900012    2    1    2    0    0  0.13121783128E+02  0.89524065010E+01  0.99172807082E+01  0.72461568646E+02  0.69999997853E+02 0.  0.
         12    1    1    2    0    0 -0.13121783128E+02 -0.89524065010E+01 -0.99172807082E+01  0.18726431354E+02  0.00000000000E+00 0. -1.
         11    1    3    3    0    0  0.41831131339E+01 -0.10070262974E+02  0.39232090128E+00  0.10911578612E+02  0.51100000000E-03 0. -1.
        -11    1    3    3    0    0  0.26013837907E+02  0.28941709228E+02  0.13902685707E+02  0.41323443296E+02  0.51100000000E-03 0.  1.
         12    1    3    3    0    0 -0.17075167913E+02 -0.99190397529E+01 -0.43777258998E+01  0.20226546738E+02  0.00000000000E+00 0. -1.
</event>
<event>
 7    1  0.2153242E-013  0.7246130E+02  0.7816164E-02  0.1226709E+00
        -11   -1    0    0    0    0  0.00000000000E+00  0.00000000000E+00  0.45593999997E+02  0.45594000000E+02  0.51100000000E-03 0.  1.
         11   -1    0    0    0    0 -0.00000000000E+00 -0.00000000000E+00 -0.45593999997E+02  0.45594000000E+02  0.51100000000E-03 0. -1.
    9900012    2    1    2    0    0 -0.14278316488E+02 -0.98344079754E+01  0.70783769329E+01  0.72461299224E+02  0.69999646879E+02 0.  0.
         12    1    1    2    0    0  0.14278316488E+02  0.98344079754E+01 -0.70783769329E+01  0.18726700776E+02  0.00000000000E+00 0. -1.
         11    1    3    3    0    0 -0.96672556792E+01  0.84057488637E+01 -0.25544733507E+02  0.28577016228E+02  0.51100000000E-03 0. -1.
        -11    1    3    3    0    0 -0.27320093253E+01 -0.48102475064E+01 -0.26209210187E+01  0.61214037013E+01  0.51100000000E-03 0.  1.
         12    1    3    3    0    0 -0.18790514835E+01 -0.13429909333E+02  0.35244031458E+02  0.37762879294E+02  0.00000000000E+00 0. -1.
</event>
<event>
 7    1  0.2153242E-013  0.7246147E+02  0.7816164E-02  0.1226708E+00
        -11   -1    0    0    0    0  0.00000000000E+00  0.00000000000E+00  0.45593999997E+02  0.45594000000E+02  0.51100000000E-03 0.  1.
         11   -1    0    0    0    0 -0.00000000000E+00 -0.00000000000E+00 -0.45593999997E+02  0.45594000000E+02  0.51100000000E-03 0. -1.
    9900012    2    1    2    0    0  0.11613684507E+02  0.11556556358E+02  0.90692544782E+01  0.72461466966E+02  0.69999865395E+02 0.  0.
         12    1    1    2    0    0 -0.11613684507E+02 -0.11556556358E+02 -0.90692544782E+01  0.18726533034E+02  0.00000000000E+00 0. -1.
         11    1    3    3    0    0  0.24742881758E+02  0.10848857545E+02 -0.16189395614E+02  0.31496101954E+02  0.51100000000E-03 0. -1.
        -11    1    3    3    0    0  0.91804151218E+01 -0.25528692341E+01  0.95155446649E+01  0.13466356362E+02  0.51100000000E-03 0.  1.
         12    1    3    3    0    0 -0.22309612373E+02  0.32605680477E+01  0.15743105427E+02  0.27499008650E+02  0.00000000000E+00 0. -1.
</event>
<event>
 7    1  0.2153242E-013  0.7246160E+02  0.7816164E-02  0.1226708E+00
        -11   -1    0    0    0    0  0.00000000000E+00  0.00000000000E+00  0.45593999997E+02  0.45594000000E+02  0.51100000000E-03 0.  1.
         11   -1    0    0    0    0 -0.00000000000E+00 -0.00000000000E+00 -0.45593999997E+02  0.45594000000E+02  0.51100000000E-03 0. -1.
    9900012    2    1    2    0    0  0.28973132978E+01 -0.16621804742E+02  0.81240018921E+01  0.72461595541E+02  0.70000032889E+02 0.  0.
         12    1    1    2    0    0 -0.28973132978E+01  0.16621804742E+02 -0.81240018921E+01  0.18726404459E+02  0.00000000000E+00 0. -1.
         11    1    3    3    0    0  0.17945736930E+01 -0.14037131432E+02 -0.15447795581E+02  0.20949843488E+02  0.51100000000E-03 0. -1.
        -11    1    3    3    0    0 -0.16828122954E+02 -0.10634733980E+02  0.24820286842E+02  0.31817132620E+02  0.51100000000E-03 0.  1.
         12    1    3    3    0    0  0.17930862559E+02  0.80500606711E+01 -0.12484893691E+01  0.19694619433E+02  0.00000000000E+00 0. -1.
</event>
<event>
 7    1  0.2153242E-013  0.7246181E+02  0.7816164E-02  0.1226707E+00
        -11   -1    0    0    0    0  0.00000000000E+00  0.00000000000E+00  0.45593999997E+02  0.45594000000E+02  0.51100000000E-03 0. -1.
         11   -1    0    0    0    0 -0.00000000000E+00 -0.00000000000E+00 -0.45593999997E+02  0.45594000000E+02  0.51100000000E-03 0.  1.
    9900012    2    1    2    0    0  0.12310423556E+02 -0.10435400503E+02 -0.94987335644E+01  0.72461813760E+02  0.70000317158E+02 0.  0.
         12    1    1    2    0    0 -0.12310423556E+02  0.10435400503E+02  0.94987335644E+01  0.18726186240E+02  0.00000000000E+00 0. -1.
         11    1    3    3    0    0  0.84516901777E+01  0.85831929305E+01 -0.45478608377E+01  0.12875764296E+02  0.51100000000E-03 0. -1.
        -11    1    3    3    0    0  0.82346361129E+01 -0.16221933990E+02 -0.29409871756E+02  0.34581800579E+02  0.51100000000E-03 0.  1.
        -12    1    3    3    0    0 -0.43759027351E+01 -0.27966594434E+01  0.24458999029E+02  0.25004248885E+02  0.00000000000E+00 0.  1.
</event>
<event>
 7    1  0.2153242E-013  0.7246157E+02  0.7816164E-02  0.1226708E+00
        -11   -1    0    0    0    0  0.00000000000E+00  0.00000000000E+00  0.45593999997E+02  0.45594000000E+02  0.51100000000E-03 0.  1.
         11   -1    0    0    0    0 -0.00000000000E+00 -0.00000000000E+00 -0.45593999997E+02  0.45594000000E+02  0.51100000000E-03 0. -1.
    9900012    2    1    2    0    0  0.50138381683E+01 -0.11705024449E+02  0.13730731602E+02  0.72461570525E+02  0.70000000301E+02 0.  0.
         12    1    1    2    0    0 -0.50138381683E+01  0.11705024449E+02 -0.13730731602E+02  0.18726429475E+02  0.00000000000E+00 0. -1.
         11    1    3    3    0    0  0.82866316969E+01 -0.15682182950E+02 -0.75652189720E+01  0.19282937155E+02  0.51100000000E-03 0. -1.
        -11    1    3    3    0    0  0.17149712917E+02 -0.12365670063E+02  0.15942288188E+02  0.26479784783E+02  0.51100000000E-03 0.  1.
         12    1    3    3    0    0 -0.20422506445E+02  0.16342828563E+02  0.53536623861E+01  0.26698848587E+02  0.00000000000E+00 0. -1.
</event>
<event>
 7    1  0.2153242E-013  0.7246155E+02  0.7816164E-02  0.1226708E+00
        -11   -1    0    0    0    0  0.00000000000E+00  0.00000000000E+00  0.45593999997E+02  0.45594000000E+02  0.51100000000E-03 0.  1.
         11   -1    0    0    0    0 -0.00000000000E+00 -0.00000000000E+00 -0.45593999997E+02  0.45594000000E+02  0.51100000000E-03 0. -1.
    9900012    2    1    2    0    0 -0.48176573516E+01 -0.13173476246E+02  0.12406840886E+02  0.72461548132E+02  0.69999971130E+02 0.  0.
         12    1    1    2    0    0  0.48176573516E+01  0.13173476246E+02 -0.12406840886E+02  0.18726451868E+02  0.00000000000E+00 0. -1.
         11    1    3    3    0    0  0.11173510192E+02  0.13238953409E+02  0.16413546463E+02  0.23864654305E+02  0.51100000000E-03 0. -1.
        -11    1    3    3    0    0 -0.58568084169E+01 -0.10658155107E+02  0.16709974647E+02  0.20666923528E+02  0.51100000000E-03 0.  1.
        -12    1    3    3    0    0 -0.10134359126E+02 -0.15754274548E+02 -0.20716680224E+02  0.27929970299E+02  0.00000000000E+00 0.  1.
</event>
<event>
 7    1  0.2153242E-013  0.7246177E+02  0.7816164E-02  0.1226707E+00
        -11   -1    0    0    0    0  0.00000000000E+00  0.00000000000E+00  0.45593999997E+02  0.45594000000E+02  0.51100000000E-03 0. -1.
         11   -1    0    0    0    0 -0.00000000000E+00 -0.00000000000E+00 -0.45593999997E+02  0.45594000000E+02  0.51100000000E-03 0.  1.
    9900012    2    1    2    0    0 -0.12700662024E+02 -0.40642880378E+01  0.13147105061E+02  0.72461771747E+02  0.70000262429E+02 0.  0.
         12    1    1    2    0    0  0.12700662024E+02  0.40642880378E+01 -0.13147105061E+02  0.18726228253E+02  0.00000000000E+00 0. -1.
         11    1    3    3    0    0 -0.89491991082E+01 -0.18145618941E+01  0.12265435591E+02  0.15291229841E+02  0.51100000000E-03 0. -1.
        -11    1    3    3    0    0 -0.10650998681E+02  0.24872097262E+02  0.81479894373E+01  0.28256941222E+02  0.51100000000E-03 0.  1.
         12    1    3    3    0    0  0.68995357650E+01 -0.27121823406E+02 -0.72663199669E+01  0.28913600684E+02  0.00000000000E+00 0. -1.
</event>
<event>
 7    1  0.2153242E-013  0.7246136E+02  0.7816164E-02  0.1226709E+00
        -11   -1    0    0    0    0  0.00000000000E+00  0.00000000000E+00  0.45593999997E+02  0.45594000000E+02  0.51100000000E-03 0.  1.
         11   -1    0    0    0    0 -0.00000000000E+00 -0.00000000000E+00 -0.45593999997E+02  0.45594000000E+02  0.51100000000E-03 0. -1.
    9900012    2    1    2    0    0  0.81455093847E+01 -0.15409282874E+02  0.68477432271E+01  0.72461363646E+02  0.69999730801E+02 0.  0.
         12    1    1    2    0    0 -0.81455093847E+01  0.15409282874E+02 -0.68477432271E+01  0.18726636354E+02  0.00000000000E+00 0. -1.
         11    1    3    3    0    0  0.22773466811E+00 -0.13353529936E+02 -0.15350522881E+02  0.20347166333E+02  0.51100000000E-03 0. -1.
        -11    1    3    3    0    0 -0.10445631956E+02 -0.18598831017E+02  0.15908468568E+02  0.26610282122E+02  0.51100000000E-03 0.  1.
         12    1    3    3    0    0  0.18363406673E+02  0.16543078079E+02  0.62897975398E+01  0.25503915190E+02  0.00000000000E+00 0. -1.
</event>
<event>
 7    1  0.2153242E-013  0.7246157E+02  0.7816164E-02  0.1226708E+00
        -11   -1    0    0    0    0  0.00000000000E+00  0.00000000000E+00  0.45593999997E+02  0.45594000000E+02  0.51100000000E-03 0.  1.
         11   -1    0    0    0    0 -0.00000000000E+00 -0.00000000000E+00 -0.45593999997E+02  0.45594000000E+02  0.51100000000E-03 0. -1.
    9900012    2    1    2    0    0 -0.14078908293E+02  0.11748849998E+02 -0.37984106758E+01  0.72461573254E+02  0.70000003856E+02 0.  0.
         12    1    1    2    0    0  0.14078908293E+02 -0.11748849998E+02  0.37984106758E+01  0.18726426746E+02  0.00000000000E+00 0. -1.
         11    1    3    3    0    0  0.11538101457E+01 -0.63845136734E+01  0.15888718206E+02  0.17162303435E+02  0.51100000000E-03 0. -1.
        -11    1    3    3    0    0 -0.12150508422E+02 -0.86552413525E+01  0.77657030195E+01  0.16818269870E+02  0.51100000000E-03 0.  1.
         12    1    3    3    0    0 -0.30822100171E+01  0.26788605024E+02 -0.27452831901E+02  0.38480999949E+02  0.00000000000E+00 0. -1.
</event>
<event>
 7    1  0.2153242E-013  0.7246160E+02  0.7816164E-02  0.1226708E+00
        -11   -1    0    0    0    0  0.00000000000E+00  0.00000000000E+00  0.45593999997E+02  0.45594000000E+02  0.51100000000E-03 0.  1.
         11   -1    0    0    0    0 -0.00000000000E+00 -0.00000000000E+00 -0.45593999997E+02  0.45594000000E+02  0.51100000000E-03 0. -1.
    9900012    2    1    2    0    0  0.59804306204E+00  0.18632332333E+02  0.17766884012E+01  0.72461599242E+02  0.70000037710E+02 0.  0.
         12    1    1    2    0    0 -0.59804306204E+00 -0.18632332333E+02 -0.17766884012E+01  0.18726400758E+02  0.00000000000E+00 0. -1.
         11    1    3    3    0    0 -0.14040307486E+01  0.21577847314E+02  0.26831743149E+02  0.34460371990E+02  0.51100000000E-03 0. -1.
        -11    1    3    3    0    0 -0.36331979426E+01  0.81743849656E+01  0.11140153802E+01  0.90145286835E+01  0.51100000000E-03 0.  1.
         12    1    3    3    0    0  0.56352717533E+01 -0.11119899947E+02 -0.26169070128E+02  0.28986698569E+02  0.00000000000E+00 0. -1.
</event>
<event>
 7    1  0.2153242E-013  0.7246158E+02  0.7816164E-02  0.1226708E+00
        -11   -1    0    0    0    0  0.00000000000E+00  0.00000000000E+00  0.45593999997E+02  0.45594000000E+02  0.51100000000E-03 0.  1.
         11   -1    0    0    0    0 -0.00000000000E+00 -0.00000000000E+00 -0.45593999997E+02  0.45594000000E+02  0.51100000000E-03 0. -1.
    9900012    2    1    2    0    0  0.13698502376E+02  0.56986801050E+01  0.11426066836E+02  0.72461576807E+02  0.70000008483E+02 0.  0.
         12    1    1    2    0    0 -0.13698502376E+02 -0.56986801050E+01 -0.11426066836E+02  0.18726423193E+02  0.00000000000E+00 0. -1.
         11    1    3    3    0    0 -0.16642640931E+02  0.24709952103E+02  0.11743818343E+02  0.32023061996E+02  0.51100000000E-03 0. -1.
        -11    1    3    3    0    0  0.58752295652E+01  0.37419235358E+01 -0.89295358766E+00  0.70226548087E+01  0.51100000000E-03 0.  1.
        -12    1    3    3    0    0  0.24465913741E+02 -0.22753195534E+02  0.57520208121E+00  0.33415860002E+02  0.00000000000E+00 0.  1.
</event>
<event>
 7    1  0.2153242E-013  0.7246158E+02  0.7816164E-02  0.1226708E+00
        -11   -1    0    0    0    0  0.00000000000E+00  0.00000000000E+00  0.45593999997E+02  0.45594000000E+02  0.51100000000E-03 0. -1.
         11   -1    0    0    0    0 -0.00000000000E+00 -0.00000000000E+00 -0.45593999997E+02  0.45594000000E+02  0.51100000000E-03 0.  1.
    9900012    2    1    2    0    0  0.96070758589E+01 -0.13528438603E+02 -0.86812626250E+01  0.72461578069E+02  0.70000010127E+02 0.  0.
         12    1    1    2    0    0 -0.96070758589E+01  0.13528438603E+02  0.86812626250E+01  0.18726421931E+02  0.00000000000E+00 0. -1.
         11    1    3    3    0    0 -0.55917021279E+01 -0.14704464175E+01 -0.54699324373E-01  0.57820703585E+01  0.51100000000E-03 0. -1.
        -11    1    3    3    0    0 -0.73422110389E+01 -0.29812993598E+02 -0.19070312586E+02  0.36144148525E+02  0.51100000000E-03 0.  1.
        -12    1    3    3    0    0  0.22540989026E+02  0.17755001413E+02  0.10443749286E+02  0.30535359185E+02  0.00000000000E+00 0.  1.
</event>
<event>
 7    1  0.2153242E-013  0.7246163E+02  0.7816164E-02  0.1226708E+00
        -11   -1    0    0    0    0  0.00000000000E+00  0.00000000000E+00  0.45593999997E+02  0.45594000000E+02  0.51100000000E-03 0. -1.
         11   -1    0    0    0    0 -0.00000000000E+00 -0.00000000000E+00 -0.45593999997E+02  0.45594000000E+02  0.51100000000E-03 0.  1.
    9900012    2    1    2    0    0  0.84588278779E+00 -0.10075512869E+02 -0.15762156625E+02  0.72461626653E+02  0.70000073418E+02 0.  0.
         12    1    1    2    0    0 -0.84588278779E+00  0.10075512869E+02  0.15762156625E+02  0.18726373347E+02  0.00000000000E+00 0. -1.
         11    1    3    3    0    0 -0.38196829273E+01 -0.97311487041E+01 -0.58233201824E+01  0.11966465266E+02  0.51100000000E-03 0. -1.
        -11    1    3    3    0    0 -0.22220819850E+01 -0.23512304637E+02 -0.23047384437E+02  0.32999212829E+02  0.51100000000E-03 0.  1.
         12    1    3    3    0    0  0.68876477001E+01  0.23167940472E+02  0.13108547994E+02  0.27495948558E+02  0.00000000000E+00 0. -1.
</event>
<event>
 7    1  0.2153242E-013  0.7246157E+02  0.7816164E-02  0.1226708E+00
        -11   -1    0    0    0    0  0.00000000000E+00  0.00000000000E+00  0.45593999997E+02  0.45594000000E+02  0.51100000000E-03 0.  1.
         11   -1    0    0    0    0 -0.00000000000E+00 -0.00000000000E+00 -0.45593999997E+02  0.45594000000E+02  0.51100000000E-03 0. -1.
    9900012    2    1    2    0    0  0.49181053143E+01  0.10674879324E+02  0.14578699131E+02  0.72461567430E+02  0.69999996268E+02 0.  0.
         12    1    1    2    0    0 -0.49181053143E+01 -0.10674879324E+02 -0.14578699131E+02  0.18726432570E+02  0.00000000000E+00 0. -1.
         11    1    3    3    0    0  0.29324013565E+01  0.91572324201E+01 -0.54567036417E+01  0.11055745032E+02  0.51100000000E-03 0. -1.
        -11    1    3    3    0    0  0.24726343941E+02 -0.64323380942E+01 -0.56758946307E+01  0.26172176795E+02  0.51100000000E-03 0.  1.
         12    1    3    3    0    0 -0.22740639984E+02  0.79499849980E+01  0.25711297403E+02  0.35233645603E+02  0.00000000000E+00 0. -1.
</event>
<event>
 7    1  0.2153242E-013  0.7246155E+02  0.7816164E-02  0.1226708E+00
        -11   -1    0    0    0    0  0.00000000000E+00  0.00000000000E+00  0.45593999997E+02  0.45594000000E+02  0.51100000000E-03 0. -1.
         11   -1    0    0    0    0 -0.00000000000E+00 -0.00000000000E+00 -0.45593999997E+02  0.45594000000E+02  0.51100000000E-03 0.  1.
    9900012    2    1    2    0    0  0.13214903935E+02 -0.35185343469E+01 -0.12793205306E+02  0.72461551539E+02  0.69999975568E+02 0.  0.
         12    1    1    2    0    0 -0.13214903935E+02  0.35185343469E+01  0.12793205306E+02  0.18726448461E+02  0.00000000000E+00 0. -1.
         11    1    3    3    0    0 -0.22229483968E+02 -0.42659890862E+01 -0.66273216099E+01  0.23585377087E+02  0.51100000000E-03 0. -1.
        -11    1    3    3    0    0 -0.32096241051E+01  0.81471198484E+01 -0.34998425402E+01  0.94300661073E+01  0.51100000000E-03 0.  1.
        -12    1    3    3    0    0  0.38654012008E+02 -0.73996651090E+01 -0.26660411558E+01  0.39446108344E+02  0.00000000000E+00 0.  1.
</event>
<event>
 7    1  0.2153242E-013  0.7246167E+02  0.7816164E-02  0.1226708E+00
        -11   -1    0    0    0    0  0.00000000000E+00  0.00000000000E+00  0.45593999997E+02  0.45594000000E+02  0.51100000000E-03 0. -1.
         11   -1    0    0    0    0 -0.00000000000E+00 -0.00000000000E+00 -0.45593999997E+02  0.45594000000E+02  0.51100000000E-03 0.  1.
    9900012    2    1    2    0    0  0.17034466073E+02 -0.22453686852E+00  0.77750933592E+01  0.72461667525E+02  0.70000126661E+02 0.  0.
         12    1    1    2    0    0 -0.17034466073E+02  0.22453686852E+00 -0.77750933592E+01  0.18726332475E+02  0.00000000000E+00 0. -1.
         11    1    3    3    0    0 -0.11251091806E+02 -0.51776129466E+01  0.13676045357E+02  0.18450717046E+02  0.51100000000E-03 0. -1.
        -11    1    3    3    0    0  0.19150618014E+01 -0.15276813970E+02  0.87273494865E+01  0.17697885074E+02  0.51100000000E-03 0.  1.
        -12    1    3    3    0    0  0.26370496078E+02  0.20229890048E+02 -0.14628301484E+02  0.36313065405E+02  0.00000000000E+00 0.  1.
</event>
<event>
 7    1  0.2153242E-013  0.7246158E+02  0.7816164E-02  0.1226708E+00
        -11   -1    0    0    0    0  0.00000000000E+00  0.00000000000E+00  0.45593999997E+02  0.45594000000E+02  0.51100000000E-03 0. -1.
         11   -1    0    0    0    0 -0.00000000000E+00 -0.00000000000E+00 -0.45593999997E+02  0.45594000000E+02  0.51100000000E-03 0.  1.
    9900012    2    1    2    0    0  0.97415343445E+01 -0.14171336766E+02 -0.74131257942E+01  0.72461582533E+02  0.70000015943E+02 0.  0.
         12    1    1    2    0    0 -0.97415343445E+01  0.14171336766E+02  0.74131257942E+01  0.18726417467E+02  0.00000000000E+00 0. -1.
         11    1    3    3    0    0 -0.14230138475E+02 -0.17454768213E+02  0.21086336228E+02  0.30851245521E+02  0.51100000000E-03 0. -1.
        -11    1    3    3    0    0 -0.13515570943E+01  0.47025450477E+01 -0.56330489128E+01  0.74613589124E+01  0.51100000000E-03 0.  1.
        -12    1    3    3    0    0  0.25323229914E+02 -0.14191136007E+01 -0.22866413110E+02  0.34148978099E+02  0.00000000000E+00 0.  1.
</event>
<event>
 7    1  0.2153242E-013  0.7246157E+02  0.7816164E-02  0.1226708E+00
        -11   -1    0    0    0    0  0.00000000000E+00  0.00000000000E+00  0.45593999997E+02  0.45594000000E+02  0.51100000000E-03 0. -1.
         11   -1    0    0    0    0 -0.00000000000E+00 -0.00000000000E+00 -0.45593999997E+02  0.45594000000E+02  0.51100000000E-03 0.  1.
    9900012    2    1    2    0    0  0.57837781649E+01  0.87308357647E+01 -0.15524158434E+02  0.72461572735E+02  0.70000003180E+02 0.  0.
         12    1    1    2    0    0 -0.57837781649E+01 -0.87308357647E+01  0.15524158434E+02  0.18726427265E+02  0.00000000000E+00 0. -1.
         11    1    3    3    0    0  0.17960681294E+02  0.16335497241E+00 -0.33293077164E+01  0.18267376591E+02  0.51100000000E-03 0.  1.
        -11    1    3    3    0    0  0.18804084132E+02  0.45907299954E+01 -0.12346312652E+02  0.22958654540E+02  0.51100000000E-03 0. -1.
        -12    1    3    3    0    0 -0.30980987261E+02  0.39767507969E+01  0.15146193428E+00  0.31235541604E+02  0.00000000000E+00 0.  1.
</event>
<event>
 7    1  0.2153242E-013  0.7246158E+02  0.7816164E-02  0.1226708E+00
        -11   -1    0    0    0    0  0.00000000000E+00  0.00000000000E+00  0.45593999997E+02  0.45594000000E+02  0.51100000000E-03 0. -1.
         11   -1    0    0    0    0 -0.00000000000E+00 -0.00000000000E+00 -0.45593999997E+02  0.45594000000E+02  0.51100000000E-03 0.  1.
    9900012    2    1    2    0    0 -0.10897006955E+01  0.13031310750E+02 -0.13404334448E+02  0.72461583112E+02  0.70000016697E+02 0.  0.
         12    1    1    2    0    0  0.10897006955E+01 -0.13031310750E+02  0.13404334448E+02  0.18726416888E+02  0.00000000000E+00 0. -1.
         11    1    3    3    0    0 -0.21505926848E+00 -0.18022198002E+02 -0.13225392403E+02  0.22355242692E+02  0.51100000000E-03 0. -1.
        -11    1    3    3    0    0  0.14354568923E+02  0.82497938338E+00 -0.63195477627E+01  0.15705760858E+02  0.51100000000E-03 0.  1.
        -12    1    3    3    0    0 -0.15229210350E+02  0.30228529369E+02  0.61406057178E+01  0.34400579563E+02  0.00000000000E+00 0.  1.
</event>
<event>
 7    1  0.2153242E-013  0.7246154E+02  0.7816164E-02  0.1226708E+00
        -11   -1    0    0    0    0  0.00000000000E+00  0.00000000000E+00  0.45593999997E+02  0.45594000000E+02  0.51100000000E-03 0.  1.
         11   -1    0    0    0    0 -0.00000000000E+00 -0.00000000000E+00 -0.45593999997E+02  0.45594000000E+02  0.51100000000E-03 0. -1.
    9900012    2    1    2    0    0 -0.67631377196E+01 -0.15798487781E+02  0.74396167202E+01  0.72461544251E+02  0.69999966074E+02 0.  0.
         12    1    1    2    0    0  0.67631377196E+01  0.15798487781E+02 -0.74396167202E+01  0.18726455749E+02  0.00000000000E+00 0. -1.
         11    1    3    3    0    0 -0.39421628393E+01 -0.83354565563E+01 -0.48117831553E+00  0.92332018653E+01  0.51100000000E-03 0. -1.
        -11    1    3    3    0    0  0.23006421789E+02 -0.11294672837E+02  0.21810608490E+02  0.33653643503E+02  0.51100000000E-03 0.  1.
         12    1    3    3    0    0 -0.25827396670E+02  0.38316416127E+01 -0.13889813455E+02  0.29574698883E+02  0.00000000000E+00 0. -1.
</event>
<event>
 7    1  0.2153242E-013  0.7246161E+02  0.7816164E-02  0.1226708E+00
        -11   -1    0    0    0    0  0.00000000000E+00  0.00000000000E+00  0.45593999997E+02  0.45594000000E+02  0.51100000000E-03 0.  1.
         11   -1    0    0    0    0 -0.00000000000E+00 -0.00000000000E+00 -0.45593999997E+02  0.45594000000E+02  0.51100000000E-03 0. -1.
    9900012    2    1    2    0    0 -0.17149818871E+02  0.68677610363E+01  0.30651459180E+01  0.72461613577E+02  0.70000056383E+02 0.  0.
         12    1    1    2    0    0  0.17149818871E+02 -0.68677610363E+01 -0.30651459180E+01  0.18726386423E+02  0.00000000000E+00 0. -1.
         11    1    3    3    0    0 -0.52680407361E+01 -0.22877261910E+02 -0.11520576026E+02  0.26150430932E+02  0.51100000000E-03 0. -1.
        -11    1    3    3    0    0  0.34127434624E+01 -0.42448256604E+01 -0.15990634162E+01  0.56764748654E+01  0.51100000000E-03 0.  1.
        -12    1    3    3    0    0 -0.15294521598E+02  0.33989848607E+02  0.16184785360E+02  0.40634707780E+02  0.00000000000E+00 0.  1.
</event>
<event>
 7    1  0.2153242E-013  0.7246127E+02  0.7816164E-02  0.1226709E+00
        -11   -1    0    0    0    0  0.00000000000E+00  0.00000000000E+00  0.45593999997E+02  0.45594000000E+02  0.51100000000E-03 0.  1.
         11   -1    0    0    0    0 -0.00000000000E+00 -0.00000000000E+00 -0.45593999997E+02  0.45594000000E+02  0.51100000000E-03 0. -1.
    9900012    2    1    2    0    0  0.23763832141E+01  0.14513877755E+01  0.18518550639E+02  0.72461269335E+02  0.69999607943E+02 0.  0.
         12    1    1    2    0    0 -0.23763832141E+01 -0.14513877755E+01 -0.18518550639E+02  0.18726730665E+02  0.00000000000E+00 0. -1.
         11    1    3    3    0    0 -0.20169947445E+02  0.96993963651E+01  0.48360461601E+01  0.22897432444E+02  0.51100000000E-03 0. -1.
        -11    1    3    3    0    0  0.58631571643E+01  0.16163842616E+02  0.53006078788E+00  0.17202540067E+02  0.51100000000E-03 0.  1.
         12    1    3    3    0    0  0.16683173495E+02 -0.24411851205E+02  0.13152443691E+02  0.32361296825E+02  0.00000000000E+00 0. -1.
</event>
<event>
 7    1  0.2153242E-013  0.7246155E+02  0.7816164E-02  0.1226708E+00
        -11   -1    0    0    0    0  0.00000000000E+00  0.00000000000E+00  0.45593999997E+02  0.45594000000E+02  0.51100000000E-03 0. -1.
         11   -1    0    0    0    0 -0.00000000000E+00 -0.00000000000E+00 -0.45593999997E+02  0.45594000000E+02  0.51100000000E-03 0.  1.
    9900012    2    1    2    0    0 -0.11383985206E+02 -0.94481639472E+01 -0.11481164569E+02  0.72461546491E+02  0.69999968992E+02 0.  0.
         12    1    1    2    0    0  0.11383985206E+02  0.94481639472E+01  0.11481164569E+02  0.18726453509E+02  0.00000000000E+00 0. -1.
         11    1    3    3    0    0  0.64535989121E+01  0.15911819521E+01 -0.11672792185E+02  0.13432604981E+02  0.51100000000E-03 0.  1.
        -11    1    3    3    0    0  0.11618981236E+02 -0.19140584604E+02 -0.12844440497E+02  0.25813607960E+02  0.51100000000E-03 0. -1.
         12    1    3    3    0    0 -0.29456565355E+02  0.81012387049E+01  0.13036068112E+02  0.33215333550E+02  0.00000000000E+00 0. -1.
</event>
<event>
 7    1  0.2153242E-013  0.7246158E+02  0.7816164E-02  0.1226708E+00
        -11   -1    0    0    0    0  0.00000000000E+00  0.00000000000E+00  0.45593999997E+02  0.45594000000E+02  0.51100000000E-03 0. -1.
         11   -1    0    0    0    0 -0.00000000000E+00 -0.00000000000E+00 -0.45593999997E+02  0.45594000000E+02  0.51100000000E-03 0.  1.
    9900012    2    1    2    0    0 -0.74803214120E+01  0.16663547350E+02  0.41291381955E+01  0.72461580135E+02  0.70000012820E+02 0.  0.
         12    1    1    2    0    0  0.74803214120E+01 -0.16663547350E+02 -0.41291381955E+01  0.18726419865E+02  0.00000000000E+00 0. -1.
         11    1    3    3    0    0 -0.41379069864E+01  0.12802729308E+02  0.17608186133E+01  0.13569548055E+02  0.51100000000E-03 0. -1.
        -11    1    3    3    0    0  0.25600807084E+02  0.12238583078E+02 -0.19978219461E+01  0.28446010826E+02  0.51100000000E-03 0.  1.
        -12    1    3    3    0    0 -0.28943221510E+02 -0.83777650366E+01  0.43661415282E+01  0.30446021254E+02  0.00000000000E+00 0.  1.
</event>
<event>
 7    1  0.2153242E-013  0.7246158E+02  0.7816164E-02  0.1226708E+00
        -11   -1    0    0    0    0  0.00000000000E+00  0.00000000000E+00  0.45593999997E+02  0.45594000000E+02  0.51100000000E-03 0.  1.
         11   -1    0    0    0    0 -0.00000000000E+00 -0.00000000000E+00 -0.45593999997E+02  0.45594000000E+02  0.51100000000E-03 0. -1.
    9900012    2    1    2    0    0  0.16275364064E+02  0.34149769248E+01  0.86098414385E+01  0.72461577159E+02  0.70000008943E+02 0.  0.
         12    1    1    2    0    0 -0.16275364064E+02 -0.34149769248E+01 -0.86098414385E+01  0.18726422841E+02  0.00000000000E+00 0. -1.
         11    1    3    3    0    0  0.16554631545E+02  0.11555279890E+01  0.12875708700E+02  0.21004164952E+02  0.51100000000E-03 0. -1.
        -11    1    3    3    0    0  0.18411955070E+02 -0.34277731008E+00 -0.19781604679E+02  0.27026458697E+02  0.51100000000E-03 0.  1.
        -12    1    3    3    0    0 -0.18691222550E+02  0.26022262459E+01  0.15515737417E+02  0.24430953511E+02  0.00000000000E+00 0.  1.
</event>
<event>
 7    1  0.2153242E-013  0.7246169E+02  0.7816164E-02  0.1226708E+00
        -11   -1    0    0    0    0  0.00000000000E+00  0.00000000000E+00  0.45593999997E+02  0.45594000000E+02  0.51100000000E-03 0.  1.
         11   -1    0    0    0    0 -0.00000000000E+00 -0.00000000000E+00 -0.45593999997E+02  0.45594000000E+02  0.51100000000E-03 0. -1.
    9900012    2    1    2    0    0  0.17519409120E+01  0.69728959143E+00  0.18631137880E+02  0.72461686737E+02  0.70000151688E+02 0.  0.
         12    1    1    2    0    0 -0.17519409120E+01 -0.69728959143E+00 -0.18631137880E+02  0.18726313263E+02  0.00000000000E+00 0. -1.
         11    1    3    3    0    0  0.26159607611E+01 -0.12558586806E+02 -0.10975773958E+02  0.16882800938E+02  0.51100000000E-03 0. -1.
        -11    1    3    3    0    0  0.18877661743E+02 -0.56208644916E+01  0.13314007757E+02  0.23774419727E+02  0.51100000000E-03 0.  1.
         12    1    3    3    0    0 -0.19741681593E+02  0.18876740889E+02  0.16292904081E+02  0.31804466072E+02  0.00000000000E+00 0. -1.
</event>
<event>
 7    1  0.2153242E-013  0.7246169E+02  0.7816164E-02  0.1226708E+00
        -11   -1    0    0    0    0  0.00000000000E+00  0.00000000000E+00  0.45593999997E+02  0.45594000000E+02  0.51100000000E-03 0.  1.
         11   -1    0    0    0    0 -0.00000000000E+00 -0.00000000000E+00 -0.45593999997E+02  0.45594000000E+02  0.51100000000E-03 0. -1.
    9900012    2    1    2    0    0 -0.16540594036E+02  0.56987547975E+01  0.66788980631E+01  0.72461688653E+02  0.70000154185E+02 0.  0.
         12    1    1    2    0    0  0.16540594036E+02 -0.56987547975E+01 -0.66788980631E+01  0.18726311347E+02  0.00000000000E+00 0. -1.
         11    1    3    3    0    0  0.58347977345E+01  0.12907902847E+02  0.17136470304E+02  0.22233250668E+02  0.51100000000E-03 0. -1.
        -11    1    3    3    0    0  0.29526028679E+00  0.11887339173E+02 -0.16139578849E+02  0.20046995210E+02  0.51100000000E-03 0.  1.
        -12    1    3    3    0    0 -0.22670652057E+02 -0.19096487223E+02  0.56820066077E+01  0.30181442776E+02  0.00000000000E+00 0.  1.
</event>
<event>
 7    1  0.2153242E-013  0.7246157E+02  0.7816164E-02  0.1226708E+00
        -11   -1    0    0    0    0  0.00000000000E+00  0.00000000000E+00  0.45593999997E+02  0.45594000000E+02  0.51100000000E-03 0.  1.
         11   -1    0    0    0    0 -0.00000000000E+00 -0.00000000000E+00 -0.45593999997E+02  0.45594000000E+02  0.51100000000E-03 0. -1.
    9900012    2    1    2    0    0  0.45303666604E+01 -0.18157156158E+02  0.68744903550E+00  0.72461571403E+02  0.70000001444E+02 0.  0.
         12    1    1    2    0    0 -0.45303666604E+01  0.18157156158E+02 -0.68744903550E+00  0.18726428597E+02  0.00000000000E+00 0. -1.
         11    1    3    3    0    0  0.13621513040E+01  0.55935043832E+01  0.74836033855E+00  0.58054104865E+01  0.51100000000E-03 0. -1.
        -11    1    3    3    0    0 -0.28333419304E+02 -0.37746622008E+01 -0.50375318453E+01  0.29024256261E+02  0.51100000000E-03 0.  1.
        -12    1    3    3    0    0  0.31501634660E+02 -0.19975998340E+02  0.49766205423E+01  0.37631904655E+02  0.00000000000E+00 0.  1.
</event>
<event>
 7    1  0.2153242E-013  0.7246187E+02  0.7816164E-02  0.1226707E+00
        -11   -1    0    0    0    0  0.00000000000E+00  0.00000000000E+00  0.45593999997E+02  0.45594000000E+02  0.51100000000E-03 0.  1.
         11   -1    0    0    0    0 -0.00000000000E+00 -0.00000000000E+00 -0.45593999997E+02  0.45594000000E+02  0.51100000000E-03 0. -1.
    9900012    2    1    2    0    0  0.14758787081E+02  0.11372734073E+02 -0.18727642059E+01  0.72461865263E+02  0.70000384251E+02 0.  0.
         12    1    1    2    0    0 -0.14758787081E+02 -0.11372734073E+02  0.18727642059E+01  0.18726134737E+02  0.00000000000E+00 0. -1.
         11    1    3    3    0    0  0.10646070915E+02 -0.23335567660E+01 -0.14031492296E+02  0.17767022526E+02  0.51100000000E-03 0. -1.
        -11    1    3    3    0    0  0.21921222127E+02 -0.82696668741E+01 -0.11016244468E+01  0.23455083594E+02  0.51100000000E-03 0.  1.
         12    1    3    3    0    0 -0.17808505961E+02  0.21975957713E+02  0.13260352537E+02  0.31239759144E+02  0.00000000000E+00 0. -1.
</event>
<event>
 7    1  0.2153242E-013  0.7246160E+02  0.7816164E-02  0.1226708E+00
        -11   -1    0    0    0    0  0.00000000000E+00  0.00000000000E+00  0.45593999997E+02  0.45594000000E+02  0.51100000000E-03 0. -1.
         11   -1    0    0    0    0 -0.00000000000E+00 -0.00000000000E+00 -0.45593999997E+02  0.45594000000E+02  0.51100000000E-03 0.  1.
    9900012    2    1    2    0    0 -0.16534230324E+01  0.89748000903E+01 -0.16352287563E+02  0.72461597438E+02  0.70000035359E+02 0.  0.
         12    1    1    2    0    0  0.16534230324E+01 -0.89748000903E+01  0.16352287563E+02  0.18726402562E+02  0.00000000000E+00 0. -1.
         11    1    3    3    0    0  0.43918449248E+01  0.26470137065E+02  0.14542337038E+02  0.30519436837E+02  0.51100000000E-03 0. -1.
        -11    1    3    3    0    0 -0.53110949133E+01  0.38281887928E+01 -0.42409398901E+01  0.78005339576E+01  0.51100000000E-03 0.  1.
        -12    1    3    3    0    0 -0.73417304392E+00 -0.21323525767E+02 -0.26653684711E+02  0.34141626643E+02  0.00000000000E+00 0.  1.
</event>
<event>
 7    1  0.2153242E-013  0.7246159E+02  0.7816164E-02  0.1226708E+00
        -11   -1    0    0    0    0  0.00000000000E+00  0.00000000000E+00  0.45593999997E+02  0.45594000000E+02  0.51100000000E-03 0. -1.
         11   -1    0    0    0    0 -0.00000000000E+00 -0.00000000000E+00 -0.45593999997E+02  0.45594000000E+02  0.51100000000E-03 0.  1.
    9900012    2    1    2    0    0 -0.17402715178E+02  0.62588273350E+01  0.29412670335E+01  0.72461589054E+02  0.70000024438E+02 0.  0.
         12    1    1    2    0    0  0.17402715178E+02 -0.62588273350E+01 -0.29412670335E+01  0.18726410946E+02  0.00000000000E+00 0. -1.
         11    1    3    3    0    0 -0.18138386792E+02  0.30559786369E+02  0.20012292508E+02  0.40784721036E+02  0.51100000000E-03 0. -1.
        -11    1    3    3    0    0  0.20831986317E+00 -0.56049098319E+01 -0.10406021717E+02  0.11821323937E+02  0.51100000000E-03 0.  1.
        -12    1    3    3    0    0  0.52735175150E+00 -0.18696049202E+02 -0.66650037568E+01  0.19855544080E+02  0.00000000000E+00 0.  1.
</event>
<event>
 7    1  0.2153242E-013  0.7246156E+02  0.7816164E-02  0.1226708E+00
        -11   -1    0    0    0    0  0.00000000000E+00  0.00000000000E+00  0.45593999997E+02  0.45594000000E+02  0.51100000000E-03 0.  1.
         11   -1    0    0    0    0 -0.00000000000E+00 -0.00000000000E+00 -0.45593999997E+02  0.45594000000E+02  0.51100000000E-03 0. -1.
    9900012    2    1    2    0    0 -0.94120111613E+01  0.14861060581E+02  0.64220378965E+01  0.72461557560E+02  0.69999983412E+02 0.  0.
         12    1    1    2    0    0  0.94120111613E+01 -0.14861060581E+02 -0.64220378965E+01  0.18726442440E+02  0.00000000000E+00 0. -1.
         11    1    3    3    0    0  0.16070903502E+01  0.16824776377E+01  0.23283377238E+01  0.32915994914E+01  0.51100000000E-03 0. -1.
        -11    1    3    3    0    0  0.15181121443E+02  0.29986711089E+02  0.14135591301E+02  0.36462093082E+02  0.51100000000E-03 0.  1.
         12    1    3    3    0    0 -0.26200222954E+02 -0.16808128146E+02 -0.10041891129E+02  0.32707864987E+02  0.00000000000E+00 0. -1.
</event>
<event>
 7    1  0.2153242E-013  0.7246151E+02  0.7816164E-02  0.1226708E+00
        -11   -1    0    0    0    0  0.00000000000E+00  0.00000000000E+00  0.45593999997E+02  0.45594000000E+02  0.51100000000E-03 0. -1.
         11   -1    0    0    0    0 -0.00000000000E+00 -0.00000000000E+00 -0.45593999997E+02  0.45594000000E+02  0.51100000000E-03 0.  1.
    9900012    2    1    2    0    0  0.86458102783E+01 -0.11408990310E+02 -0.12073373338E+02  0.72461509698E+02  0.69999921063E+02 0.  0.
         12    1    1    2    0    0 -0.86458102783E+01  0.11408990310E+02  0.12073373338E+02  0.18726490302E+02  0.00000000000E+00 0. -1.
         11    1    3    3    0    0 -0.49520803771E+01 -0.60913423315E+01  0.15780780499E+02  0.17625566229E+02  0.51100000000E-03 0. -1.
        -11    1    3    3    0    0 -0.80203325723E+01  0.18025820809E+00  0.88125370554E+01  0.11917174044E+02  0.51100000000E-03 0.  1.
        -12    1    3    3    0    0  0.21618223228E+02 -0.54979061867E+01 -0.36666690892E+02  0.42918769425E+02  0.00000000000E+00 0.  1.
</event>
<event>
 7    1  0.2153242E-013  0.7246158E+02  0.7816164E-02  0.1226708E+00
        -11   -1    0    0    0    0  0.00000000000E+00  0.00000000000E+00  0.45593999997E+02  0.45594000000E+02  0.51100000000E-03 0. -1.
         11   -1    0    0    0    0 -0.00000000000E+00 -0.00000000000E+00 -0.45593999997E+02  0.45594000000E+02  0.51100000000E-03 0.  1.
    9900012    2    1    2    0    0 -0.10634491062E+02 -0.10890042802E+02 -0.10908413816E+02  0.72461576840E+02  0.70000008527E+02 0.  0.
         12    1    1    2    0    0  0.10634491062E+02  0.10890042802E+02  0.10908413816E+02  0.18726423160E+02  0.00000000000E+00 0. -1.
         11    1    3    3    0    0 -0.49539790579E+01  0.17268218727E+02  0.13880146930E+02  0.22702241422E+02  0.51100000000E-03 0. -1.
        -11    1    3    3    0    0  0.11767137497E+02 -0.15084514456E+02 -0.38180124609E+01  0.19508596071E+02  0.51100000000E-03 0.  1.
        -12    1    3    3    0    0 -0.17447649501E+02 -0.13073747073E+02 -0.20970548286E+02  0.30250739347E+02  0.00000000000E+00 0.  1.
</event>
<event>
 7    1  0.2153242E-013  0.7246157E+02  0.7816164E-02  0.1226708E+00
        -11   -1    0    0    0    0  0.00000000000E+00  0.00000000000E+00  0.45593999997E+02  0.45594000000E+02  0.51100000000E-03 0. -1.
         11   -1    0    0    0    0 -0.00000000000E+00 -0.00000000000E+00 -0.45593999997E+02  0.45594000000E+02  0.51100000000E-03 0.  1.
    9900012    2    1    2    0    0 -0.19178906514E+01 -0.18625504124E+02  0.30240510395E+00  0.72461570621E+02  0.70000000426E+02 0.  0.
         12    1    1    2    0    0  0.19178906514E+01  0.18625504124E+02 -0.30240510395E+00  0.18726429379E+02  0.00000000000E+00 0. -1.
         11    1    3    3    0    0  0.20145980444E+01 -0.57028392640E+01 -0.73082618576E+01  0.94863940774E+01  0.51100000000E-03 0. -1.
        -11    1    3    3    0    0 -0.82384505386E+01 -0.36912014043E+02  0.15091546478E+01  0.37850315666E+02  0.51100000000E-03 0.  1.
         12    1    3    3    0    0  0.43059618428E+01  0.23989349183E+02  0.61015123138E+01  0.25124860878E+02  0.00000000000E+00 0. -1.
</event>
<event>
 7    1  0.2153242E-013  0.7246155E+02  0.7816164E-02  0.1226708E+00
        -11   -1    0    0    0    0  0.00000000000E+00  0.00000000000E+00  0.45593999997E+02  0.45594000000E+02  0.51100000000E-03 0.  1.
         11   -1    0    0    0    0 -0.00000000000E+00 -0.00000000000E+00 -0.45593999997E+02  0.45594000000E+02  0.51100000000E-03 0. -1.
    9900012    2    1    2    0    0 -0.22425135335E+01 -0.15764886513E+02  0.98549132056E+01  0.72461552712E+02  0.69999977096E+02 0.  0.
         12    1    1    2    0    0  0.22425135335E+01  0.15764886513E+02 -0.98549132056E+01  0.18726447288E+02  0.00000000000E+00 0. -1.
         11    1    3    3    0    0  0.18789801572E+02 -0.81494466779E+01 -0.49098749071E+01  0.21061267677E+02  0.51100000000E-03 0. -1.
        -11    1    3    3    0    0  0.56217371659E+01 -0.10307812214E+02  0.20849614459E+02  0.23928254110E+02  0.51100000000E-03 0.  1.
        -12    1    3    3    0    0 -0.26654052272E+02  0.26923723783E+01 -0.60848263461E+01  0.27472030926E+02  0.00000000000E+00 0.  1.
</event>
<event>
 7    1  0.2153242E-013  0.7246161E+02  0.7816164E-02  0.1226708E+00
        -11   -1    0    0    0    0  0.00000000000E+00  0.00000000000E+00  0.45593999997E+02  0.45594000000E+02  0.51100000000E-03 0.  1.
         11   -1    0    0    0    0 -0.00000000000E+00 -0.00000000000E+00 -0.45593999997E+02  0.45594000000E+02  0.51100000000E-03 0. -1.
    9900012    2    1    2    0    0 -0.68093269464E+00  0.12206821519E+02  0.14184758274E+02  0.72461614117E+02  0.70000057087E+02 0.  0.
         12    1    1    2    0    0  0.68093269464E+00 -0.12206821519E+02 -0.14184758274E+02  0.18726385883E+02  0.00000000000E+00 0. -1.
         11    1    3    3    0    0 -0.20235928911E+01  0.50018929902E+01  0.17741050370E+01  0.56799041028E+01  0.51100000000E-03 0. -1.
        -11    1    3    3    0    0  0.33047237461E+02  0.44884601047E+01  0.10238759642E+02  0.34886937057E+02  0.51100000000E-03 0.  1.
         12    1    3    3    0    0 -0.31704577265E+02  0.27164684245E+01  0.21718935949E+01  0.31894772958E+02  0.00000000000E+00 0. -1.
</event>
<event>
 7    1  0.2153242E-013  0.7246156E+02  0.7816164E-02  0.1226708E+00
        -11   -1    0    0    0    0  0.00000000000E+00  0.00000000000E+00  0.45593999997E+02  0.45594000000E+02  0.51100000000E-03 0. -1.
         11   -1    0    0    0    0 -0.00000000000E+00 -0.00000000000E+00 -0.45593999997E+02  0.45594000000E+02  0.51100000000E-03 0.  1.
    9900012    2    1    2    0    0 -0.97944053944E+00 -0.17396059145E+02  0.68627600428E+01  0.72461557387E+02  0.69999983186E+02 0.  0.
         12    1    1    2    0    0  0.97944053944E+00  0.17396059145E+02 -0.68627600428E+01  0.18726442613E+02  0.00000000000E+00 0. -1.
         11    1    3    3    0    0 -0.69754103073E+00  0.49488162850E+01 -0.45234913023E+01  0.67408693753E+01  0.51100000000E-03 0. -1.
        -11    1    3    3    0    0  0.29490707488E+01  0.15101899948E+02 -0.13642308100E+02  0.20563972643E+02  0.51100000000E-03 0.  1.
         12    1    3    3    0    0 -0.32309702575E+01 -0.37446775377E+02  0.25028559446E+02  0.45156715368E+02  0.00000000000E+00 0. -1.
</event>
<event>
 7    1  0.2153242E-013  0.7246165E+02  0.7816164E-02  0.1226708E+00
        -11   -1    0    0    0    0  0.00000000000E+00  0.00000000000E+00  0.45593999997E+02  0.45594000000E+02  0.51100000000E-03 0. -1.
         11   -1    0    0    0    0 -0.00000000000E+00 -0.00000000000E+00 -0.45593999997E+02  0.45594000000E+02  0.51100000000E-03 0.  1.
    9900012    2    1    2    0    0 -0.13509438143E+02  0.77748677729E+01  0.10378950907E+02  0.72461651991E+02  0.70000106425E+02 0.  0.
         12    1    1    2    0    0  0.13509438143E+02 -0.77748677729E+01 -0.10378950907E+02  0.18726348009E+02  0.00000000000E+00 0. -1.
         11    1    3    3    0    0  0.11581340912E+02  0.15149896881E+02 -0.63632865669E+01  0.20103190021E+02  0.51100000000E-03 0. -1.
        -11    1    3    3    0    0 -0.58177231007E+01 -0.23631722235E+02  0.69522648919E+01  0.25310831382E+02  0.51100000000E-03 0.  1.
         12    1    3    3    0    0 -0.19273055954E+02  0.16256693127E+02  0.97899725821E+01  0.27047630588E+02  0.00000000000E+00 0. -1.
</event>
<event>
 7    1  0.2153242E-013  0.7246163E+02  0.7816164E-02  0.1226708E+00
        -11   -1    0    0    0    0  0.00000000000E+00  0.00000000000E+00  0.45593999997E+02  0.45594000000E+02  0.51100000000E-03 0. -1.
         11   -1    0    0    0    0 -0.00000000000E+00 -0.00000000000E+00 -0.45593999997E+02  0.45594000000E+02  0.51100000000E-03 0.  1.
    9900012    2    1    2    0    0 -0.54969041700E+01 -0.15123767124E+02 -0.95777086165E+01  0.72461633833E+02  0.70000082771E+02 0.  0.
         12    1    1    2    0    0  0.54969041700E+01  0.15123767124E+02  0.95777086165E+01  0.18726366167E+02  0.00000000000E+00 0. -1.
         11    1    3    3    0    0 -0.18835160650E+02 -0.49569832497E+00  0.64231247145E+01  0.19906419188E+02  0.51100000000E-03 0. -1.
        -11    1    3    3    0    0 -0.10726329361E+02  0.10511672777E+02 -0.72192053472E+01  0.16663322965E+02  0.51100000000E-03 0.  1.
         12    1    3    3    0    0  0.24064585841E+02 -0.25139741576E+02 -0.87816279837E+01  0.35891891679E+02  0.00000000000E+00 0. -1.
</event>
<event>
 7    1  0.2153242E-013  0.7246164E+02  0.7816164E-02  0.1226708E+00
        -11   -1    0    0    0    0  0.00000000000E+00  0.00000000000E+00  0.45593999997E+02  0.45594000000E+02  0.51100000000E-03 0.  1.
         11   -1    0    0    0    0 -0.00000000000E+00 -0.00000000000E+00 -0.45593999997E+02  0.45594000000E+02  0.51100000000E-03 0. -1.
    9900012    2    1    2    0    0 -0.71302724020E+01  0.14756624858E+02  0.90596705350E+01  0.72461644457E+02  0.70000096610E+02 0.  0.
         12    1    1    2    0    0  0.71302724020E+01 -0.14756624858E+02 -0.90596705350E+01  0.18726355543E+02  0.00000000000E+00 0. -1.
         11    1    3    3    0    0 -0.16125790976E+02 -0.11304311705E+02 -0.76680718691E+01  0.21133573389E+02  0.51100000000E-03 0. -1.
        -11    1    3    3    0    0 -0.11603848957E+02  0.19575422997E+02 -0.18628390131E+01  0.22832360052E+02  0.51100000000E-03 0.  1.
        -12    1    3    3    0    0  0.20599367530E+02  0.64855135666E+01  0.18590581417E+02  0.28495711016E+02  0.00000000000E+00 0.  1.
</event>
<event>
 7    1  0.2153242E-013  0.7246158E+02  0.7816164E-02  0.1226708E+00
        -11   -1    0    0    0    0  0.00000000000E+00  0.00000000000E+00  0.45593999997E+02  0.45594000000E+02  0.51100000000E-03 0. -1.
         11   -1    0    0    0    0 -0.00000000000E+00 -0.00000000000E+00 -0.45593999997E+02  0.45594000000E+02  0.51100000000E-03 0.  1.
    9900012    2    1    2    0    0 -0.15615195394E+02  0.78557011993E+01 -0.67180599674E+01  0.72461582877E+02  0.70000016391E+02 0.  0.
         12    1    1    2    0    0  0.15615195394E+02 -0.78557011993E+01  0.67180599674E+01  0.18726417123E+02  0.00000000000E+00 0. -1.
         11    1    3    3    0    0 -0.12480856396E+02  0.97185072568E+01  0.24649783152E+02  0.29288785727E+02  0.51100000000E-03 0. -1.
        -11    1    3    3    0    0 -0.11184356207E+02  0.10206856687E+02 -0.16690331480E+02  0.22535237127E+02  0.51100000000E-03 0.  1.
        -12    1    3    3    0    0  0.80500172080E+01 -0.12069662744E+02 -0.14677511639E+02  0.20637560023E+02  0.00000000000E+00 0.  1.
</event>
<event>
 7    1  0.2153242E-013  0.7246159E+02  0.7816164E-02  0.1226708E+00
        -11   -1    0    0    0    0  0.00000000000E+00  0.00000000000E+00  0.45593999997E+02  0.45594000000E+02  0.51100000000E-03 0.  1.
         11   -1    0    0    0    0 -0.00000000000E+00 -0.00000000000E+00 -0.45593999997E+02  0.45594000000E+02  0.51100000000E-03 0. -1.
    9900012    2    1    2    0    0 -0.14596473268E+02 -0.10184550020E+02  0.58220680373E+01  0.72461586377E+02  0.70000020950E+02 0.  0.
         12    1    1    2    0    0  0.14596473268E+02  0.10184550020E+02 -0.58220680373E+01  0.18726413623E+02  0.00000000000E+00 0. -1.
         11    1    3    3    0    0 -0.16858466524E+02 -0.10913270185E+02 -0.12060427514E+02  0.23425654137E+02  0.51100000000E-03 0. -1.
        -11    1    3    3    0    0 -0.26877864171E-01  0.23135084039E+02  0.92128808635E+01  0.24902008152E+02  0.51100000000E-03 0.  1.
         12    1    3    3    0    0  0.22888711202E+01 -0.22406363874E+02  0.86696146876E+01  0.24133924088E+02  0.00000000000E+00 0. -1.
</event>
<event>
 7    1  0.2153242E-013  0.7246153E+02  0.7816164E-02  0.1226708E+00
        -11   -1    0    0    0    0  0.00000000000E+00  0.00000000000E+00  0.45593999997E+02  0.45594000000E+02  0.51100000000E-03 0.  1.
         11   -1    0    0    0    0 -0.00000000000E+00 -0.00000000000E+00 -0.45593999997E+02  0.45594000000E+02  0.51100000000E-03 0. -1.
    9900012    2    1    2    0    0 -0.61865586934E+01 -0.16808334041E+02  0.54668975166E+01  0.72461532897E+02  0.69999951283E+02 0.  0.
         12    1    1    2    0    0  0.61865586934E+01  0.16808334041E+02 -0.54668975166E+01  0.18726467103E+02  0.00000000000E+00 0. -1.
         11    1    3    3    0    0 -0.91897657585E+01 -0.70162623738E+01 -0.80447110989E+01  0.14085350877E+02  0.51100000000E-03 0. -1.
        -11    1    3    3    0    0  0.41638492156E+01 -0.28237215794E+02 -0.83599489617E+01  0.29741666782E+02  0.51100000000E-03 0.  1.
        -12    1    3    3    0    0 -0.11606421506E+01  0.18445144127E+02  0.21871557577E+02  0.28634515238E+02  0.00000000000E+00 0.  1.
</event>
<event>
 7    1  0.2153242E-013  0.7246158E+02  0.7816164E-02  0.1226708E+00
        -11   -1    0    0    0    0  0.00000000000E+00  0.00000000000E+00  0.45593999997E+02  0.45594000000E+02  0.51100000000E-03 0.  1.
         11   -1    0    0    0    0 -0.00000000000E+00 -0.00000000000E+00 -0.45593999997E+02  0.45594000000E+02  0.51100000000E-03 0. -1.
    9900012    2    1    2    0    0 -0.11798261432E+02  0.93229182735E+01  0.11160781257E+02  0.72461579728E+02  0.70000012289E+02 0.  0.
         12    1    1    2    0    0  0.11798261432E+02 -0.93229182735E+01 -0.11160781257E+02  0.18726420272E+02  0.00000000000E+00 0. -1.
         11    1    3    3    0    0 -0.34697565550E+01  0.44606712357E+01 -0.40263654690E+01  0.69389060792E+01  0.51100000000E-03 0. -1.
        -11    1    3    3    0    0 -0.14243570166E+02  0.65739583160E+01 -0.22448446154E+02  0.27386656495E+02  0.51100000000E-03 0.  1.
        -12    1    3    3    0    0  0.59150652893E+01 -0.17117112781E+01  0.37635592880E+02  0.38136017153E+02  0.00000000000E+00 0.  1.
</event>
<event>
 7    1  0.2153242E-013  0.7246144E+02  0.7816164E-02  0.1226708E+00
        -11   -1    0    0    0    0  0.00000000000E+00  0.00000000000E+00  0.45593999997E+02  0.45594000000E+02  0.51100000000E-03 0. -1.
         11   -1    0    0    0    0 -0.00000000000E+00 -0.00000000000E+00 -0.45593999997E+02  0.45594000000E+02  0.51100000000E-03 0.  1.
    9900012    2    1    2    0    0  0.10512347751E+02 -0.15451969339E+02 -0.11879238202E+01  0.72461441995E+02  0.69999832867E+02 0.  0.
         12    1    1    2    0    0 -0.10512347751E+02  0.15451969339E+02  0.11879238202E+01  0.18726558005E+02  0.00000000000E+00 0. -1.
         11    1    3    3    0    0  0.24044567952E+02 -0.13774283813E+02  0.11917315988E+02  0.30164458609E+02  0.51100000000E-03 0. -1.
        -11    1    3    3    0    0  0.11409094490E+01 -0.17204061881E+02 -0.11802489089E+02  0.20894500916E+02  0.51100000000E-03 0.  1.
        -12    1    3    3    0    0 -0.14673129649E+02  0.15526376356E+02 -0.13027507196E+01  0.21402482470E+02  0.00000000000E+00 0.  1.
</event>
<event>
 7    1  0.2153242E-013  0.7246157E+02  0.7816164E-02  0.1226708E+00
        -11   -1    0    0    0    0  0.00000000000E+00  0.00000000000E+00  0.45593999997E+02  0.45594000000E+02  0.51100000000E-03 0. -1.
         11   -1    0    0    0    0 -0.00000000000E+00 -0.00000000000E+00 -0.45593999997E+02  0.45594000000E+02  0.51100000000E-03 0.  1.
    9900012    2    1    2    0    0 -0.75266335258E+01  0.39986382195E+01 -0.16674528322E+02  0.72461569091E+02  0.69999998433E+02 0.  0.
         12    1    1    2    0    0  0.75266335258E+01 -0.39986382195E+01  0.16674528322E+02  0.18726430909E+02  0.00000000000E+00 0. -1.
         11    1    3    3    0    0 -0.30259060429E+02 -0.95983491661E+00 -0.61201254984E+01  0.30886695477E+02  0.51100000000E-03 0. -1.
        -11    1    3    3    0    0  0.16561352950E+02 -0.11272078893E+02  0.20213319136E+01  0.20135142340E+02  0.51100000000E-03 0.  1.
        -12    1    3    3    0    0  0.61710739533E+01  0.16230552029E+02 -0.12575734737E+02  0.21439731273E+02  0.00000000000E+00 0.  1.
</event>
<event>
 7    1  0.2153242E-013  0.7246162E+02  0.7816164E-02  0.1226708E+00
        -11   -1    0    0    0    0  0.00000000000E+00  0.00000000000E+00  0.45593999997E+02  0.45594000000E+02  0.51100000000E-03 0. -1.
         11   -1    0    0    0    0 -0.00000000000E+00 -0.00000000000E+00 -0.45593999997E+02  0.45594000000E+02  0.51100000000E-03 0.  1.
    9900012    2    1    2    0    0 -0.57928390092E+01  0.10191990847E+02 -0.14602866773E+02  0.72461618097E+02  0.70000062271E+02 0.  0.
         12    1    1    2    0    0  0.57928390092E+01 -0.10191990847E+02  0.14602866773E+02  0.18726381903E+02  0.00000000000E+00 0. -1.
         11    1    3    3    0    0 -0.13778150849E+02 -0.16018740172E+02 -0.12127066821E+01  0.21163840276E+02  0.51100000000E-03 0.  1.
        -11    1    3    3    0    0  0.15811511600E+02  0.16812261162E+02  0.98049671771E+01  0.25075753350E+02  0.51100000000E-03 0. -1.
         12    1    3    3    0    0 -0.78261997605E+01  0.93984698557E+01 -0.23195127268E+02  0.26222024470E+02  0.00000000000E+00 0. -1.
</event>
<event>
 7    1  0.2153242E-013  0.7246152E+02  0.7816164E-02  0.1226708E+00
        -11   -1    0    0    0    0  0.00000000000E+00  0.00000000000E+00  0.45593999997E+02  0.45594000000E+02  0.51100000000E-03 0.  1.
         11   -1    0    0    0    0 -0.00000000000E+00 -0.00000000000E+00 -0.45593999997E+02  0.45594000000E+02  0.51100000000E-03 0. -1.
    9900012    2    1    2    0    0 -0.60063685324E+01  0.66982116378E+01  0.16423724347E+02  0.72461515452E+02  0.69999928558E+02 0.  0.
         12    1    1    2    0    0  0.60063685324E+01 -0.66982116378E+01 -0.16423724347E+02  0.18726484548E+02  0.00000000000E+00 0. -1.
         11    1    3    3    0    0  0.31368816766E+01  0.45464131689E+01 -0.40200625697E+00  0.55381864042E+01  0.51100000000E-03 0. -1.
        -11    1    3    3    0    0 -0.21871370846E+02  0.13678556178E+02 -0.15660438274E+02  0.30177957005E+02  0.51100000000E-03 0.  1.
         12    1    3    3    0    0  0.12728120637E+02 -0.11526757709E+02  0.32486168878E+02  0.36745372043E+02  0.00000000000E+00 0. -1.
</event>
<event>
 7    1  0.2153242E-013  0.7246157E+02  0.7816164E-02  0.1226708E+00
        -11   -1    0    0    0    0  0.00000000000E+00  0.00000000000E+00  0.45593999997E+02  0.45594000000E+02  0.51100000000E-03 0.  1.
         11   -1    0    0    0    0 -0.00000000000E+00 -0.00000000000E+00 -0.45593999997E+02  0.45594000000E+02  0.51100000000E-03 0. -1.
    9900012    2    1    2    0    0 -0.20748652595E+01  0.18610595332E+02  0.14040085296E+00  0.72461573837E+02  0.70000004614E+02 0.  0.
         12    1    1    2    0    0  0.20748652595E+01 -0.18610595332E+02 -0.14040085296E+00  0.18726426163E+02  0.00000000000E+00 0. -1.
         11    1    3    3    0    0  0.17547993081E+02  0.51147045786E+01 -0.93588350234E+01  0.20534849825E+02  0.51100000000E-03 0. -1.
        -11    1    3    3    0    0 -0.44288058621E+01  0.49385502371E+01 -0.18101552977E+02  0.19278740111E+02  0.51100000000E-03 0.  1.
        -12    1    3    3    0    0 -0.15194052478E+02  0.85573405162E+01  0.27600788854E+02  0.32647983900E+02  0.00000000000E+00 0.  1.
</event>
<event>
 7    1  0.2153242E-013  0.7246158E+02  0.7816164E-02  0.1226708E+00
        -11   -1    0    0    0    0  0.00000000000E+00  0.00000000000E+00  0.45593999997E+02  0.45594000000E+02  0.51100000000E-03 0. -1.
         11   -1    0    0    0    0 -0.00000000000E+00 -0.00000000000E+00 -0.45593999997E+02  0.45594000000E+02  0.51100000000E-03 0.  1.
    9900012    2    1    2    0    0 -0.11236239520E+02 -0.14711452451E+02 -0.28282486460E+01  0.72461577433E+02  0.70000009299E+02 0.  0.
         12    1    1    2    0    0  0.11236239520E+02  0.14711452451E+02  0.28282486460E+01  0.18726422567E+02  0.00000000000E+00 0. -1.
         11    1    3    3    0    0  0.12423261340E+01 -0.10305333523E+02 -0.10048942520E+02  0.14447301453E+02  0.51100000000E-03 0. -1.
        -11    1    3    3    0    0  0.82249091829E+01  0.18419090969E+02  0.16249490548E+02  0.25902856725E+02  0.51100000000E-03 0.  1.
         12    1    3    3    0    0 -0.20703474837E+02 -0.22825209897E+02 -0.90287966738E+01  0.32111419255E+02  0.00000000000E+00 0. -1.
</event>
<event>
 7    1  0.2153242E-013  0.7246154E+02  0.7816164E-02  0.1226708E+00
        -11   -1    0    0    0    0  0.00000000000E+00  0.00000000000E+00  0.45593999997E+02  0.45594000000E+02  0.51100000000E-03 0.  1.
         11   -1    0    0    0    0 -0.00000000000E+00 -0.00000000000E+00 -0.45593999997E+02  0.45594000000E+02  0.51100000000E-03 0. -1.
    9900012    2    1    2    0    0  0.78418140986E+01 -0.12567827739E+02  0.11455831779E+02  0.72461536794E+02  0.69999956360E+02 0.  0.
         12    1    1    2    0    0 -0.78418140986E+01  0.12567827739E+02 -0.11455831779E+02  0.18726463206E+02  0.00000000000E+00 0. -1.
         11    1    3    3    0    0 -0.10655478760E+02 -0.21028601825E+02  0.26165957927E+02  0.35219294099E+02  0.51100000000E-03 0. -1.
        -11    1    3    3    0    0  0.74999744988E+01 -0.93481464484E+01 -0.10409117602E+02  0.15874104353E+02  0.51100000000E-03 0.  1.
        -12    1    3    3    0    0  0.10997318360E+02  0.17808920534E+02 -0.43010085452E+01  0.21368138342E+02  0.00000000000E+00 0.  1.
</event>
<event>
 7    1  0.2153242E-013  0.7246156E+02  0.7816164E-02  0.1226708E+00
        -11   -1    0    0    0    0  0.00000000000E+00  0.00000000000E+00  0.45593999997E+02  0.45594000000E+02  0.51100000000E-03 0. -1.
         11   -1    0    0    0    0 -0.00000000000E+00 -0.00000000000E+00 -0.45593999997E+02  0.45594000000E+02  0.51100000000E-03 0.  1.
    9900012    2    1    2    0    0  0.55984733198E+01  0.17687134377E+02 -0.25498600824E+01  0.72461563809E+02  0.69999991552E+02 0.  0.
         12    1    1    2    0    0 -0.55984733198E+01 -0.17687134377E+02  0.25498600824E+01  0.18726436191E+02  0.00000000000E+00 0. -1.
         11    1    3    3    0    0  0.20925390085E+02 -0.10497069449E+01  0.72839494566E+01  0.22181743728E+02  0.51100000000E-03 0. -1.
        -11    1    3    3    0    0 -0.11525536959E+02  0.19810741912E+02  0.13509463761E+02  0.26604682082E+02  0.51100000000E-03 0.  1.
        -12    1    3    3    0    0 -0.38013798058E+01 -0.10739005906E+01 -0.23343273300E+02  0.23675137999E+02  0.00000000000E+00 0.  1.
</event>
<event>
 7    1  0.2153242E-013  0.7246121E+02  0.7816164E-02  0.1226709E+00
        -11   -1    0    0    0    0  0.00000000000E+00  0.00000000000E+00  0.45593999997E+02  0.45594000000E+02  0.51100000000E-03 0. -1.
         11   -1    0    0    0    0 -0.00000000000E+00 -0.00000000000E+00 -0.45593999997E+02  0.45594000000E+02  0.51100000000E-03 0.  1.
    9900012    2    1    2    0    0 -0.55248391427E+01  0.17366455931E+02  0.43098551563E+01  0.72461214622E+02  0.69999536669E+02 0.  0.
         12    1    1    2    0    0  0.55248391427E+01 -0.17366455931E+02 -0.43098551563E+01  0.18726785378E+02  0.00000000000E+00 0. -1.
         11    1    3    3    0    0  0.28921313982E+00 -0.17781752471E+02  0.78584070106E+01  0.19442965982E+02  0.51100000000E-03 0. -1.
        -11    1    3    3    0    0  0.35695563627E+01 -0.50378406300E+01 -0.94940083548E+01  0.11325094514E+02  0.51100000000E-03 0.  1.
        -12    1    3    3    0    0 -0.93836086451E+01  0.40186049031E+02  0.59454565006E+01  0.41693154126E+02  0.00000000000E+00 0.  1.
</event>
<event>
 7    1  0.2153242E-013  0.7246172E+02  0.7816164E-02  0.1226708E+00
        -11   -1    0    0    0    0  0.00000000000E+00  0.00000000000E+00  0.45593999997E+02  0.45594000000E+02  0.51100000000E-03 0.  1.
         11   -1    0    0    0    0 -0.00000000000E+00 -0.00000000000E+00 -0.45593999997E+02  0.45594000000E+02  0.51100000000E-03 0. -1.
    9900012    2    1    2    0    0  0.66148323246E+00 -0.12425925017E+02 -0.13994008888E+02  0.72461722811E+02  0.70000198681E+02 0.  0.
         12    1    1    2    0    0 -0.66148323246E+00  0.12425925017E+02  0.13994008888E+02  0.18726277189E+02  0.00000000000E+00 0. -1.
         11    1    3    3    0    0  0.10361929442E+02 -0.30286096246E+02 -0.11207866540E+02  0.33915092219E+02  0.51100000000E-03 0. -1.
        -11    1    3    3    0    0 -0.16767694296E+02  0.35736747158E+00 -0.85303168108E+01  0.18816205480E+02  0.51100000000E-03 0.  1.
        -12    1    3    3    0    0  0.70672480856E+01  0.17502803757E+02  0.57441744625E+01  0.19730425113E+02  0.00000000000E+00 0.  1.
</event>
<event>
 7    1  0.2153242E-013  0.7246160E+02  0.7816164E-02  0.1226708E+00
        -11   -1    0    0    0    0  0.00000000000E+00  0.00000000000E+00  0.45593999997E+02  0.45594000000E+02  0.51100000000E-03 0.  1.
         11   -1    0    0    0    0 -0.00000000000E+00 -0.00000000000E+00 -0.45593999997E+02  0.45594000000E+02  0.51100000000E-03 0. -1.
    9900012    2    1    2    0    0 -0.44572860441E+01 -0.19406188980E+01  0.18084379564E+02  0.72461596586E+02  0.70000034250E+02 0.  0.
         12    1    1    2    0    0  0.44572860441E+01  0.19406188980E+01 -0.18084379564E+02  0.18726403414E+02  0.00000000000E+00 0. -1.
         11    1    3    3    0    0  0.23876143622E+02 -0.46695069187E+01  0.11656692871E+01  0.24356381387E+02  0.51100000000E-03 0. -1.
        -11    1    3    3    0    0  0.66984969424E+01 -0.56604465453E+01  0.13946982590E+01  0.88800731909E+01  0.51100000000E-03 0.  1.
         12    1    3    3    0    0 -0.35031926609E+02  0.83893345661E+01  0.15524012018E+02  0.39225142008E+02  0.00000000000E+00 0. -1.
</event>
<event>
 7    1  0.2153242E-013  0.7246158E+02  0.7816164E-02  0.1226708E+00
        -11   -1    0    0    0    0  0.00000000000E+00  0.00000000000E+00  0.45593999997E+02  0.45594000000E+02  0.51100000000E-03 0. -1.
         11   -1    0    0    0    0 -0.00000000000E+00 -0.00000000000E+00 -0.45593999997E+02  0.45594000000E+02  0.51100000000E-03 0.  1.
    9900012    2    1    2    0    0  0.88824186054E+01 -0.16465534928E+02  0.81711362153E+00  0.72461578147E+02  0.70000010230E+02 0.  0.
         12    1    1    2    0    0 -0.88824186054E+01  0.16465534928E+02 -0.81711362153E+00  0.18726421853E+02  0.00000000000E+00 0. -1.
         11    1    3    3    0    0 -0.14104618055E+02  0.43266084074E+01 -0.78295340922E+01  0.16702137443E+02  0.51100000000E-03 0. -1.
        -11    1    3    3    0    0  0.67189300479E+01  0.88659989208E+01 -0.11813053899E+02  0.16226466052E+02  0.51100000000E-03 0.  1.
        -12    1    3    3    0    0  0.16268106613E+02 -0.29658142256E+02  0.20459701612E+02  0.39532974653E+02  0.00000000000E+00 0.  1.
</event>
<event>
 7    1  0.2153242E-013  0.7246093E+02  0.7816164E-02  0.1226710E+00
        -11   -1    0    0    0    0  0.00000000000E+00  0.00000000000E+00  0.45593999997E+02  0.45594000000E+02  0.51100000000E-03 0.  1.
         11   -1    0    0    0    0 -0.00000000000E+00 -0.00000000000E+00 -0.45593999997E+02  0.45594000000E+02  0.51100000000E-03 0. -1.
    9900012    2    1    2    0    0  0.14615401643E+02  0.11640409195E+02  0.12625265391E+01  0.72460932299E+02  0.69999168888E+02 0.  0.
         12    1    1    2    0    0 -0.14615401643E+02 -0.11640409195E+02 -0.12625265391E+01  0.18727067701E+02  0.00000000000E+00 0. -1.
         11    1    3    3    0    0 -0.12566904741E+02 -0.94065093860E+01 -0.10375965240E+02  0.18816752337E+02  0.51100000000E-03 0. -1.
        -11    1    3    3    0    0  0.25882898799E+01  0.12127054051E+02 -0.12815915508E+02  0.17832901476E+02  0.51100000000E-03 0.  1.
        -12    1    3    3    0    0  0.24594016504E+02  0.89198645305E+01  0.24454407287E+02  0.35811278486E+02  0.00000000000E+00 0.  1.
</event>
<event>
 7    1  0.2153242E-013  0.7246121E+02  0.7816164E-02  0.1226709E+00
        -11   -1    0    0    0    0  0.00000000000E+00  0.00000000000E+00  0.45593999997E+02  0.45594000000E+02  0.51100000000E-03 0. -1.
         11   -1    0    0    0    0 -0.00000000000E+00 -0.00000000000E+00 -0.45593999997E+02  0.45594000000E+02  0.51100000000E-03 0.  1.
    9900012    2    1    2    0    0  0.10315394943E+02 -0.36242854275E+01 -0.15203611193E+02  0.72461211407E+02  0.69999532481E+02 0.  0.
         12    1    1    2    0    0 -0.10315394943E+02  0.36242854275E+01  0.15203611193E+02  0.18726788593E+02  0.00000000000E+00 0. -1.
         11    1    3    3    0    0 -0.84043518629E+00 -0.21061638182E+01 -0.16001321008E+02  0.16161204521E+02  0.51100000000E-03 0. -1.
        -11    1    3    3    0    0  0.21660317061E+02  0.21081751516E+02 -0.51915655561E+01  0.30668582219E+02  0.51100000000E-03 0.  1.
         12    1    3    3    0    0 -0.10504486932E+02 -0.22599873125E+02  0.59892753704E+01  0.25631424666E+02  0.00000000000E+00 0. -1.
</event>
<event>
 7    1  0.2153242E-013  0.7246159E+02  0.7816164E-02  0.1226708E+00
        -11   -1    0    0    0    0  0.00000000000E+00  0.00000000000E+00  0.45593999997E+02  0.45594000000E+02  0.51100000000E-03 0.  1.
         11   -1    0    0    0    0 -0.00000000000E+00 -0.00000000000E+00 -0.45593999997E+02  0.45594000000E+02  0.51100000000E-03 0. -1.
    9900012    2    1    2    0    0 -0.41775408221E+01 -0.14471913338E+02  0.11126104413E+02  0.72461592913E+02  0.70000029465E+02 0.  0.
         12    1    1    2    0    0  0.41775408221E+01  0.14471913338E+02 -0.11126104413E+02  0.18726407087E+02  0.00000000000E+00 0. -1.
         11    1    3    3    0    0  0.23823744409E+02 -0.98308346357E+01  0.17160719516E+01  0.25829460128E+02  0.51100000000E-03 0. -1.
        -11    1    3    3    0    0  0.63327076410E+01  0.69602564729E+01  0.13599623846E+01  0.95077786146E+01  0.51100000000E-03 0.  1.
        -12    1    3    3    0    0 -0.34333992872E+02 -0.11601335175E+02  0.80500700767E+01  0.37124354171E+02  0.00000000000E+00 0.  1.
</event>
<event>
 7    1  0.2153242E-013  0.7246158E+02  0.7816164E-02  0.1226708E+00
        -11   -1    0    0    0    0  0.00000000000E+00  0.00000000000E+00  0.45593999997E+02  0.45594000000E+02  0.51100000000E-03 0.  1.
         11   -1    0    0    0    0 -0.00000000000E+00 -0.00000000000E+00 -0.45593999997E+02  0.45594000000E+02  0.51100000000E-03 0. -1.
    9900012    2    1    2    0    0  0.42094411879E+01 -0.14251023134E-01  0.18247173426E+02  0.72461576522E+02  0.70000008113E+02 0.  0.
         12    1    1    2    0    0 -0.42094411879E+01  0.14251023134E-01 -0.18247173426E+02  0.18726423478E+02  0.00000000000E+00 0. -1.
         11    1    3    3    0    0 -0.34926307524E+01  0.20704958870E+02 -0.94577912111E+01  0.23029190308E+02  0.51100000000E-03 0. -1.
        -11    1    3    3    0    0 -0.10764502434E+02 -0.19865434620E+01 -0.37967872682E+00  0.10952854595E+02  0.51100000000E-03 0.  1.
        -12    1    3    3    0    0  0.18466574374E+02 -0.18732666432E+02  0.28084643364E+02  0.38479531620E+02  0.00000000000E+00 0.  1.
</event>
<event>
 7    1  0.2153242E-013  0.7246158E+02  0.7816164E-02  0.1226708E+00
        -11   -1    0    0    0    0  0.00000000000E+00  0.00000000000E+00  0.45593999997E+02  0.45594000000E+02  0.51100000000E-03 0.  1.
         11   -1    0    0    0    0 -0.00000000000E+00 -0.00000000000E+00 -0.45593999997E+02  0.45594000000E+02  0.51100000000E-03 0. -1.
    9900012    2    1    2    0    0 -0.67851603094E+01 -0.17393426678E+02  0.14522816689E+01  0.72461579785E+02  0.70000012363E+02 0.  0.
         12    1    1    2    0    0  0.67851603094E+01  0.17393426678E+02 -0.14522816689E+01  0.18726420215E+02  0.00000000000E+00 0. -1.
         11    1    3    3    0    0  0.41744710702E+01  0.16547912192E+01  0.81180149266E+01  0.92772145229E+01  0.51100000000E-03 0. -1.
        -11    1    3    3    0    0 -0.28247443953E+02 -0.40390270154E+01  0.14498054029E+02  0.32006646185E+02  0.51100000000E-03 0.  1.
         12    1    3    3    0    0  0.17287812574E+02 -0.15009190882E+02 -0.21163787287E+02  0.31177719077E+02  0.00000000000E+00 0. -1.
</event>
<event>
 7    1  0.2153242E-013  0.7246156E+02  0.7816164E-02  0.1226708E+00
        -11   -1    0    0    0    0  0.00000000000E+00  0.00000000000E+00  0.45593999997E+02  0.45594000000E+02  0.51100000000E-03 0. -1.
         11   -1    0    0    0    0 -0.00000000000E+00 -0.00000000000E+00 -0.45593999997E+02  0.45594000000E+02  0.51100000000E-03 0.  1.
    9900012    2    1    2    0    0  0.30627063144E+01 -0.44542350423E+01 -0.17929278614E+02  0.72461563836E+02  0.69999991587E+02 0.  0.
         12    1    1    2    0    0 -0.30627063144E+01  0.44542350423E+01  0.17929278614E+02  0.18726436164E+02  0.00000000000E+00 0. -1.
         11    1    3    3    0    0  0.16942897341E+01  0.30218656507E+01 -0.98457870394E+01  0.10437519456E+02  0.51100000000E-03 0. -1.
        -11    1    3    3    0    0  0.73192406641E+01  0.21810555360E+02  0.12068574179E+02  0.25979262730E+02  0.51100000000E-03 0.  1.
         12    1    3    3    0    0 -0.59508240839E+01 -0.29286656054E+02 -0.20152065753E+02  0.36044781650E+02  0.00000000000E+00 0. -1.
</event>
<event>
 7    1  0.2153242E-013  0.7246159E+02  0.7816164E-02  0.1226708E+00
        -11   -1    0    0    0    0  0.00000000000E+00  0.00000000000E+00  0.45593999997E+02  0.45594000000E+02  0.51100000000E-03 0.  1.
         11   -1    0    0    0    0 -0.00000000000E+00 -0.00000000000E+00 -0.45593999997E+02  0.45594000000E+02  0.51100000000E-03 0. -1.
    9900012    2    1    2    0    0 -0.13833107282E+02  0.11318751417E+02  0.55865316475E+01  0.72461592802E+02  0.70000029320E+02 0.  0.
         12    1    1    2    0    0  0.13833107282E+02 -0.11318751417E+02 -0.55865316475E+01  0.18726407198E+02  0.00000000000E+00 0. -1.
         11    1    3    3    0    0 -0.43546961912E+01  0.51878895607E+01 -0.18516760191E+01  0.70218431593E+01  0.51100000000E-03 0. -1.
        -11    1    3    3    0    0 -0.74512038561E+01  0.35124179375E+02  0.53301687732E+01  0.36299299099E+02  0.51100000000E-03 0.  1.
         12    1    3    3    0    0 -0.20272072347E+01 -0.28993317519E+02  0.21080388934E+01  0.29140450544E+02  0.00000000000E+00 0. -1.
</event>
<event>
 7    1  0.2153242E-013  0.7246138E+02  0.7816164E-02  0.1226709E+00
        -11   -1    0    0    0    0  0.00000000000E+00  0.00000000000E+00  0.45593999997E+02  0.45594000000E+02  0.51100000000E-03 0. -1.
         11   -1    0    0    0    0 -0.00000000000E+00 -0.00000000000E+00 -0.45593999997E+02  0.45594000000E+02  0.51100000000E-03 0.  1.
    9900012    2    1    2    0    0  0.18521285010E+02 -0.26300565669E+01  0.85497234309E+00  0.72461383283E+02  0.69999756383E+02 0.  0.
         12    1    1    2    0    0 -0.18521285010E+02  0.26300565669E+01 -0.85497234309E+00  0.18726616717E+02  0.00000000000E+00 0. -1.
         11    1    3    3    0    0  0.96164244622E+01  0.48538152153E+01 -0.27042969272E-01  0.10771994855E+02  0.51100000000E-03 0. -1.
        -11    1    3    3    0    0  0.14669037440E+02 -0.23856122611E+02 -0.20090170311E+02  0.34466073011E+02  0.51100000000E-03 0.  1.
         12    1    3    3    0    0 -0.57641768926E+01  0.16372250829E+02  0.20972185623E+02  0.27223315416E+02  0.00000000000E+00 0. -1.
</event>
<event>
 7    1  0.2153242E-013  0.7246155E+02  0.7816164E-02  0.1226708E+00
        -11   -1    0    0    0    0  0.00000000000E+00  0.00000000000E+00  0.45593999997E+02  0.45594000000E+02  0.51100000000E-03 0.  1.
         11   -1    0    0    0    0 -0.00000000000E+00 -0.00000000000E+00 -0.45593999997E+02  0.45594000000E+02  0.51100000000E-03 0. -1.
    9900012    2    1    2    0    0  0.11849880327E+02 -0.14260345514E+02 -0.26273534240E+01  0.72461545345E+02  0.69999967499E+02 0.  0.
         12    1    1    2    0    0 -0.11849880327E+02  0.14260345514E+02  0.26273534240E+01  0.18726454655E+02  0.00000000000E+00 0. -1.
         11    1    3    3    0    0  0.16687492513E+01 -0.10746111855E+01  0.25621201543E+01  0.32409833708E+01  0.51100000000E-03 0. -1.
        -11    1    3    3    0    0 -0.72142058189E+01 -0.80286433595E+01  0.28764497260E+02  0.30722958560E+02  0.51100000000E-03 0.  1.
         12    1    3    3    0    0  0.17395336895E+02 -0.51570909689E+01 -0.33953970838E+02  0.38497603414E+02  0.00000000000E+00 0. -1.
</event>
<event>
 7    1  0.2153242E-013  0.7246121E+02  0.7816164E-02  0.1226709E+00
        -11   -1    0    0    0    0  0.00000000000E+00  0.00000000000E+00  0.45593999997E+02  0.45594000000E+02  0.51100000000E-03 0.  1.
         11   -1    0    0    0    0 -0.00000000000E+00 -0.00000000000E+00 -0.45593999997E+02  0.45594000000E+02  0.51100000000E-03 0. -1.
    9900012    2    1    2    0    0  0.50398517985E+01 -0.14017166059E+02  0.11349513002E+02  0.72461214481E+02  0.69999536486E+02 0.  0.
         12    1    1    2    0    0 -0.50398517985E+01  0.14017166059E+02 -0.11349513002E+02  0.18726785519E+02  0.00000000000E+00 0. -1.
         11    1    3    3    0    0  0.51584197174E+00 -0.23467529480E+01 -0.16434816919E+02  0.16609531895E+02  0.51100000000E-03 0. -1.
        -11    1    3    3    0    0 -0.45089817708E+01  0.16952366670E+02  0.15542750274E+02  0.23436952418E+02  0.51100000000E-03 0.  1.
        -12    1    3    3    0    0  0.90329915976E+01 -0.28622779781E+02  0.12241579647E+02  0.32414730168E+02  0.00000000000E+00 0.  1.
</event>
<event>
 7    1  0.2153242E-013  0.7246150E+02  0.7816164E-02  0.1226708E+00
        -11   -1    0    0    0    0  0.00000000000E+00  0.00000000000E+00  0.45593999997E+02  0.45594000000E+02  0.51100000000E-03 0.  1.
         11   -1    0    0    0    0 -0.00000000000E+00 -0.00000000000E+00 -0.45593999997E+02  0.45594000000E+02  0.51100000000E-03 0. -1.
    9900012    2    1    2    0    0  0.15889073782E+02 -0.18278620877E+01  0.97405437772E+01  0.72461496361E+02  0.69999903688E+02 0.  0.
         12    1    1    2    0    0 -0.15889073782E+02  0.18278620877E+01 -0.97405437772E+01  0.18726503639E+02  0.00000000000E+00 0. -1.
         11    1    3    3    0    0  0.18144319994E+02 -0.15526230862E+02  0.59617151774E+01  0.24613456502E+02  0.51100000000E-03 0. -1.
        -11    1    3    3    0    0  0.53493991498E+01  0.12255861576E+02  0.23290891347E+02  0.26856802383E+02  0.51100000000E-03 0.  1.
         12    1    3    3    0    0 -0.76046453620E+01  0.14425071984E+01 -0.19512062748E+02  0.20991237476E+02  0.00000000000E+00 0. -1.
</event>
<event>
 7    1  0.2153242E-013  0.7246158E+02  0.7816164E-02  0.1226708E+00
        -11   -1    0    0    0    0  0.00000000000E+00  0.00000000000E+00  0.45593999997E+02  0.45594000000E+02  0.51100000000E-03 0. -1.
         11   -1    0    0    0    0 -0.00000000000E+00 -0.00000000000E+00 -0.45593999997E+02  0.45594000000E+02  0.51100000000E-03 0.  1.
    9900012    2    1    2    0    0  0.24643447760E+01  0.13951999685E+02 -0.12245299994E+02  0.72461583837E+02  0.70000017641E+02 0.  0.
         12    1    1    2    0    0 -0.24643447760E+01 -0.13951999685E+02  0.12245299994E+02  0.18726416163E+02  0.00000000000E+00 0. -1.
         11    1    3    3    0    0 -0.55806903103E+01  0.19199879614E+02  0.38429507279E+01  0.20360445773E+02  0.51100000000E-03 0. -1.
        -11    1    3    3    0    0 -0.78402694226E+01  0.16286728050E+02 -0.17692583686E+02  0.25293375673E+02  0.51100000000E-03 0.  1.
        -12    1    3    3    0    0  0.15885304509E+02 -0.21534607979E+02  0.16043329640E+01  0.26807762391E+02  0.00000000000E+00 0.  1.
</event>
<event>
 7    1  0.2153242E-013  0.7246129E+02  0.7816164E-02  0.1226709E+00
        -11   -1    0    0    0    0  0.00000000000E+00  0.00000000000E+00  0.45593999997E+02  0.45594000000E+02  0.51100000000E-03 0.  1.
         11   -1    0    0    0    0 -0.00000000000E+00 -0.00000000000E+00 -0.45593999997E+02  0.45594000000E+02  0.51100000000E-03 0. -1.
    9900012    2    1    2    0    0  0.16988038827E+02 -0.25732744024E+01  0.74481136575E+01  0.72461291763E+02  0.69999637160E+02 0.  0.
         12    1    1    2    0    0 -0.16988038827E+02  0.25732744024E+01 -0.74481136575E+01  0.18726708237E+02  0.00000000000E+00 0. -1.
         11    1    3    3    0    0 -0.86550870344E+01  0.16301412252E+02 -0.92532685201E+01  0.20646296315E+02  0.51100000000E-03 0. -1.
        -11    1    3    3    0    0 -0.87661022985E+01 -0.69896531164E+01  0.95228327320E+01  0.14710001485E+02  0.51100000000E-03 0.  1.
        -12    1    3    3    0    0  0.34409228160E+02 -0.11885033538E+02  0.71785494456E+01  0.37104993962E+02  0.00000000000E+00 0.  1.
</event>
<event>
 7    1  0.2153242E-013  0.7246159E+02  0.7816164E-02  0.1226708E+00
        -11   -1    0    0    0    0  0.00000000000E+00  0.00000000000E+00  0.45593999997E+02  0.45594000000E+02  0.51100000000E-03 0. -1.
         11   -1    0    0    0    0 -0.00000000000E+00 -0.00000000000E+00 -0.45593999997E+02  0.45594000000E+02  0.51100000000E-03 0.  1.
    9900012    2    1    2    0    0  0.11152458444E+02 -0.51199408822E+01 -0.14145226333E+02  0.72461586783E+02  0.70000021479E+02 0.  0.
         12    1    1    2    0    0 -0.11152458444E+02  0.51199408822E+01  0.14145226333E+02  0.18726413217E+02  0.00000000000E+00 0. -1.
         11    1    3    3    0    0  0.21228980037E+02 -0.15287451108E+02  0.62447498252E+01  0.26895588029E+02  0.51100000000E-03 0. -1.
        -11    1    3    3    0    0  0.97524797614E+01 -0.86856093217E+01 -0.93501964316E+01  0.16061657584E+02  0.51100000000E-03 0.  1.
         12    1    3    3    0    0 -0.19829001354E+02  0.18853119548E+02 -0.11039779726E+02  0.29504341169E+02  0.00000000000E+00 0. -1.
</event>
<event>
 7    1  0.2153242E-013  0.7246148E+02  0.7816164E-02  0.1226708E+00
        -11   -1    0    0    0    0  0.00000000000E+00  0.00000000000E+00  0.45593999997E+02  0.45594000000E+02  0.51100000000E-03 0. -1.
         11   -1    0    0    0    0 -0.00000000000E+00 -0.00000000000E+00 -0.45593999997E+02  0.45594000000E+02  0.51100000000E-03 0.  1.
    9900012    2    1    2    0    0  0.16181011918E+02  0.93480646392E+01 -0.12129035720E+01  0.72461478853E+02  0.69999880881E+02 0.  0.
         12    1    1    2    0    0 -0.16181011918E+02 -0.93480646392E+01  0.12129035720E+01  0.18726521147E+02  0.00000000000E+00 0. -1.
         11    1    3    3    0    0  0.56071200171E+01 -0.17900490250E+02 -0.83014800042E+01  0.20512969473E+02  0.51100000000E-03 0. -1.
        -11    1    3    3    0    0 -0.66381987676E+01 -0.82529479378E+01 -0.34009050564E+01  0.11123982561E+02  0.51100000000E-03 0.  1.
        -12    1    3    3    0    0  0.17212090669E+02  0.35501502827E+02  0.10489481489E+02  0.40824526820E+02  0.00000000000E+00 0.  1.
</event>
<event>
 7    1  0.2153242E-013  0.7246160E+02  0.7816164E-02  0.1226708E+00
        -11   -1    0    0    0    0  0.00000000000E+00  0.00000000000E+00  0.45593999997E+02  0.45594000000E+02  0.51100000000E-03 0. -1.
         11   -1    0    0    0    0 -0.00000000000E+00 -0.00000000000E+00 -0.45593999997E+02  0.45594000000E+02  0.51100000000E-03 0.  1.
    9900012    2    1    2    0    0 -0.17779467962E+02 -0.55348386731E+01  0.19834623442E+01  0.72461600372E+02  0.70000039182E+02 0.  0.
         12    1    1    2    0    0  0.17779467962E+02  0.55348386731E+01 -0.19834623442E+01  0.18726399628E+02  0.00000000000E+00 0. -1.
         11    1    3    3    0    0  0.47008127127E+01  0.51476427970E+01  0.44956965885E+00  0.69855550721E+01  0.51100000000E-03 0. -1.
        -11    1    3    3    0    0 -0.35775750996E+02  0.21143796627E+01 -0.16696070315E+02  0.39536485996E+02  0.51100000000E-03 0.  1.
         12    1    3    3    0    0  0.13295470321E+02 -0.12796861133E+02  0.18229963000E+02  0.25939559305E+02  0.00000000000E+00 0. -1.
</event>
<event>
 7    1  0.2153242E-013  0.7246157E+02  0.7816164E-02  0.1226708E+00
        -11   -1    0    0    0    0  0.00000000000E+00  0.00000000000E+00  0.45593999997E+02  0.45594000000E+02  0.51100000000E-03 0.  1.
         11   -1    0    0    0    0 -0.00000000000E+00 -0.00000000000E+00 -0.45593999997E+02  0.45594000000E+02  0.51100000000E-03 0. -1.
    9900012    2    1    2    0    0 -0.88534286553E+01 -0.14175371098E+02  0.84471895350E+01  0.72461565322E+02  0.69999993523E+02 0.  0.
         12    1    1    2    0    0  0.88534286553E+01  0.14175371098E+02 -0.84471895350E+01  0.18726434678E+02  0.00000000000E+00 0. -1.
         11    1    3    3    0    0 -0.17517713769E+02 -0.30419961301E+02 -0.77140048660E+01  0.35940926708E+02  0.51100000000E-03 0. -1.
        -11    1    3    3    0    0 -0.26775159012E+00 -0.42518239200E+01 -0.44150550426E+01  0.61353409727E+01  0.51100000000E-03 0.  1.
        -12    1    3    3    0    0  0.89320367036E+01  0.20496414124E+02  0.20576249444E+02  0.30385297642E+02  0.00000000000E+00 0.  1.
</event>
<event>
 7    1  0.2153242E-013  0.7246167E+02  0.7816164E-02  0.1226708E+00
        -11   -1    0    0    0    0  0.00000000000E+00  0.00000000000E+00  0.45593999997E+02  0.45594000000E+02  0.51100000000E-03 0. -1.
         11   -1    0    0    0    0 -0.00000000000E+00 -0.00000000000E+00 -0.45593999997E+02  0.45594000000E+02  0.51100000000E-03 0.  1.
    9900012    2    1    2    0    0  0.91368369988E+01 -0.58732920883E+01 -0.15254440334E+02  0.72461673606E+02  0.70000134582E+02 0.  0.
         12    1    1    2    0    0 -0.91368369988E+01  0.58732920883E+01  0.15254440334E+02  0.18726326394E+02  0.00000000000E+00 0. -1.
         11    1    3    3    0    0  0.35567398199E+01 -0.66539240405E+01 -0.36597818732E+01  0.83856488660E+01  0.51100000000E-03 0. -1.
        -11    1    3    3    0    0 -0.26148914042E+02 -0.97102220537E+01  0.20733833746E+01  0.27970574481E+02  0.51100000000E-03 0.  1.
         12    1    3    3    0    0  0.31729011221E+02  0.10490854006E+02 -0.13668041836E+02  0.36105450259E+02  0.00000000000E+00 0. -1.
</event>
<event>
 7    1  0.2153242E-013  0.7246158E+02  0.7816164E-02  0.1226708E+00
        -11   -1    0    0    0    0  0.00000000000E+00  0.00000000000E+00  0.45593999997E+02  0.45594000000E+02  0.51100000000E-03 0.  1.
         11   -1    0    0    0    0 -0.00000000000E+00 -0.00000000000E+00 -0.45593999997E+02  0.45594000000E+02  0.51100000000E-03 0. -1.
    9900012    2    1    2    0    0 -0.10053254025E+00 -0.10198751683E+02  0.15705221666E+02  0.72461584692E+02  0.70000018756E+02 0.  0.
         12    1    1    2    0    0  0.10053254025E+00  0.10198751683E+02 -0.15705221666E+02  0.18726415308E+02  0.00000000000E+00 0. -1.
         11    1    3    3    0    0  0.17206602104E+02 -0.21449587228E+02 -0.13498460111E+02  0.30632668409E+02  0.51100000000E-03 0. -1.
        -11    1    3    3    0    0 -0.24861796102E+01  0.13087612737E+01 -0.35508173400E+01  0.45279409414E+01  0.51100000000E-03 0.  1.
        -12    1    3    3    0    0 -0.14820955034E+02  0.99420742711E+01  0.32754499118E+02  0.37300975341E+02  0.00000000000E+00 0.  1.
</event>
<event>
 7    1  0.2153242E-013  0.7246159E+02  0.7816164E-02  0.1226708E+00
        -11   -1    0    0    0    0  0.00000000000E+00  0.00000000000E+00  0.45593999997E+02  0.45594000000E+02  0.51100000000E-03 0. -1.
         11   -1    0    0    0    0 -0.00000000000E+00 -0.00000000000E+00 -0.45593999997E+02  0.45594000000E+02  0.51100000000E-03 0.  1.
    9900012    2    1    2    0    0  0.26794772714E+00  0.64024598032E+01 -0.17595883413E+02  0.72461590824E+02  0.70000026744E+02 0.  0.
         12    1    1    2    0    0 -0.26794772714E+00 -0.64024598032E+01  0.17595883413E+02  0.18726409176E+02  0.00000000000E+00 0. -1.
         11    1    3    3    0    0  0.86413303036E+01  0.30648329624E+00  0.37063148494E+01  0.94076187981E+01  0.51100000000E-03 0. -1.
        -11    1    3    3    0    0  0.15322349537E+02  0.95917665315E+01  0.12244795401E+02  0.21833721515E+02  0.51100000000E-03 0.  1.
        -12    1    3    3    0    0 -0.23695732114E+02 -0.34957900245E+01 -0.33546993664E+02  0.41220250511E+02  0.00000000000E+00 0.  1.
</event>
<event>
 7    1  0.2153242E-013  0.7246156E+02  0.7816164E-02  0.1226708E+00
        -11   -1    0    0    0    0  0.00000000000E+00  0.00000000000E+00  0.45593999997E+02  0.45594000000E+02  0.51100000000E-03 0. -1.
         11   -1    0    0    0    0 -0.00000000000E+00 -0.00000000000E+00 -0.45593999997E+02  0.45594000000E+02  0.51100000000E-03 0.  1.
    9900012    2    1    2    0    0 -0.42161771466E+01  0.17362719623E+02  0.56070733181E+01  0.72461562709E+02  0.69999990118E+02 0.  0.
         12    1    1    2    0    0  0.42161771466E+01 -0.17362719623E+02 -0.56070733181E+01  0.18726437291E+02  0.00000000000E+00 0. -1.
         11    1    3    3    0    0 -0.74999481064E+01 -0.15562684706E+02 -0.79112402188E+01  0.19000897319E+02  0.51100000000E-03 0. -1.
        -11    1    3    3    0    0  0.10163606916E+02 -0.45495420193E+01  0.10392235314E+02  0.15231408116E+02  0.51100000000E-03 0.  1.
        -12    1    3    3    0    0 -0.68798359561E+01  0.37474946348E+02  0.31260782228E+01  0.38229257273E+02  0.00000000000E+00 0.  1.
</event>
<event>
 7    1  0.2153242E-013  0.7246159E+02  0.7816164E-02  0.1226708E+00
        -11   -1    0    0    0    0  0.00000000000E+00  0.00000000000E+00  0.45593999997E+02  0.45594000000E+02  0.51100000000E-03 0.  1.
         11   -1    0    0    0    0 -0.00000000000E+00 -0.00000000000E+00 -0.45593999997E+02  0.45594000000E+02  0.51100000000E-03 0. -1.
    9900012    2    1    2    0    0 -0.39017080331E+00  0.32499310031E+01  0.18438118682E+02  0.72461588029E+02  0.70000023102E+02 0.  0.
         12    1    1    2    0    0  0.39017080331E+00 -0.32499310031E+01 -0.18438118682E+02  0.18726411971E+02  0.00000000000E+00 0. -1.
         11    1    3    3    0    0 -0.11412326567E+02 -0.12442757007E+02 -0.15224518323E+02  0.22734321147E+02  0.51100000000E-03 0. -1.
        -11    1    3    3    0    0  0.32884884831E+01  0.21944745224E+02  0.10558429542E+02  0.24573693945E+02  0.51100000000E-03 0.  1.
         12    1    3    3    0    0  0.77336672810E+01 -0.62520572136E+01  0.23104207462E+02  0.25153572937E+02  0.00000000000E+00 0. -1.
</event>
<event>
 7    1  0.2153242E-013  0.7246160E+02  0.7816164E-02  0.1226708E+00
        -11   -1    0    0    0    0  0.00000000000E+00  0.00000000000E+00  0.45593999997E+02  0.45594000000E+02  0.51100000000E-03 0.  1.
         11   -1    0    0    0    0 -0.00000000000E+00 -0.00000000000E+00 -0.45593999997E+02  0.45594000000E+02  0.51100000000E-03 0. -1.
    9900012    2    1    2    0    0  0.95991827352E+01  0.30845025518E+01  0.15780359274E+02  0.72461596074E+02  0.70000033583E+02 0.  0.
         12    1    1    2    0    0 -0.95991827352E+01 -0.30845025518E+01 -0.15780359274E+02  0.18726403926E+02  0.00000000000E+00 0. -1.
         11    1    3    3    0    0 -0.43586760693E+01  0.42968579094E+01  0.33624915931E+01  0.69833655887E+01  0.51100000000E-03 0. -1.
        -11    1    3    3    0    0  0.19681649792E+02  0.22122762239E+02  0.24639830224E+02  0.38521489864E+02  0.51100000000E-03 0.  1.
        -12    1    3    3    0    0 -0.57237909871E+01 -0.23335117597E+02 -0.12221962544E+02  0.26956740621E+02  0.00000000000E+00 0.  1.
</event>
<event>
 7    1  0.2153242E-013  0.7246154E+02  0.7816164E-02  0.1226708E+00
        -11   -1    0    0    0    0  0.00000000000E+00  0.00000000000E+00  0.45593999997E+02  0.45594000000E+02  0.51100000000E-03 0. -1.
         11   -1    0    0    0    0 -0.00000000000E+00 -0.00000000000E+00 -0.45593999997E+02  0.45594000000E+02  0.51100000000E-03 0.  1.
    9900012    2    1    2    0    0 -0.12213660306E+02  0.12480156426E+02 -0.67640482460E+01  0.72461544084E+02  0.69999965856E+02 0.  0.
         12    1    1    2    0    0  0.12213660306E+02 -0.12480156426E+02  0.67640482460E+01  0.18726455916E+02  0.00000000000E+00 0. -1.
         11    1    3    3    0    0 -0.77872865690E+00 -0.17970455074E+01  0.14475808574E+01  0.24354222378E+01  0.51100000000E-03 0. -1.
        -11    1    3    3    0    0 -0.16501644617E+02 -0.24536477889E+02 -0.88915893551E+01  0.30877230831E+02  0.51100000000E-03 0.  1.
         12    1    3    3    0    0  0.50667129679E+01  0.38813679823E+02  0.67996025169E+00  0.39148891015E+02  0.00000000000E+00 0. -1.
</event>
<event>
 7    1  0.2153242E-013  0.7246169E+02  0.7816164E-02  0.1226708E+00
        -11   -1    0    0    0    0  0.00000000000E+00  0.00000000000E+00  0.45593999997E+02  0.45594000000E+02  0.51100000000E-03 0. -1.
         11   -1    0    0    0    0 -0.00000000000E+00 -0.00000000000E+00 -0.45593999997E+02  0.45594000000E+02  0.51100000000E-03 0.  1.
    9900012    2    1    2    0    0  0.13953903817E+02  0.82460678033E+01 -0.93790068145E+01  0.72461686034E+02  0.70000150772E+02 0.  0.
         12    1    1    2    0    0 -0.13953903817E+02 -0.82460678033E+01  0.93790068145E+01  0.18726313966E+02  0.00000000000E+00 0. -1.
         11    1    3    3    0    0 -0.14650617437E+02  0.14411003222E+01 -0.12879655429E+02  0.19560237362E+02  0.51100000000E-03 0. -1.
        -11    1    3    3    0    0 -0.30110662943E+01  0.18131530203E+02 -0.31997052116E+01  0.18656286379E+02  0.51100000000E-03 0.  1.
         12    1    3    3    0    0  0.31615587548E+02 -0.11326562722E+02  0.67003538262E+01  0.34245162293E+02  0.00000000000E+00 0. -1.
</event>
<event>
 7    1  0.2153242E-013  0.7246127E+02  0.7816164E-02  0.1226709E+00
        -11   -1    0    0    0    0  0.00000000000E+00  0.00000000000E+00  0.45593999997E+02  0.45594000000E+02  0.51100000000E-03 0.  1.
         11   -1    0    0    0    0 -0.00000000000E+00 -0.00000000000E+00 -0.45593999997E+02  0.45594000000E+02  0.51100000000E-03 0. -1.
    9900012    2    1    2    0    0 -0.11609161624E+02 -0.24035724992E+01  0.14496231087E+02  0.72461267501E+02  0.69999605554E+02 0.  0.
         12    1    1    2    0    0  0.11609161624E+02  0.24035724992E+01 -0.14496231087E+02  0.18726732499E+02  0.00000000000E+00 0. -1.
         11    1    3    3    0    0 -0.14216182597E+02  0.53445220617E+01  0.24754946044E+00  0.15189636095E+02  0.51100000000E-03 0. -1.
        -11    1    3    3    0    0 -0.94213852142E+01 -0.12107898156E+01  0.32838559807E+02  0.34184784945E+02  0.51100000000E-03 0.  1.
         12    1    3    3    0    0  0.12028406187E+02 -0.65373047453E+01 -0.18589878180E+02  0.23086846460E+02  0.00000000000E+00 0. -1.
</event>
<event>
 7    1  0.2153242E-013  0.7246157E+02  0.7816164E-02  0.1226708E+00
        -11   -1    0    0    0    0  0.00000000000E+00  0.00000000000E+00  0.45593999997E+02  0.45594000000E+02  0.51100000000E-03 0.  1.
         11   -1    0    0    0    0 -0.00000000000E+00 -0.00000000000E+00 -0.45593999997E+02  0.45594000000E+02  0.51100000000E-03 0. -1.
    9900012    2    1    2    0    0  0.10920154666E+02  0.14665889173E+02  0.40424035585E+01  0.72461571892E+02  0.70000002081E+02 0.  0.
         12    1    1    2    0    0 -0.10920154666E+02 -0.14665889173E+02 -0.40424035585E+01  0.18726428108E+02  0.00000000000E+00 0. -1.
         11    1    3    3    0    0  0.20194571361E+02 -0.13126365821E+01  0.64515969891E+01  0.21240688106E+02  0.51100000000E-03 0. -1.
        -11    1    3    3    0    0 -0.21447456283E+02  0.27108670630E+02 -0.31481804150E+01  0.34710004963E+02  0.51100000000E-03 0.  1.
         12    1    3    3    0    0  0.12173039588E+02 -0.11130144874E+02  0.73898698432E+00  0.16510878823E+02  0.00000000000E+00 0. -1.
</event>
<event>
 7    1  0.2153242E-013  0.7246160E+02  0.7816164E-02  0.1226708E+00
        -11   -1    0    0    0    0  0.00000000000E+00  0.00000000000E+00  0.45593999997E+02  0.45594000000E+02  0.51100000000E-03 0.  1.
         11   -1    0    0    0    0 -0.00000000000E+00 -0.00000000000E+00 -0.45593999997E+02  0.45594000000E+02  0.51100000000E-03 0. -1.
    9900012    2    1    2    0    0 -0.11019786721E+02 -0.27192704615E+01  0.14894557521E+02  0.72461602189E+02  0.70000041549E+02 0.  0.
         12    1    1    2    0    0  0.11019786721E+02  0.27192704615E+01 -0.14894557521E+02  0.18726397811E+02  0.00000000000E+00 0. -1.
         11    1    3    3    0    0 -0.14005544056E+02 -0.24181946845E+02  0.21799809234E+02  0.35442255860E+02  0.51100000000E-03 0. -1.
        -11    1    3    3    0    0 -0.98486193440E+01  0.38209260317E+01  0.55133950546E+01  0.11916052367E+02  0.51100000000E-03 0.  1.
         12    1    3    3    0    0  0.12834376679E+02  0.17641750352E+02 -0.12418646768E+02  0.25103293962E+02  0.00000000000E+00 0. -1.
</event>
<event>
 7    1  0.2153242E-013  0.7246155E+02  0.7816164E-02  0.1226708E+00
        -11   -1    0    0    0    0  0.00000000000E+00  0.00000000000E+00  0.45593999997E+02  0.45594000000E+02  0.51100000000E-03 0.  1.
         11   -1    0    0    0    0 -0.00000000000E+00 -0.00000000000E+00 -0.45593999997E+02  0.45594000000E+02  0.51100000000E-03 0. -1.
    9900012    2    1    2    0    0 -0.11189442236E+02 -0.11725990283E+02  0.93796234284E+01  0.72461553425E+02  0.69999978025E+02 0.  0.
         12    1    1    2    0    0  0.11189442236E+02  0.11725990283E+02 -0.93796234284E+01  0.18726446575E+02  0.00000000000E+00 0. -1.
         11    1    3    3    0    0  0.56484194322E+01 -0.12478343024E+01  0.60451401304E+01  0.83669260775E+01  0.51100000000E-03 0. -1.
        -11    1    3    3    0    0  0.84524630302E+00  0.18355335625E+02  0.19338043489E+02  0.26675695182E+02  0.51100000000E-03 0.  1.
         12    1    3    3    0    0 -0.17683107971E+02 -0.28833491605E+02 -0.16003560190E+02  0.37418932166E+02  0.00000000000E+00 0. -1.
</event>
<event>
 7    1  0.2153242E-013  0.7246182E+02  0.7816164E-02  0.1226707E+00
        -11   -1    0    0    0    0  0.00000000000E+00  0.00000000000E+00  0.45593999997E+02  0.45594000000E+02  0.51100000000E-03 0. -1.
         11   -1    0    0    0    0 -0.00000000000E+00 -0.00000000000E+00 -0.45593999997E+02  0.45594000000E+02  0.51100000000E-03 0.  1.
    9900012    2    1    2    0    0 -0.17214742500E+02  0.54630130127E+01 -0.49475243404E+01  0.72461818659E+02  0.70000323540E+02 0.  0.
         12    1    1    2    0    0  0.17214742500E+02 -0.54630130127E+01  0.49475243404E+01  0.18726181341E+02  0.00000000000E+00 0. -1.
         11    1    3    3    0    0  0.54866552798E+01  0.79608882365E+01  0.51179613418E+00  0.96819968611E+01  0.51100000000E-03 0. -1.
        -11    1    3    3    0    0  0.11470111940E+02  0.12707913675E+02 -0.16506336249E+02  0.23780531418E+02  0.51100000000E-03 0.  1.
         12    1    3    3    0    0 -0.34171509720E+02 -0.15205788899E+02  0.11047015775E+02  0.38999290380E+02  0.00000000000E+00 0. -1.
</event>
<event>
 7    1  0.2153242E-013  0.7246157E+02  0.7816164E-02  0.1226708E+00
        -11   -1    0    0    0    0  0.00000000000E+00  0.00000000000E+00  0.45593999997E+02  0.45594000000E+02  0.51100000000E-03 0. -1.
         11   -1    0    0    0    0 -0.00000000000E+00 -0.00000000000E+00 -0.45593999997E+02  0.45594000000E+02  0.51100000000E-03 0.  1.
    9900012    2    1    2    0    0 -0.18668905635E+02  0.88879487578E+00 -0.11667783872E+01  0.72461565055E+02  0.69999993175E+02 0.  0.
         12    1    1    2    0    0  0.18668905635E+02 -0.88879487578E+00  0.11667783872E+01  0.18726434945E+02  0.00000000000E+00 0. -1.
         11    1    3    3    0    0 -0.12135328758E+02 -0.49667195352E+01  0.43374332152E+01  0.13811148909E+02  0.51100000000E-03 0. -1.
        -11    1    3    3    0    0 -0.19143634868E+02 -0.19756259844E+02  0.55017279937E+01  0.28054546337E+02  0.51100000000E-03 0.  1.
         12    1    3    3    0    0  0.12610057992E+02  0.25611774254E+02 -0.11005939596E+02  0.30595869810E+02  0.00000000000E+00 0. -1.
</event>
<event>
 7    1  0.2153242E-013  0.7246158E+02  0.7816164E-02  0.1226708E+00
        -11   -1    0    0    0    0  0.00000000000E+00  0.00000000000E+00  0.45593999997E+02  0.45594000000E+02  0.51100000000E-03 0. -1.
         11   -1    0    0    0    0 -0.00000000000E+00 -0.00000000000E+00 -0.45593999997E+02  0.45594000000E+02  0.51100000000E-03 0.  1.
    9900012    2    1    2    0    0  0.13251206366E+02 -0.13211573716E+02 -0.73401470722E+00  0.72461576748E+02  0.70000008408E+02 0.  0.
         12    1    1    2    0    0 -0.13251206366E+02  0.13211573716E+02  0.73401470722E+00  0.18726423252E+02  0.00000000000E+00 0. -1.
         11    1    3    3    0    0  0.25761268518E+02 -0.15362187547E+02  0.61025830080E+01  0.30608516487E+02  0.51100000000E-03 0. -1.
        -11    1    3    3    0    0  0.12602249298E+02 -0.26720914997E+01  0.48144230761E+01  0.13752651750E+02  0.51100000000E-03 0.  1.
        -12    1    3    3    0    0 -0.25112311450E+02  0.48227053306E+01 -0.11651020791E+02  0.28100408512E+02  0.00000000000E+00 0.  1.
</event>
<event>
 7    1  0.2153242E-013  0.7246155E+02  0.7816164E-02  0.1226708E+00
        -11   -1    0    0    0    0  0.00000000000E+00  0.00000000000E+00  0.45593999997E+02  0.45594000000E+02  0.51100000000E-03 0. -1.
         11   -1    0    0    0    0 -0.00000000000E+00 -0.00000000000E+00 -0.45593999997E+02  0.45594000000E+02  0.51100000000E-03 0.  1.
    9900012    2    1    2    0    0  0.16517961054E+02  0.35742440885E+01 -0.80660875445E+01  0.72461547413E+02  0.69999970193E+02 0.  0.
         12    1    1    2    0    0 -0.16517961054E+02 -0.35742440885E+01  0.80660875445E+01  0.18726452587E+02  0.00000000000E+00 0. -1.
         11    1    3    3    0    0 -0.12708284398E+01 -0.38033965474E+01 -0.90092079614E+01  0.98613720432E+01  0.51100000000E-03 0. -1.
        -11    1    3    3    0    0 -0.60791733497E+01  0.24729082851E+02 -0.14490322425E+02  0.29299374251E+02  0.51100000000E-03 0.  1.
         12    1    3    3    0    0  0.23867962844E+02 -0.17351442215E+02  0.15433442841E+02  0.33300801120E+02  0.00000000000E+00 0. -1.
</event>
<event>
 7    1  0.2153242E-013  0.7246157E+02  0.7816164E-02  0.1226708E+00
        -11   -1    0    0    0    0  0.00000000000E+00  0.00000000000E+00  0.45593999997E+02  0.45594000000E+02  0.51100000000E-03 0.  1.
         11   -1    0    0    0    0 -0.00000000000E+00 -0.00000000000E+00 -0.45593999997E+02  0.45594000000E+02  0.51100000000E-03 0. -1.
    9900012    2    1    2    0    0  0.17240116106E+02 -0.16186352605E+00 -0.73096730851E+01  0.72461571516E+02  0.70000001591E+02 0.  0.
         12    1    1    2    0    0 -0.17240116106E+02  0.16186352605E+00  0.73096730851E+01  0.18726428484E+02  0.00000000000E+00 0. -1.
         11    1    3    3    0    0  0.18881854228E+02 -0.23792154848E+02 -0.18615417416E+02  0.35624778136E+02  0.51100000000E-03 0. -1.
        -11    1    3    3    0    0  0.11731880201E+02  0.12877321649E+02  0.26620946862E+01  0.17622405463E+02  0.51100000000E-03 0.  1.
        -12    1    3    3    0    0 -0.13373618324E+02  0.10752969673E+02  0.86436496444E+01  0.19214387917E+02  0.00000000000E+00 0.  1.
</event>
<event>
 7    1  0.2153242E-013  0.7246158E+02  0.7816164E-02  0.1226708E+00
        -11   -1    0    0    0    0  0.00000000000E+00  0.00000000000E+00  0.45593999997E+02  0.45594000000E+02  0.51100000000E-03 0.  1.
         11   -1    0    0    0    0 -0.00000000000E+00 -0.00000000000E+00 -0.45593999997E+02  0.45594000000E+02  0.51100000000E-03 0. -1.
    9900012    2    1    2    0    0 -0.35828126999E+01  0.12508598180E+02  0.13467640018E+02  0.72461577412E+02  0.70000009272E+02 0.  0.
         12    1    1    2    0    0  0.35828126999E+01 -0.12508598180E+02 -0.13467640018E+02  0.18726422588E+02  0.00000000000E+00 0. -1.
         11    1    3    3    0    0 -0.86139810208E+01  0.10761948298E+01  0.27198973100E+01  0.90970712856E+01  0.51100000000E-03 0. -1.
        -11    1    3    3    0    0  0.15054059670E+02  0.31682520439E+02 -0.55387608259E+01  0.35511754190E+02  0.51100000000E-03 0.  1.
         12    1    3    3    0    0 -0.10022891349E+02 -0.20250117088E+02  0.16286503534E+02  0.27852751937E+02  0.00000000000E+00 0. -1.
</event>
<event>
 7    1  0.2153242E-013  0.7246160E+02  0.7816164E-02  0.1226708E+00
        -11   -1    0    0    0    0  0.00000000000E+00  0.00000000000E+00  0.45593999997E+02  0.45594000000E+02  0.51100000000E-03 0.  1.
         11   -1    0    0    0    0 -0.00000000000E+00 -0.00000000000E+00 -0.45593999997E+02  0.45594000000E+02  0.51100000000E-03 0. -1.
    9900012    2    1    2    0    0 -0.11938215107E+02 -0.11171446451E+02  0.91299352242E+01  0.72461603846E+02  0.70000043707E+02 0.  0.
         12    1    1    2    0    0  0.11938215107E+02  0.11171446451E+02 -0.91299352242E+01  0.18726396154E+02  0.00000000000E+00 0. -1.
         11    1    3    3    0    0  0.11601025586E+01 -0.32430475352E+02  0.40600330481E+01  0.32704211320E+02  0.51100000000E-03 0.  1.
        -11    1    3    3    0    0  0.98858641988E+01  0.42669616545E+01  0.25360056921E+01  0.11062034074E+02  0.51100000000E-03 0. -1.
        -12    1    3    3    0    0 -0.22984181864E+02  0.16992067246E+02  0.25338964841E+01  0.28695358452E+02  0.00000000000E+00 0.  1.
</event>
<event>
 7    1  0.2153242E-013  0.7246158E+02  0.7816164E-02  0.1226708E+00
        -11   -1    0    0    0    0  0.00000000000E+00  0.00000000000E+00  0.45593999997E+02  0.45594000000E+02  0.51100000000E-03 0.  1.
         11   -1    0    0    0    0 -0.00000000000E+00 -0.00000000000E+00 -0.45593999997E+02  0.45594000000E+02  0.51100000000E-03 0. -1.
    9900012    2    1    2    0    0 -0.97048206786E+01 -0.14015871772E+02  0.77492371069E+01  0.72461577980E+02  0.70000010012E+02 0.  0.
         12    1    1    2    0    0  0.97048206786E+01  0.14015871772E+02 -0.77492371069E+01  0.18726422020E+02  0.00000000000E+00 0. -1.
         11    1    3    3    0    0 -0.91552641406E+01 -0.24496306802E+02 -0.72032877323E+01  0.27125177656E+02  0.51100000000E-03 0. -1.
        -11    1    3    3    0    0 -0.20058597636E+02 -0.10901509066E+01  0.78603597896E+01  0.21571300944E+02  0.51100000000E-03 0.  1.
        -12    1    3    3    0    0  0.19509041098E+02  0.11570585937E+02  0.70921650496E+01  0.23765099380E+02  0.00000000000E+00 0.  1.
</event>
<event>
 7    1  0.2153242E-013  0.7246176E+02  0.7816164E-02  0.1226708E+00
        -11   -1    0    0    0    0  0.00000000000E+00  0.00000000000E+00  0.45593999997E+02  0.45594000000E+02  0.51100000000E-03 0.  1.
         11   -1    0    0    0    0 -0.00000000000E+00 -0.00000000000E+00 -0.45593999997E+02  0.45594000000E+02  0.51100000000E-03 0. -1.
    9900012    2    1    2    0    0  0.17839888832E+02 -0.55708229350E+01  0.11731889311E+01  0.72461759748E+02  0.70000246798E+02 0.  0.
         12    1    1    2    0    0 -0.17839888832E+02  0.55708229350E+01 -0.11731889311E+01  0.18726240252E+02  0.00000000000E+00 0. -1.
         11    1    3    3    0    0 -0.43376122883E+01  0.11084920319E+01 -0.20956105161E+02  0.21428998547E+02  0.51100000000E-03 0. -1.
        -11    1    3    3    0    0 -0.63714080056E+01 -0.19692723776E+01 -0.72131014018E+01  0.98235281730E+01  0.51100000000E-03 0.  1.
        -12    1    3    3    0    0  0.28548909126E+02 -0.47100425892E+01  0.29342395494E+02  0.41209233028E+02  0.00000000000E+00 0.  1.
</event>
<event>
 7    1  0.2153242E-013  0.7246176E+02  0.7816164E-02  0.1226707E+00
        -11   -1    0    0    0    0  0.00000000000E+00  0.00000000000E+00  0.45593999997E+02  0.45594000000E+02  0.51100000000E-03 0. -1.
         11   -1    0    0    0    0 -0.00000000000E+00 -0.00000000000E+00 -0.45593999997E+02  0.45594000000E+02  0.51100000000E-03 0.  1.
    9900012    2    1    2    0    0  0.11589012099E+02  0.12879054092E+02  0.71061017077E+01  0.72461763934E+02  0.70000252251E+02 0.  0.
         12    1    1    2    0    0 -0.11589012099E+02 -0.12879054092E+02 -0.71061017077E+01  0.18726236066E+02  0.00000000000E+00 0. -1.
         11    1    3    3    0    0  0.14588384452E+02 -0.36656731516E+01  0.59032244613E+01  0.16158780272E+02  0.51100000000E-03 0. -1.
        -11    1    3    3    0    0  0.25038820943E+01 -0.68469697954E+01 -0.21830970266E+02  0.23016117917E+02  0.51100000000E-03 0.  1.
         12    1    3    3    0    0 -0.55032544474E+01  0.23391697039E+02  0.23033847513E+02  0.33286865745E+02  0.00000000000E+00 0. -1.
</event>
<event>
 7    1  0.2153242E-013  0.7246157E+02  0.7816164E-02  0.1226708E+00
        -11   -1    0    0    0    0  0.00000000000E+00  0.00000000000E+00  0.45593999997E+02  0.45594000000E+02  0.51100000000E-03 0.  1.
         11   -1    0    0    0    0 -0.00000000000E+00 -0.00000000000E+00 -0.45593999997E+02  0.45594000000E+02  0.51100000000E-03 0. -1.
    9900012    2    1    2    0    0  0.16840994279E+02 -0.97660783265E+00  0.81305798224E+01  0.72461570030E+02  0.69999999655E+02 0.  0.
         12    1    1    2    0    0 -0.16840994279E+02  0.97660783265E+00 -0.81305798224E+01  0.18726429970E+02  0.00000000000E+00 0. -1.
         11    1    3    3    0    0  0.31607771244E+02  0.24626560111E+01 -0.89322574987E+00  0.31716143053E+02  0.51100000000E-03 0. -1.
        -11    1    3    3    0    0  0.86073100107E+01 -0.12062699931E+02  0.34918750050E+01  0.15224575743E+02  0.51100000000E-03 0.  1.
         12    1    3    3    0    0 -0.23374086975E+02  0.86234360874E+01  0.55319305673E+01  0.25520851234E+02  0.00000000000E+00 0. -1.
</event>
<event>
 7    1  0.2153242E-013  0.7246166E+02  0.7816164E-02  0.1226708E+00
        -11   -1    0    0    0    0  0.00000000000E+00  0.00000000000E+00  0.45593999997E+02  0.45594000000E+02  0.51100000000E-03 0.  1.
         11   -1    0    0    0    0 -0.00000000000E+00 -0.00000000000E+00 -0.45593999997E+02  0.45594000000E+02  0.51100000000E-03 0. -1.
    9900012    2    1    2    0    0  0.75969088885E+01 -0.11514352147E+02  0.12664226009E+02  0.72461656245E+02  0.70000111967E+02 0.  0.
         12    1    1    2    0    0 -0.75969088885E+01  0.11514352147E+02 -0.12664226009E+02  0.18726343755E+02  0.00000000000E+00 0. -1.
         11    1    3    3    0    0 -0.45200063143E+01 -0.18285159974E+02  0.29434897481E+02  0.34945539376E+02  0.51100000000E-03 0.  1.
        -11    1    3    3    0    0 -0.43316718235E+01  0.92520817959E+01  0.39424625127E+01  0.10950224165E+02  0.51100000000E-03 0. -1.
         12    1    3    3    0    0  0.16448587026E+02 -0.24812739692E+01 -0.20713133985E+02  0.26565892704E+02  0.00000000000E+00 0. -1.
</event>
<event>
 7    1  0.2153242E-013  0.7246150E+02  0.7816164E-02  0.1226708E+00
        -11   -1    0    0    0    0  0.00000000000E+00  0.00000000000E+00  0.45593999997E+02  0.45594000000E+02  0.51100000000E-03 0. -1.
         11   -1    0    0    0    0 -0.00000000000E+00 -0.00000000000E+00 -0.45593999997E+02  0.45594000000E+02  0.51100000000E-03 0.  1.
    9900012    2    1    2    0    0 -0.11247266000E+02 -0.80891667275E+00 -0.14950802690E+02  0.72461498999E+02  0.69999907124E+02 0.  0.
         12    1    1    2    0    0  0.11247266000E+02  0.80891667275E+00  0.14950802690E+02  0.18726501001E+02  0.00000000000E+00 0. -1.
         11    1    3    3    0    0 -0.42551049622E+01 -0.72556400070E+01  0.27047473110E+02  0.28325183707E+02  0.51100000000E-03 0. -1.
        -11    1    3    3    0    0 -0.34796234866E+00  0.58459757381E+00  0.42197630179E+00  0.80056004133E+00  0.51100000000E-03 0.  1.
        -12    1    3    3    0    0 -0.66441986895E+01  0.58621257605E+01 -0.42420252102E+02  0.43335755250E+02  0.00000000000E+00 0.  1.
</event>
<event>
 7    1  0.2153242E-013  0.7246159E+02  0.7816164E-02  0.1226708E+00
        -11   -1    0    0    0    0  0.00000000000E+00  0.00000000000E+00  0.45593999997E+02  0.45594000000E+02  0.51100000000E-03 0.  1.
         11   -1    0    0    0    0 -0.00000000000E+00 -0.00000000000E+00 -0.45593999997E+02  0.45594000000E+02  0.51100000000E-03 0. -1.
    9900012    2    1    2    0    0  0.89796908832E+01 -0.95886426531E+01  0.13345471295E+02  0.72461587627E+02  0.70000022578E+02 0.  0.
         12    1    1    2    0    0 -0.89796908832E+01  0.95886426531E+01 -0.13345471295E+02  0.18726412373E+02  0.00000000000E+00 0. -1.
         11    1    3    3    0    0  0.29830676052E+01 -0.25474419866E+01 -0.99642822391E+01  0.10708644817E+02  0.51100000000E-03 0. -1.
        -11    1    3    3    0    0 -0.45306242362E+01  0.14273501008E+02 -0.11997405374E+02  0.19188463277E+02  0.51100000000E-03 0.  1.
        -12    1    3    3    0    0  0.10527247514E+02 -0.21314701674E+02  0.35307158908E+02  0.42564479532E+02  0.00000000000E+00 0.  1.
</event>
<event>
 7    1  0.2153242E-013  0.7246157E+02  0.7816164E-02  0.1226708E+00
        -11   -1    0    0    0    0  0.00000000000E+00  0.00000000000E+00  0.45593999997E+02  0.45594000000E+02  0.51100000000E-03 0.  1.
         11   -1    0    0    0    0 -0.00000000000E+00 -0.00000000000E+00 -0.45593999997E+02  0.45594000000E+02  0.51100000000E-03 0. -1.
    9900012    2    1    2    0    0 -0.14221540083E+02 -0.92701105727E+01  0.79051781413E+01  0.72461574986E+02  0.70000006112E+02 0.  0.
         12    1    1    2    0    0  0.14221540083E+02  0.92701105727E+01 -0.79051781413E+01  0.18726425014E+02  0.00000000000E+00 0. -1.
         11    1    3    3    0    0 -0.15187186953E+01 -0.66140295848E+01  0.35743487392E+01  0.76699323983E+01  0.51100000000E-03 0. -1.
        -11    1    3    3    0    0  0.41965932679E+01 -0.25032761735E+02  0.20318531079E+02  0.32512970652E+02  0.51100000000E-03 0.  1.
         12    1    3    3    0    0 -0.16899414656E+02  0.22376680747E+02 -0.15987701677E+02  0.32278671935E+02  0.00000000000E+00 0. -1.
</event>
<event>
 7    1  0.2153242E-013  0.7246158E+02  0.7816164E-02  0.1226708E+00
        -11   -1    0    0    0    0  0.00000000000E+00  0.00000000000E+00  0.45593999997E+02  0.45594000000E+02  0.51100000000E-03 0.  1.
         11   -1    0    0    0    0 -0.00000000000E+00 -0.00000000000E+00 -0.45593999997E+02  0.45594000000E+02  0.51100000000E-03 0. -1.
    9900012    2    1    2    0    0  0.10503170535E+02 -0.13742263753E+02  0.71772201455E+01  0.72461577668E+02  0.70000009605E+02 0.  0.
         12    1    1    2    0    0 -0.10503170535E+02  0.13742263753E+02 -0.71772201455E+01  0.18726422332E+02  0.00000000000E+00 0. -1.
         11    1    3    3    0    0  0.97303870650E+01 -0.21560852933E+02 -0.17730892806E+02  0.29562397934E+02  0.51100000000E-03 0. -1.
        -11    1    3    3    0    0  0.16030015681E+01 -0.10611438535E+02  0.21651467176E+02  0.24165228593E+02  0.51100000000E-03 0.  1.
        -12    1    3    3    0    0 -0.83021809854E+00  0.18430027715E+02  0.32566457752E+01  0.18733951141E+02  0.00000000000E+00 0.  1.
</event>
<event>
 7    1  0.2153242E-013  0.7246154E+02  0.7816164E-02  0.1226708E+00
        -11   -1    0    0    0    0  0.00000000000E+00  0.00000000000E+00  0.45593999997E+02  0.45594000000E+02  0.51100000000E-03 0.  1.
         11   -1    0    0    0    0 -0.00000000000E+00 -0.00000000000E+00 -0.45593999997E+02  0.45594000000E+02  0.51100000000E-03 0. -1.
    9900012    2    1    2    0    0  0.16371779575E+02  0.26505256723E+01 -0.86959668580E+01  0.72461540314E+02  0.69999960945E+02 0.  0.
         12    1    1    2    0    0 -0.16371779575E+02 -0.26505256723E+01  0.86959668580E+01  0.18726459686E+02  0.00000000000E+00 0. -1.
         11    1    3    3    0    0  0.20945673787E+02  0.24297671996E+02  0.46067333712E+00  0.32082866689E+02  0.51100000000E-03 0. -1.
        -11    1    3    3    0    0  0.48926653329E+01 -0.13191913196E+01  0.97888477112E+01  0.11022702916E+02  0.51100000000E-03 0.  1.
         12    1    3    3    0    0 -0.94665595451E+01 -0.20327955004E+02 -0.18945487906E+02  0.29355970709E+02  0.00000000000E+00 0. -1.
</event>
<event>
 7    1  0.2153242E-013  0.7246165E+02  0.7816164E-02  0.1226708E+00
        -11   -1    0    0    0    0  0.00000000000E+00  0.00000000000E+00  0.45593999997E+02  0.45594000000E+02  0.51100000000E-03 0.  1.
         11   -1    0    0    0    0 -0.00000000000E+00 -0.00000000000E+00 -0.45593999997E+02  0.45594000000E+02  0.51100000000E-03 0. -1.
    9900012    2    1    2    0    0  0.40667439165E+01 -0.76006855896E+00  0.18263626806E+02  0.72461650265E+02  0.70000104176E+02 0.  0.
         12    1    1    2    0    0 -0.40667439165E+01  0.76006855896E+00 -0.18263626806E+02  0.18726349735E+02  0.00000000000E+00 0. -1.
         11    1    3    3    0    0 -0.12643648635E+02 -0.20600391316E+02  0.42241657901E+01  0.24537350103E+02  0.51100000000E-03 0. -1.
        -11    1    3    3    0    0  0.19465749744E+01 -0.10267108291E+02 -0.21802870707E+01  0.10675032494E+02  0.51100000000E-03 0.  1.
        -12    1    3    3    0    0  0.14763817577E+02  0.30107431048E+02  0.16219748087E+02  0.37249267667E+02  0.00000000000E+00 0.  1.
</event>
<event>
 7    1  0.2153242E-013  0.7246130E+02  0.7816164E-02  0.1226709E+00
        -11   -1    0    0    0    0  0.00000000000E+00  0.00000000000E+00  0.45593999997E+02  0.45594000000E+02  0.51100000000E-03 0.  1.
         11   -1    0    0    0    0 -0.00000000000E+00 -0.00000000000E+00 -0.45593999997E+02  0.45594000000E+02  0.51100000000E-03 0. -1.
    9900012    2    1    2    0    0 -0.17935048861E+02  0.51977763806E+01 -0.14164573963E+01  0.72461302253E+02  0.69999650825E+02 0.  0.
         12    1    1    2    0    0  0.17935048861E+02 -0.51977763806E+01  0.14164573963E+01  0.18726697747E+02  0.00000000000E+00 0. -1.
         11    1    3    3    0    0 -0.15983547170E+02  0.45522405207E+01  0.21004410149E+01  0.16751373873E+02  0.51100000000E-03 0. -1.
        -11    1    3    3    0    0 -0.22773220120E+02  0.17420783690E+02 -0.41059219218E+01  0.28964838237E+02  0.51100000000E-03 0.  1.
         12    1    3    3    0    0  0.20821718429E+02 -0.16775247830E+02  0.58902351063E+00  0.26745090143E+02  0.00000000000E+00 0. -1.
</event>
<event>
 7    1  0.2153242E-013  0.7246148E+02  0.7816164E-02  0.1226708E+00
        -11   -1    0    0    0    0  0.00000000000E+00  0.00000000000E+00  0.45593999997E+02  0.45594000000E+02  0.51100000000E-03 0.  1.
         11   -1    0    0    0    0 -0.00000000000E+00 -0.00000000000E+00 -0.45593999997E+02  0.45594000000E+02  0.51100000000E-03 0. -1.
    9900012    2    1    2    0    0  0.46638791903E+01 -0.54251113498E+01  0.17306041508E+02  0.72461476699E+02  0.69999878074E+02 0.  0.
         12    1    1    2    0    0 -0.46638791903E+01  0.54251113498E+01 -0.17306041508E+02  0.18726523301E+02  0.00000000000E+00 0. -1.
         11    1    3    3    0    0  0.52974863143E+01  0.11650422562E+02 -0.50129452587E+01  0.13745011006E+02  0.51100000000E-03 0. -1.
        -11    1    3    3    0    0  0.64754131349E+01  0.16553426626E+02  0.15693769240E+02  0.23711627982E+02  0.51100000000E-03 0.  1.
        -12    1    3    3    0    0 -0.71090202589E+01 -0.33628960538E+02  0.66252175265E+01  0.35004837711E+02  0.00000000000E+00 0.  1.
</event>
<event>
 7    1  0.2153242E-013  0.7246166E+02  0.7816164E-02  0.1226708E+00
        -11   -1    0    0    0    0  0.00000000000E+00  0.00000000000E+00  0.45593999997E+02  0.45594000000E+02  0.51100000000E-03 0. -1.
         11   -1    0    0    0    0 -0.00000000000E+00 -0.00000000000E+00 -0.45593999997E+02  0.45594000000E+02  0.51100000000E-03 0.  1.
    9900012    2    1    2    0    0  0.62547426036E+01 -0.16055416146E+02 -0.73333241889E+01  0.72461659292E+02  0.70000115935E+02 0.  0.
         12    1    1    2    0    0 -0.62547426036E+01  0.16055416146E+02  0.73333241889E+01  0.18726340708E+02  0.00000000000E+00 0. -1.
         11    1    3    3    0    0 -0.16849977533E+02 -0.57716223558E+01  0.20941567937E+02  0.27491501149E+02  0.51100000000E-03 0. -1.
        -11    1    3    3    0    0  0.10692740507E+01 -0.11989586120E+02 -0.54996880869E+01  0.13234050462E+02  0.51100000000E-03 0.  1.
        -12    1    3    3    0    0  0.22035446086E+02  0.17057923294E+01 -0.22775204039E+02  0.31736107681E+02  0.00000000000E+00 0.  1.
</event>
<event>
 7    1  0.2965233E-013  0.7246157E+02  0.7816164E-02  0.1226708E+00
        -11   -1    0    0    0    0  0.00000000000E+00  0.00000000000E+00  0.45593999997E+02  0.45594000000E+02  0.51100000000E-03 0. -1.
         11   -1    0    0    0    0 -0.00000000000E+00 -0.00000000000E+00 -0.45593999997E+02  0.45594000000E+02  0.51100000000E-03 0.  1.
    9900012    2    1    2    0    0  0.76008977425E+01  0.55264176062E+01 -0.16197657251E+02  0.72461573794E+02  0.70000004558E+02 0.  0.
         12    1    1    2    0    0 -0.76008977425E+01 -0.55264176062E+01  0.16197657251E+02  0.18726426206E+02  0.00000000000E+00 0. -1.
         11    1    3    3    0    0  0.29472952425E+01 -0.61523591639E+01 -0.15046758578E+02  0.16520987152E+02  0.51100000000E-03 0. -1.
        -11    1    3    3    0    0  0.14239807844E+02 -0.86502578274E+00 -0.24147267905E+02  0.28046585257E+02  0.51100000000E-03 0.  1.
         12    1    3    3    0    0 -0.95862053441E+01  0.12543802553E+02  0.22996369232E+02  0.27894001384E+02  0.00000000000E+00 0. -1.
</event>
<event>
 7    1  0.2153242E-013  0.7246153E+02  0.7816164E-02  0.1226708E+00
        -11   -1    0    0    0    0  0.00000000000E+00  0.00000000000E+00  0.45593999997E+02  0.45594000000E+02  0.51100000000E-03 0.  1.
         11   -1    0    0    0    0 -0.00000000000E+00 -0.00000000000E+00 -0.45593999997E+02  0.45594000000E+02  0.51100000000E-03 0. -1.
    9900012    2    1    2    0    0  0.10307638758E+02  0.12715109510E+02  0.90972071039E+01  0.72461532001E+02  0.69999950116E+02 0.  0.
         12    1    1    2    0    0 -0.10307638758E+02 -0.12715109510E+02 -0.90972071039E+01  0.18726467999E+02  0.00000000000E+00 0. -1.
         11    1    3    3    0    0  0.49511417589E+01  0.87039763970E+01 -0.80459690313E+01  0.12845646257E+02  0.51100000000E-03 0. -1.
        -11    1    3    3    0    0 -0.15526653553E+02 -0.18083572625E+02 -0.16205371701E+01  0.23889719764E+02  0.51100000000E-03 0.  1.
         12    1    3    3    0    0  0.20883150552E+02  0.22094705738E+02  0.18763713305E+02  0.35726165980E+02  0.00000000000E+00 0. -1.
</event>
<event>
 7    1  0.2153242E-013  0.7246150E+02  0.7816164E-02  0.1226708E+00
        -11   -1    0    0    0    0  0.00000000000E+00  0.00000000000E+00  0.45593999997E+02  0.45594000000E+02  0.51100000000E-03 0.  1.
         11   -1    0    0    0    0 -0.00000000000E+00 -0.00000000000E+00 -0.45593999997E+02  0.45594000000E+02  0.51100000000E-03 0. -1.
    9900012    2    1    2    0    0  0.12158093764E+02 -0.96788663188E+01 -0.10449020212E+02  0.72461502181E+02  0.69999911269E+02 0.  0.
         12    1    1    2    0    0 -0.12158093764E+02  0.96788663188E+01  0.10449020212E+02  0.18726497819E+02  0.00000000000E+00 0. -1.
         11    1    3    3    0    0  0.10260932840E+02 -0.27793678394E+01 -0.13239651108E+02  0.16979398990E+02  0.51100000000E-03 0. -1.
        -11    1    3    3    0    0 -0.20192263519E+02  0.14217014659E+02  0.33281585129E+01  0.24918419917E+02  0.51100000000E-03 0.  1.
         12    1    3    3    0    0  0.22089424442E+02 -0.21116513138E+02 -0.53752761699E+00  0.30563683274E+02  0.00000000000E+00 0. -1.
</event>
<event>
 7    1  0.2153242E-013  0.7246156E+02  0.7816164E-02  0.1226708E+00
        -11   -1    0    0    0    0  0.00000000000E+00  0.00000000000E+00  0.45593999997E+02  0.45594000000E+02  0.51100000000E-03 0.  1.
         11   -1    0    0    0    0 -0.00000000000E+00 -0.00000000000E+00 -0.45593999997E+02  0.45594000000E+02  0.51100000000E-03 0. -1.
    9900012    2    1    2    0    0 -0.15393736930E+02  0.27228942823E+01  0.10310111638E+02  0.72461556346E+02  0.69999981830E+02 0.  0.
         12    1    1    2    0    0  0.15393736930E+02 -0.27228942823E+01 -0.10310111638E+02  0.18726443654E+02  0.00000000000E+00 0. -1.
         11    1    3    3    0    0 -0.11777468076E+02  0.15055412257E+01  0.15927416288E+02  0.19866001071E+02  0.51100000000E-03 0. -1.
        -11    1    3    3    0    0 -0.70870846879E+01 -0.24285479315E+02 -0.85196784209E+01  0.26694497478E+02  0.51100000000E-03 0.  1.
         12    1    3    3    0    0  0.34708158348E+01  0.25502832371E+02  0.29023737705E+01  0.25901057797E+02  0.00000000000E+00 0. -1.
</event>
<event>
 7    1  0.2153242E-013  0.7246163E+02  0.7816164E-02  0.1226708E+00
        -11   -1    0    0    0    0  0.00000000000E+00  0.00000000000E+00  0.45593999997E+02  0.45594000000E+02  0.51100000000E-03 0.  1.
         11   -1    0    0    0    0 -0.00000000000E+00 -0.00000000000E+00 -0.45593999997E+02  0.45594000000E+02  0.51100000000E-03 0. -1.
    9900012    2    1    2    0    0  0.51972263145E+01 -0.57914579688E+00  0.17981385263E+02  0.72461633903E+02  0.70000082862E+02 0.  0.
         12    1    1    2    0    0 -0.51972263145E+01  0.57914579688E+00 -0.17981385263E+02  0.18726366097E+02  0.00000000000E+00 0. -1.
         11    1    3    3    0    0 -0.41716742646E+00 -0.11160736338E+01 -0.15319983171E+01  0.19407905921E+01  0.51100000000E-03 0. -1.
        -11    1    3    3    0    0  0.32848675267E+02 -0.11571337882E+02  0.21018710938E+02  0.40678219441E+02  0.51100000000E-03 0.  1.
         12    1    3    3    0    0 -0.27234281526E+02  0.12108265719E+02 -0.15053273573E+01  0.29842623869E+02  0.00000000000E+00 0. -1.
</event>
<event>
 7    1  0.2153242E-013  0.7246158E+02  0.7816164E-02  0.1226708E+00
        -11   -1    0    0    0    0  0.00000000000E+00  0.00000000000E+00  0.45593999997E+02  0.45594000000E+02  0.51100000000E-03 0.  1.
         11   -1    0    0    0    0 -0.00000000000E+00 -0.00000000000E+00 -0.45593999997E+02  0.45594000000E+02  0.51100000000E-03 0. -1.
    9900012    2    1    2    0    0  0.11615507584E+02 -0.10799512637E+02  0.99563715270E+01  0.72461579530E+02  0.70000012031E+02 0.  0.
         12    1    1    2    0    0 -0.11615507584E+02  0.10799512637E+02 -0.99563715270E+01  0.18726420470E+02  0.00000000000E+00 0. -1.
         11    1    3    3    0    0  0.49692203222E+01 -0.92305743261E+00  0.13197485197E+02  0.14132190256E+02  0.51100000000E-03 0. -1.
        -11    1    3    3    0    0  0.72246954853E+01  0.88011322107E+01  0.23262943726E+02  0.25900206642E+02  0.51100000000E-03 0.  1.
         12    1    3    3    0    0 -0.57840822346E+00 -0.18677587415E+02 -0.26504057396E+02  0.32429182632E+02  0.00000000000E+00 0. -1.
</event>
<event>
 7    1  0.2153242E-013  0.7246155E+02  0.7816164E-02  0.1226708E+00
        -11   -1    0    0    0    0  0.00000000000E+00  0.00000000000E+00  0.45593999997E+02  0.45594000000E+02  0.51100000000E-03 0.  1.
         11   -1    0    0    0    0 -0.00000000000E+00 -0.00000000000E+00 -0.45593999997E+02  0.45594000000E+02  0.51100000000E-03 0. -1.
    9900012    2    1    2    0    0  0.45681665297E+01 -0.38442654187E+01  0.17749179777E+02  0.72461550662E+02  0.69999974425E+02 0.  0.
         12    1    1    2    0    0 -0.45681665297E+01  0.38442654187E+01 -0.17749179777E+02  0.18726449338E+02  0.00000000000E+00 0. -1.
         11    1    3    3    0    0  0.11938467498E+02 -0.26607755282E+02 -0.18489393912E-01  0.29163332962E+02  0.51100000000E-03 0. -1.
        -11    1    3    3    0    0 -0.73364297616E+00  0.21376548485E+01 -0.87597404689E+01  0.90465934811E+01  0.51100000000E-03 0.  1.
        -12    1    3    3    0    0 -0.66366579923E+01  0.20625835015E+02  0.26527409640E+02  0.34251624218E+02  0.00000000000E+00 0.  1.
</event>
<event>
 7    1  0.2153242E-013  0.7246156E+02  0.7816164E-02  0.1226708E+00
        -11   -1    0    0    0    0  0.00000000000E+00  0.00000000000E+00  0.45593999997E+02  0.45594000000E+02  0.51100000000E-03 0. -1.
         11   -1    0    0    0    0 -0.00000000000E+00 -0.00000000000E+00 -0.45593999997E+02  0.45594000000E+02  0.51100000000E-03 0.  1.
    9900012    2    1    2    0    0 -0.38768378185E+01 -0.94150249366E+01 -0.15716454868E+02  0.72461560946E+02  0.69999987821E+02 0.  0.
         12    1    1    2    0    0  0.38768378185E+01  0.94150249366E+01  0.15716454868E+02  0.18726439054E+02  0.00000000000E+00 0. -1.
         11    1    3    3    0    0 -0.20291440364E+02  0.78448945853E+01 -0.13627119282E+02  0.25670670098E+02  0.51100000000E-03 0. -1.
        -11    1    3    3    0    0 -0.10007209419E+02  0.16345432011E+01  0.78482123631E+01  0.12822262257E+02  0.51100000000E-03 0.  1.
        -12    1    3    3    0    0  0.26421811964E+02 -0.18894462723E+02 -0.99375479495E+01  0.33968628590E+02  0.00000000000E+00 0.  1.
</event>
<event>
 7    1  0.2153242E-013  0.7246153E+02  0.7816164E-02  0.1226708E+00
        -11   -1    0    0    0    0  0.00000000000E+00  0.00000000000E+00  0.45593999997E+02  0.45594000000E+02  0.51100000000E-03 0.  1.
         11   -1    0    0    0    0 -0.00000000000E+00 -0.00000000000E+00 -0.45593999997E+02  0.45594000000E+02  0.51100000000E-03 0. -1.
    9900012    2    1    2    0    0  0.18210375373E+02 -0.19033546665E+01 -0.39293936395E+01  0.72461530376E+02  0.69999947998E+02 0.  0.
         12    1    1    2    0    0 -0.18210375373E+02  0.19033546665E+01  0.39293936395E+01  0.18726469624E+02  0.00000000000E+00 0. -1.
         11    1    3    3    0    0  0.64037033193E+01  0.49262116824E+01 -0.32414510963E+01  0.87052847864E+01  0.51100000000E-03 0. -1.
        -11    1    3    3    0    0  0.35638819664E+02 -0.14388100211E+01  0.10064769784E+02  0.37060696599E+02  0.51100000000E-03 0.  1.
        -12    1    3    3    0    0 -0.23832147610E+02 -0.53907563278E+01 -0.10752712327E+02  0.26695548990E+02  0.00000000000E+00 0.  1.
</event>
<event>
 7    1  0.2153242E-013  0.7246158E+02  0.7816164E-02  0.1226708E+00
        -11   -1    0    0    0    0  0.00000000000E+00  0.00000000000E+00  0.45593999997E+02  0.45594000000E+02  0.51100000000E-03 0. -1.
         11   -1    0    0    0    0 -0.00000000000E+00 -0.00000000000E+00 -0.45593999997E+02  0.45594000000E+02  0.51100000000E-03 0.  1.
    9900012    2    1    2    0    0 -0.17052392407E+02  0.46486046490E+01  0.61875135779E+01  0.72461576522E+02  0.70000008113E+02 0.  0.
         12    1    1    2    0    0  0.17052392407E+02 -0.46486046490E+01 -0.61875135779E+01  0.18726423478E+02  0.00000000000E+00 0. -1.
         11    1    3    3    0    0 -0.87213830314E+01  0.28208228837E+01  0.60644399575E+01  0.10990768671E+02  0.51100000000E-03 0. -1.
        -11    1    3    3    0    0 -0.22870154020E+02  0.91002608974E+01  0.22811676655E+02  0.33559369562E+02  0.51100000000E-03 0.  1.
        -12    1    3    3    0    0  0.14539144645E+02 -0.72724791320E+01 -0.22688603035E+02  0.27911438290E+02  0.00000000000E+00 0.  1.
</event>
<event>
 7    1  0.2153242E-013  0.7246157E+02  0.7816164E-02  0.1226708E+00
        -11   -1    0    0    0    0  0.00000000000E+00  0.00000000000E+00  0.45593999997E+02  0.45594000000E+02  0.51100000000E-03 0. -1.
         11   -1    0    0    0    0 -0.00000000000E+00 -0.00000000000E+00 -0.45593999997E+02  0.45594000000E+02  0.51100000000E-03 0.  1.
    9900012    2    1    2    0    0  0.39640938970E+01 -0.18299463121E+02  0.30776436461E+00  0.72461571888E+02  0.70000002076E+02 0.  0.
         12    1    1    2    0    0 -0.39640938970E+01  0.18299463121E+02 -0.30776436461E+00  0.18726428112E+02  0.00000000000E+00 0. -1.
         11    1    3    3    0    0 -0.15516098841E+01 -0.70549201903E+00 -0.42121751839E+01  0.45439665781E+01  0.51100000000E-03 0. -1.
        -11    1    3    3    0    0 -0.18998170722E+02  0.22998219147E+01 -0.20196346277E+02  0.27822869637E+02  0.51100000000E-03 0.  1.
         12    1    3    3    0    0  0.24513874503E+02 -0.19893793016E+02  0.24716285825E+02  0.40094735673E+02  0.00000000000E+00 0. -1.
</event>
<event>
 7    1  0.2153242E-013  0.7246149E+02  0.7816164E-02  0.1226708E+00
        -11   -1    0    0    0    0  0.00000000000E+00  0.00000000000E+00  0.45593999997E+02  0.45594000000E+02  0.51100000000E-03 0.  1.
         11   -1    0    0    0    0 -0.00000000000E+00 -0.00000000000E+00 -0.45593999997E+02  0.45594000000E+02  0.51100000000E-03 0. -1.
    9900012    2    1    2    0    0 -0.14209447511E+02  0.10677899216E+02  0.58954319331E+01  0.72461493441E+02  0.69999899884E+02 0.  0.
         12    1    1    2    0    0  0.14209447511E+02 -0.10677899216E+02 -0.58954319331E+01  0.18726506559E+02  0.00000000000E+00 0. -1.
         11    1    3    3    0    0 -0.95639458861E+01  0.32494657213E+02 -0.64174788062E+01  0.34475438254E+02  0.51100000000E-03 0. -1.
        -11    1    3    3    0    0 -0.71486812160E+01  0.43439751506E+01  0.75689752589E+01  0.11281097020E+02  0.51100000000E-03 0.  1.
         12    1    3    3    0    0  0.25031795914E+01 -0.26160733147E+02  0.47439354805E+01  0.26704958167E+02  0.00000000000E+00 0. -1.
</event>
<event>
 7    1  0.2153242E-013  0.7246147E+02  0.7816164E-02  0.1226708E+00
        -11   -1    0    0    0    0  0.00000000000E+00  0.00000000000E+00  0.45593999997E+02  0.45594000000E+02  0.51100000000E-03 0.  1.
         11   -1    0    0    0    0 -0.00000000000E+00 -0.00000000000E+00 -0.45593999997E+02  0.45594000000E+02  0.51100000000E-03 0. -1.
    9900012    2    1    2    0    0  0.15328431977E+01  0.68580749173E+01  0.17358003374E+02  0.72461465858E+02  0.69999863952E+02 0.  0.
         12    1    1    2    0    0 -0.15328431977E+01 -0.68580749173E+01 -0.17358003374E+02  0.18726534142E+02  0.00000000000E+00 0. -1.
         11    1    3    3    0    0 -0.23842469238E+02  0.81934403158E+01 -0.11424832482E+02  0.27678919796E+02  0.51100000000E-03 0. -1.
        -11    1    3    3    0    0  0.36988426155E+01  0.38423524891E+01  0.20213922133E+02  0.20905687207E+02  0.51100000000E-03 0.  1.
        -12    1    3    3    0    0  0.21676469820E+02 -0.51777178876E+01  0.85689137232E+01  0.23876858855E+02  0.00000000000E+00 0.  1.
</event>
<event>
 7    1  0.2916110E-013  0.7246161E+02  0.7816164E-02  0.1226708E+00
        -11   -1    0    0    0    0  0.00000000000E+00  0.00000000000E+00  0.45593999997E+02  0.45594000000E+02  0.51100000000E-03 0. -1.
         11   -1    0    0    0    0 -0.00000000000E+00 -0.00000000000E+00 -0.45593999997E+02  0.45594000000E+02  0.51100000000E-03 0.  1.
    9900012    2    1    2    0    0  0.65412425623E+01  0.12725147209E+01 -0.17500587603E+02  0.72461609145E+02  0.70000050611E+02 0.  0.
         12    1    1    2    0    0 -0.65412425623E+01 -0.12725147209E+01  0.17500587603E+02  0.18726390855E+02  0.00000000000E+00 0. -1.
         11    1    3    3    0    0 -0.10852036119E+02  0.14384121500E+02  0.59621756815E+01  0.18979388251E+02  0.51100000000E-03 0. -1.
        -11    1    3    3    0    0  0.10368041493E+02 -0.45695005237E+01 -0.35423677649E+02  0.37191579126E+02  0.51100000000E-03 0.  1.
         12    1    3    3    0    0  0.70252371877E+01 -0.85421062554E+01  0.11960914364E+02  0.16290641769E+02  0.00000000000E+00 0. -1.
</event>
<event>
 7    1  0.2153242E-013  0.7246158E+02  0.7816164E-02  0.1226708E+00
        -11   -1    0    0    0    0  0.00000000000E+00  0.00000000000E+00  0.45593999997E+02  0.45594000000E+02  0.51100000000E-03 0. -1.
         11   -1    0    0    0    0 -0.00000000000E+00 -0.00000000000E+00 -0.45593999997E+02  0.45594000000E+02  0.51100000000E-03 0.  1.
    9900012    2    1    2    0    0  0.49160711885E+01  0.23338103730E+01 -0.17918267637E+02  0.72461581712E+02  0.70000014874E+02 0.  0.
         12    1    1    2    0    0 -0.49160711885E+01 -0.23338103730E+01  0.17918267637E+02  0.18726418288E+02  0.00000000000E+00 0. -1.
         11    1    3    3    0    0 -0.16309198498E+02 -0.14849136585E+02  0.14693219872E+02  0.26502405994E+02  0.51100000000E-03 0. -1.
        -11    1    3    3    0    0  0.24523080943E+01 -0.27713298580E+01 -0.47733455729E+00  0.37312106229E+01  0.51100000000E-03 0.  1.
        -12    1    3    3    0    0  0.18772961592E+02  0.19954276816E+02 -0.32134152952E+02  0.42227965096E+02  0.00000000000E+00 0.  1.
</event>
<event>
 7    1  0.2153242E-013  0.7246159E+02  0.7816164E-02  0.1226708E+00
        -11   -1    0    0    0    0  0.00000000000E+00  0.00000000000E+00  0.45593999997E+02  0.45594000000E+02  0.51100000000E-03 0.  1.
         11   -1    0    0    0    0 -0.00000000000E+00 -0.00000000000E+00 -0.45593999997E+02  0.45594000000E+02  0.51100000000E-03 0. -1.
    9900012    2    1    2    0    0  0.53141013502E+00 -0.55037718143E+01  0.17891463958E+02  0.72461591282E+02  0.70000027340E+02 0.  0.
         12    1    1    2    0    0 -0.53141013502E+00  0.55037718143E+01 -0.17891463958E+02  0.18726408718E+02  0.00000000000E+00 0. -1.
         11    1    3    3    0    0  0.66522302678E+01  0.49570479779E+01 -0.21152102741E+02  0.22720826191E+02  0.51100000000E-03 0. -1.
        -11    1    3    3    0    0 -0.58696169166E+01 -0.79171688790E+01 -0.73232991012E+00  0.98828271848E+01  0.51100000000E-03 0.  1.
        -12    1    3    3    0    0 -0.25120321617E+00 -0.25436509131E+01  0.39775896609E+02  0.39857937906E+02  0.00000000000E+00 0.  1.
</event>
<event>
 7    1  0.2153242E-013  0.7246157E+02  0.7816164E-02  0.1226708E+00
        -11   -1    0    0    0    0  0.00000000000E+00  0.00000000000E+00  0.45593999997E+02  0.45594000000E+02  0.51100000000E-03 0. -1.
         11   -1    0    0    0    0 -0.00000000000E+00 -0.00000000000E+00 -0.45593999997E+02  0.45594000000E+02  0.51100000000E-03 0.  1.
    9900012    2    1    2    0    0 -0.78076703516E+01  0.77211777167E+01 -0.15169140229E+02  0.72461571698E+02  0.70000001829E+02 0.  0.
         12    1    1    2    0    0  0.78076703516E+01 -0.77211777167E+01  0.15169140229E+02  0.18726428302E+02  0.00000000000E+00 0. -1.
         11    1    3    3    0    0  0.46805529289E+01  0.67411630130E+01 -0.24223554909E+02  0.25575993962E+02  0.51100000000E-03 0. -1.
        -11    1    3    3    0    0  0.12446114238E+02  0.95373433053E+01 -0.56898642992E+01  0.16680564528E+02  0.51100000000E-03 0.  1.
        -12    1    3    3    0    0 -0.24934337519E+02 -0.85573286017E+01  0.14744278979E+02  0.30205013208E+02  0.00000000000E+00 0.  1.
</event>
<event>
 7    1  0.2153242E-013  0.7246158E+02  0.7816164E-02  0.1226708E+00
        -11   -1    0    0    0    0  0.00000000000E+00  0.00000000000E+00  0.45593999997E+02  0.45594000000E+02  0.51100000000E-03 0. -1.
         11   -1    0    0    0    0 -0.00000000000E+00 -0.00000000000E+00 -0.45593999997E+02  0.45594000000E+02  0.51100000000E-03 0.  1.
    9900012    2    1    2    0    0 -0.12393746756E+02 -0.13114072925E+02 -0.50094969282E+01  0.72461576775E+02  0.70000008442E+02 0.  0.
         12    1    1    2    0    0  0.12393746756E+02  0.13114072925E+02  0.50094969282E+01  0.18726423225E+02  0.00000000000E+00 0. -1.
         11    1    3    3    0    0 -0.12904281171E+02 -0.30148075849E+01 -0.15350616032E+01  0.13340387989E+02  0.51100000000E-03 0.  1.
        -11    1    3    3    0    0 -0.12317963589E+02 -0.26203513309E+02  0.13958130441E+02  0.32143206784E+02  0.51100000000E-03 0. -1.
        -12    1    3    3    0    0  0.12828498004E+02  0.16104247969E+02 -0.17432565766E+02  0.26977982001E+02  0.00000000000E+00 0.  1.
</event>
<event>
 7    1  0.2153242E-013  0.7246150E+02  0.7816164E-02  0.1226708E+00
        -11   -1    0    0    0    0  0.00000000000E+00  0.00000000000E+00  0.45593999997E+02  0.45594000000E+02  0.51100000000E-03 0.  1.
         11   -1    0    0    0    0 -0.00000000000E+00 -0.00000000000E+00 -0.45593999997E+02  0.45594000000E+02  0.51100000000E-03 0. -1.
    9900012    2    1    2    0    0 -0.51804536222E+01 -0.13511901893E+02  0.11885835236E+02  0.72461503484E+02  0.69999912967E+02 0.  0.
         12    1    1    2    0    0  0.51804536222E+01  0.13511901893E+02 -0.11885835236E+02  0.18726496516E+02  0.00000000000E+00 0. -1.
         11    1    3    3    0    0 -0.19132233551E+02 -0.72100703247E+00  0.14801718370E+02  0.24200270220E+02  0.51100000000E-03 0. -1.
        -11    1    3    3    0    0  0.34396443991E+01 -0.14448541477E+02  0.18870669199E+02  0.24014446916E+02  0.51100000000E-03 0.  1.
         12    1    3    3    0    0  0.10512135529E+02  0.16576466164E+01 -0.21786552332E+02  0.24246786348E+02  0.00000000000E+00 0. -1.
</event>
<event>
 7    1  0.2153242E-013  0.7246158E+02  0.7816164E-02  0.1226708E+00
        -11   -1    0    0    0    0  0.00000000000E+00  0.00000000000E+00  0.45593999997E+02  0.45594000000E+02  0.51100000000E-03 0.  1.
         11   -1    0    0    0    0 -0.00000000000E+00 -0.00000000000E+00 -0.45593999997E+02  0.45594000000E+02  0.51100000000E-03 0. -1.
    9900012    2    1    2    0    0  0.14157707600E+02 -0.11676995020E+02 -0.37263613268E+01  0.72461583741E+02  0.70000017517E+02 0.  0.
         12    1    1    2    0    0 -0.14157707600E+02  0.11676995020E+02  0.37263613268E+01  0.18726416259E+02  0.00000000000E+00 0. -1.
         11    1    3    3    0    0  0.80227420940E+01 -0.87881549953E+01  0.57326296311E+01  0.13208296699E+02  0.51100000000E-03 0. -1.
        -11    1    3    3    0    0  0.41838554895E+01  0.16190350401E+00  0.24624515120E+02  0.24977942362E+02  0.51100000000E-03 0.  1.
         12    1    3    3    0    0  0.19511100161E+01 -0.30507435283E+01 -0.34083506078E+02  0.34275344680E+02  0.00000000000E+00 0. -1.
</event>
<event>
 7    1  0.2153242E-013  0.7246163E+02  0.7816164E-02  0.1226708E+00
        -11   -1    0    0    0    0  0.00000000000E+00  0.00000000000E+00  0.45593999997E+02  0.45594000000E+02  0.51100000000E-03 0. -1.
         11   -1    0    0    0    0 -0.00000000000E+00 -0.00000000000E+00 -0.45593999997E+02  0.45594000000E+02  0.51100000000E-03 0.  1.
    9900012    2    1    2    0    0 -0.15420864355E+02  0.70569838842E+01 -0.79418316098E+01  0.72461634407E+02  0.70000083519E+02 0.  0.
         12    1    1    2    0    0  0.15420864355E+02 -0.70569838842E+01  0.79418316098E+01  0.18726365593E+02  0.00000000000E+00 0. -1.
         11    1    3    3    0    0  0.18443415570E+02  0.55384500256E+00  0.12325937088E+02  0.22189976285E+02  0.51100000000E-03 0. -1.
        -11    1    3    3    0    0 -0.35251286605E+01  0.13073367259E+02 -0.12133119912E+02  0.18181090798E+02  0.51100000000E-03 0.  1.
        -12    1    3    3    0    0 -0.30339151264E+02 -0.65702283770E+01 -0.81346487856E+01  0.32090567324E+02  0.00000000000E+00 0.  1.
</event>
<event>
 7    1  0.2153242E-013  0.7246159E+02  0.7816164E-02  0.1226708E+00
        -11   -1    0    0    0    0  0.00000000000E+00  0.00000000000E+00  0.45593999997E+02  0.45594000000E+02  0.51100000000E-03 0. -1.
         11   -1    0    0    0    0 -0.00000000000E+00 -0.00000000000E+00 -0.45593999997E+02  0.45594000000E+02  0.51100000000E-03 0.  1.
    9900012    2    1    2    0    0 -0.15963326336E+02 -0.47119394879E+01 -0.85818636933E+01  0.72461586945E+02  0.70000021691E+02 0.  0.
         12    1    1    2    0    0  0.15963326336E+02  0.47119394879E+01  0.85818636933E+01  0.18726413055E+02  0.00000000000E+00 0. -1.
         11    1    3    3    0    0  0.67896105492E+01  0.57789529395E+01  0.73839231199E+01  0.11576589713E+02  0.51100000000E-03 0. -1.
        -11    1    3    3    0    0  0.81240874976E+01  0.16077041762E+02 -0.44499067921E+01  0.18554615065E+02  0.51100000000E-03 0.  1.
        -12    1    3    3    0    0 -0.30877024383E+02 -0.26567934189E+02 -0.11515880021E+02  0.42330382168E+02  0.00000000000E+00 0.  1.
</event>
<event>
 7    1  0.2153242E-013  0.7246145E+02  0.7816164E-02  0.1226708E+00
        -11   -1    0    0    0    0  0.00000000000E+00  0.00000000000E+00  0.45593999997E+02  0.45594000000E+02  0.51100000000E-03 0.  1.
         11   -1    0    0    0    0 -0.00000000000E+00 -0.00000000000E+00 -0.45593999997E+02  0.45594000000E+02  0.51100000000E-03 0. -1.
    9900012    2    1    2    0    0  0.76545930509E+01 -0.42274227052E+01  0.16559582323E+02  0.72461450285E+02  0.69999843665E+02 0.  0.
         12    1    1    2    0    0 -0.76545930509E+01  0.42274227052E+01 -0.16559582323E+02  0.18726549715E+02  0.00000000000E+00 0. -1.
         11    1    3    3    0    0  0.11256324684E+02 -0.22787415099E+02  0.51402895139E+01  0.25930555506E+02  0.51100000000E-03 0. -1.
        -11    1    3    3    0    0  0.66386979617E+01 -0.31598032308E+01  0.19781529605E+02  0.21103686428E+02  0.51100000000E-03 0.  1.
         12    1    3    3    0    0 -0.10240429595E+02  0.21719795625E+02 -0.83622367955E+01  0.25427208351E+02  0.00000000000E+00 0. -1.
</event>
<event>
 7    1  0.2153242E-013  0.7246157E+02  0.7816164E-02  0.1226708E+00
        -11   -1    0    0    0    0  0.00000000000E+00  0.00000000000E+00  0.45593999997E+02  0.45594000000E+02  0.51100000000E-03 0.  1.
         11   -1    0    0    0    0 -0.00000000000E+00 -0.00000000000E+00 -0.45593999997E+02  0.45594000000E+02  0.51100000000E-03 0. -1.
    9900012    2    1    2    0    0 -0.13881816556E+02  0.30882083653E+01  0.12183479203E+02  0.72461574092E+02  0.70000004947E+02 0.  0.
         12    1    1    2    0    0  0.13881816556E+02 -0.30882083653E+01 -0.12183479203E+02  0.18726425908E+02  0.00000000000E+00 0. -1.
         11    1    3    3    0    0  0.11532406484E+00  0.40910020700E+01  0.15278660437E+01  0.43685206289E+01  0.51100000000E-03 0. -1.
        -11    1    3    3    0    0 -0.12331079039E+02  0.31361521607E+02  0.11691870525E+02  0.35669319932E+02  0.51100000000E-03 0.  1.
         12    1    3    3    0    0 -0.16660615814E+01 -0.32364315312E+02 -0.10362573649E+01  0.32423733531E+02  0.00000000000E+00 0. -1.
</event>
<event>
 7    1  0.2153242E-013  0.7246154E+02  0.7816164E-02  0.1226708E+00
        -11   -1    0    0    0    0  0.00000000000E+00  0.00000000000E+00  0.45593999997E+02  0.45594000000E+02  0.51100000000E-03 0. -1.
         11   -1    0    0    0    0 -0.00000000000E+00 -0.00000000000E+00 -0.45593999997E+02  0.45594000000E+02  0.51100000000E-03 0.  1.
    9900012    2    1    2    0    0  0.41557754189E+01  0.11848586023E+02 -0.13893200842E+02  0.72461535045E+02  0.69999954082E+02 0.  0.
         12    1    1    2    0    0 -0.41557754189E+01 -0.11848586023E+02  0.13893200842E+02  0.18726464955E+02  0.00000000000E+00 0. -1.
         11    1    3    3    0    0 -0.18039598272E+02  0.13242119410E+02  0.10504926151E+02  0.24721130758E+02  0.51100000000E-03 0. -1.
        -11    1    3    3    0    0 -0.75046754018E+01 -0.73694877537E+01 -0.41801071794E+01  0.11318250701E+02  0.51100000000E-03 0.  1.
        -12    1    3    3    0    0  0.29700049092E+02  0.59759543660E+01 -0.20218019813E+02  0.36422153586E+02  0.00000000000E+00 0.  1.
</event>
<event>
 7    1  0.2153242E-013  0.7246152E+02  0.7816164E-02  0.1226708E+00
        -11   -1    0    0    0    0  0.00000000000E+00  0.00000000000E+00  0.45593999997E+02  0.45594000000E+02  0.51100000000E-03 0.  1.
         11   -1    0    0    0    0 -0.00000000000E+00 -0.00000000000E+00 -0.45593999997E+02  0.45594000000E+02  0.51100000000E-03 0. -1.
    9900012    2    1    2    0    0 -0.49805896516E+01 -0.16266882190E+02 -0.78270934934E+01  0.72461518163E+02  0.69999932089E+02 0.  0.
         12    1    1    2    0    0  0.49805896516E+01  0.16266882190E+02  0.78270934934E+01  0.18726481837E+02  0.00000000000E+00 0. -1.
         11    1    3    3    0    0  0.24131383579E+02 -0.71225512340E+01  0.27971282845E+01  0.25315574977E+02  0.51100000000E-03 0. -1.
        -11    1    3    3    0    0 -0.79785846527E+01  0.77615987730E+01  0.85016761013E+01  0.14006381594E+02  0.51100000000E-03 0.  1.
         12    1    3    3    0    0 -0.21133388578E+02 -0.16905929729E+02 -0.19125897879E+02  0.33139561591E+02  0.00000000000E+00 0. -1.
</event>
<event>
 7    1  0.2153242E-013  0.7246163E+02  0.7816164E-02  0.1226708E+00
        -11   -1    0    0    0    0  0.00000000000E+00  0.00000000000E+00  0.45593999997E+02  0.45594000000E+02  0.51100000000E-03 0.  1.
         11   -1    0    0    0    0 -0.00000000000E+00 -0.00000000000E+00 -0.45593999997E+02  0.45594000000E+02  0.51100000000E-03 0. -1.
    9900012    2    1    2    0    0  0.29672154292E+01  0.15639566167E+02  0.98628882188E+01  0.72461629254E+02  0.70000076806E+02 0.  0.
         12    1    1    2    0    0 -0.29672154292E+01 -0.15639566167E+02 -0.98628882188E+01  0.18726370746E+02  0.00000000000E+00 0. -1.
         11    1    3    3    0    0  0.10970737126E+00  0.25923190032E+01  0.16689005359E+01  0.30850255723E+01  0.51100000000E-03 0. -1.
        -11    1    3    3    0    0 -0.23342205505E+02  0.25365142143E+02  0.17900689981E+02  0.38841777712E+02  0.51100000000E-03 0.  1.
         12    1    3    3    0    0  0.26199713563E+02 -0.12317894979E+02 -0.97067022977E+01  0.30534825970E+02  0.00000000000E+00 0. -1.
</event>
<event>
 7    1  0.3338984E-013  0.7246157E+02  0.7816164E-02  0.1226708E+00
        -11   -1    0    0    0    0  0.00000000000E+00  0.00000000000E+00  0.45593999997E+02  0.45594000000E+02  0.51100000000E-03 0.  1.
         11   -1    0    0    0    0 -0.00000000000E+00 -0.00000000000E+00 -0.45593999997E+02  0.45594000000E+02  0.51100000000E-03 0. -1.
    9900012    2    1    2    0    0  0.15884330774E+02 -0.16161737851E+01  0.97854531143E+01  0.72461572831E+02  0.70000003305E+02 0.  0.
         12    1    1    2    0    0 -0.15884330774E+02  0.16161737851E+01 -0.97854531143E+01  0.18726427169E+02  0.00000000000E+00 0. -1.
         11    1    3    3    0    0  0.75770886920E+01  0.14168649870E+02  0.19028363782E+01  0.16179731108E+02  0.51100000000E-03 0. -1.
        -11    1    3    3    0    0  0.20886771679E+01 -0.85070632673E+00  0.29330555975E+02  0.29417134252E+02  0.51100000000E-03 0.  1.
         12    1    3    3    0    0  0.62185649144E+01 -0.14934117328E+02 -0.21447939238E+02  0.26864707472E+02  0.00000000000E+00 0. -1.
</event>
<event>
 7    1  0.2153242E-013  0.7246157E+02  0.7816164E-02  0.1226708E+00
        -11   -1    0    0    0    0  0.00000000000E+00  0.00000000000E+00  0.45593999997E+02  0.45594000000E+02  0.51100000000E-03 0. -1.
         11   -1    0    0    0    0 -0.00000000000E+00 -0.00000000000E+00 -0.45593999997E+02  0.45594000000E+02  0.51100000000E-03 0.  1.
    9900012    2    1    2    0    0  0.75229060539E+00 -0.17893693390E+02 -0.54707510161E+01  0.72461566250E+02  0.69999994732E+02 0.  0.
         12    1    1    2    0    0 -0.75229060539E+00  0.17893693390E+02  0.54707510161E+01  0.18726433750E+02  0.00000000000E+00 0. -1.
         11    1    3    3    0    0 -0.13350129472E+01 -0.25362396274E+02  0.89849808787E+01  0.26939994172E+02  0.51100000000E-03 0. -1.
        -11    1    3    3    0    0  0.20356518382E+02 -0.13591541545E+01 -0.14839151498E+02  0.25227674449E+02  0.51100000000E-03 0.  1.
        -12    1    3    3    0    0 -0.18269214830E+02  0.88278570384E+01  0.38341960296E+00  0.20293897629E+02  0.00000000000E+00 0.  1.
</event>
<event>
 7    1  0.2153242E-013  0.7246159E+02  0.7816164E-02  0.1226708E+00
        -11   -1    0    0    0    0  0.00000000000E+00  0.00000000000E+00  0.45593999997E+02  0.45594000000E+02  0.51100000000E-03 0.  1.
         11   -1    0    0    0    0 -0.00000000000E+00 -0.00000000000E+00 -0.45593999997E+02  0.45594000000E+02  0.51100000000E-03 0. -1.
    9900012    2    1    2    0    0 -0.18354498347E+02 -0.35752484580E+01  0.10042125236E+01  0.72461589401E+02  0.70000024890E+02 0.  0.
         12    1    1    2    0    0  0.18354498347E+02  0.35752484580E+01 -0.10042125236E+01  0.18726410599E+02  0.00000000000E+00 0. -1.
         11    1    3    3    0    0  0.23509879429E+02 -0.70540073238E+01  0.55703709451E+01  0.25169475220E+02  0.51100000000E-03 0. -1.
        -11    1    3    3    0    0 -0.12532503569E+01  0.54601827742E+01  0.23019841427E+01  0.60566792584E+01  0.51100000000E-03 0.  1.
         12    1    3    3    0    0 -0.40611127420E+02 -0.19814239085E+01 -0.68681425641E+01  0.41235434923E+02  0.00000000000E+00 0. -1.
</event>
<event>
 7    1  0.2153242E-013  0.7246160E+02  0.7816164E-02  0.1226708E+00
        -11   -1    0    0    0    0  0.00000000000E+00  0.00000000000E+00  0.45593999997E+02  0.45594000000E+02  0.51100000000E-03 0. -1.
         11   -1    0    0    0    0 -0.00000000000E+00 -0.00000000000E+00 -0.45593999997E+02  0.45594000000E+02  0.51100000000E-03 0.  1.
    9900012    2    1    2    0    0 -0.15627410863E+02  0.65688073564E+01 -0.79569305519E+01  0.72461603012E+02  0.70000042620E+02 0.  0.
         12    1    1    2    0    0  0.15627410863E+02 -0.65688073564E+01  0.79569305519E+01  0.18726396988E+02  0.00000000000E+00 0. -1.
         11    1    3    3    0    0  0.12751040298E+02  0.31532805397E+01  0.72308631447E+01  0.14993918398E+02  0.51100000000E-03 0. -1.
        -11    1    3    3    0    0 -0.12896953075E+02 -0.21763652573E+02 -0.11109225821E+02  0.27629746118E+02  0.51100000000E-03 0.  1.
         12    1    3    3    0    0 -0.15481498086E+02  0.25179179390E+02 -0.40785678758E+01  0.29837938495E+02  0.00000000000E+00 0. -1.
</event>
<event>
 7    1  0.2153242E-013  0.7246157E+02  0.7816164E-02  0.1226708E+00
        -11   -1    0    0    0    0  0.00000000000E+00  0.00000000000E+00  0.45593999997E+02  0.45594000000E+02  0.51100000000E-03 0. -1.
         11   -1    0    0    0    0 -0.00000000000E+00 -0.00000000000E+00 -0.45593999997E+02  0.45594000000E+02  0.51100000000E-03 0.  1.
    9900012    2    1    2    0    0 -0.11354866910E+02 -0.23207741301E+01 -0.14709186730E+02  0.72461570298E+02  0.70000000005E+02 0.  0.
         12    1    1    2    0    0  0.11354866910E+02  0.23207741301E+01  0.14709186730E+02  0.18726429702E+02  0.00000000000E+00 0. -1.
         11    1    3    3    0    0  0.14229577658E+02  0.25059133328E+02 -0.12611355021E+02  0.31456117358E+02  0.51100000000E-03 0. -1.
        -11    1    3    3    0    0  0.31730909075E+00  0.13956478315E+01  0.15598565652E+01  0.21169956764E+01  0.51100000000E-03 0.  1.
        -12    1    3    3    0    0 -0.25901753660E+02 -0.28775555290E+02 -0.36576882738E+01  0.38888457264E+02  0.00000000000E+00 0.  1.
</event>
<event>
 7    1  0.2153242E-013  0.7246151E+02  0.7816164E-02  0.1226708E+00
        -11   -1    0    0    0    0  0.00000000000E+00  0.00000000000E+00  0.45593999997E+02  0.45594000000E+02  0.51100000000E-03 0.  1.
         11   -1    0    0    0    0 -0.00000000000E+00 -0.00000000000E+00 -0.45593999997E+02  0.45594000000E+02  0.51100000000E-03 0. -1.
    9900012    2    1    2    0    0  0.12038646305E+02  0.74436671893E+01  0.12261486928E+02  0.72461514805E+02  0.69999927715E+02 0.  0.
         12    1    1    2    0    0 -0.12038646305E+02 -0.74436671893E+01 -0.12261486928E+02  0.18726485195E+02  0.00000000000E+00 0. -1.
         11    1    3    3    0    0  0.78834617042E+01  0.11097078237E+02 -0.17385593001E+02  0.22080601397E+02  0.51100000000E-03 0. -1.
        -11    1    3    3    0    0  0.10294444765E+02 -0.67637389246E+01 -0.62622083923E+01  0.13818068297E+02  0.51100000000E-03 0.  1.
        -12    1    3    3    0    0 -0.61392601641E+01  0.31103278773E+01  0.35909288321E+02  0.36562845110E+02  0.00000000000E+00 0.  1.
</event>
<event>
 7    1  0.2153242E-013  0.7246163E+02  0.7816164E-02  0.1226708E+00
        -11   -1    0    0    0    0  0.00000000000E+00  0.00000000000E+00  0.45593999997E+02  0.45594000000E+02  0.51100000000E-03 0.  1.
         11   -1    0    0    0    0 -0.00000000000E+00 -0.00000000000E+00 -0.45593999997E+02  0.45594000000E+02  0.51100000000E-03 0. -1.
    9900012    2    1    2    0    0  0.28897047391E+01 -0.17235664123E+02  0.67274310185E+01  0.72461632511E+02  0.70000081048E+02 0.  0.
         12    1    1    2    0    0 -0.28897047391E+01  0.17235664123E+02 -0.67274310185E+01  0.18726367489E+02  0.00000000000E+00 0. -1.
         11    1    3    3    0    0  0.45971211774E+01 -0.10226929825E+01 -0.75090446790E+01  0.88636999221E+01  0.51100000000E-03 0. -1.
        -11    1    3    3    0    0  0.23607962508E+02 -0.22132346151E+01  0.23339339750E+02  0.33270994597E+02  0.51100000000E-03 0.  1.
        -12    1    3    3    0    0 -0.25315378947E+02 -0.13999736525E+02 -0.91028640521E+01  0.30326937992E+02  0.00000000000E+00 0.  1.
</event>
<event>
 7    1  0.2153242E-013  0.7246158E+02  0.7816164E-02  0.1226708E+00
        -11   -1    0    0    0    0  0.00000000000E+00  0.00000000000E+00  0.45593999997E+02  0.45594000000E+02  0.51100000000E-03 0.  1.
         11   -1    0    0    0    0 -0.00000000000E+00 -0.00000000000E+00 -0.45593999997E+02  0.45594000000E+02  0.51100000000E-03 0. -1.
    9900012    2    1    2    0    0  0.62386388802E+01 -0.13823574304E+02  0.10984858792E+02  0.72461576308E+02  0.70000007834E+02 0.  0.
         12    1    1    2    0    0 -0.62386388802E+01  0.13823574304E+02 -0.10984858792E+02  0.18726423692E+02  0.00000000000E+00 0. -1.
         11    1    3    3    0    0  0.58881959441E+01 -0.31127245292E+01  0.29149380749E+01  0.72702661376E+01  0.51100000000E-03 0. -1.
        -11    1    3    3    0    0  0.17089371856E+02 -0.25314513221E+02  0.23164999241E+02  0.38333906664E+02  0.51100000000E-03 0.  1.
         12    1    3    3    0    0 -0.16738928920E+02  0.14603663446E+02 -0.15095078524E+02  0.26857403506E+02  0.00000000000E+00 0. -1.
</event>
<event>
 7    1  0.2153242E-013  0.7246156E+02  0.7816164E-02  0.1226708E+00
        -11   -1    0    0    0    0  0.00000000000E+00  0.00000000000E+00  0.45593999997E+02  0.45594000000E+02  0.51100000000E-03 0.  1.
         11   -1    0    0    0    0 -0.00000000000E+00 -0.00000000000E+00 -0.45593999997E+02  0.45594000000E+02  0.51100000000E-03 0. -1.
    9900012    2    1    2    0    0  0.11931711059E+02 -0.10951178719E+02  0.94013630823E+01  0.72461556880E+02  0.69999982525E+02 0.  0.
         12    1    1    2    0    0 -0.11931711059E+02  0.10951178719E+02 -0.94013630823E+01  0.18726443120E+02  0.00000000000E+00 0. -1.
         11    1    3    3    0    0  0.42018690337E+01 -0.11148934317E+02  0.50522022967E+01  0.12941375046E+02  0.51100000000E-03 0. -1.
        -11    1    3    3    0    0  0.11618877075E+02  0.11412933235E+02  0.28377871117E+02  0.32719366114E+02  0.51100000000E-03 0.  1.
         12    1    3    3    0    0 -0.38890350498E+01 -0.11215177637E+02 -0.24028710331E+02  0.26800815720E+02  0.00000000000E+00 0. -1.
</event>
<event>
 7    1  0.2153242E-013  0.7246169E+02  0.7816164E-02  0.1226708E+00
        -11   -1    0    0    0    0  0.00000000000E+00  0.00000000000E+00  0.45593999997E+02  0.45594000000E+02  0.51100000000E-03 0.  1.
         11   -1    0    0    0    0 -0.00000000000E+00 -0.00000000000E+00 -0.45593999997E+02  0.45594000000E+02  0.51100000000E-03 0. -1.
    9900012    2    1    2    0    0  0.80769840143E+01 -0.62426758031E+01  0.15699240806E+02  0.72461686059E+02  0.70000150804E+02 0.  0.
         12    1    1    2    0    0 -0.80769840143E+01  0.62426758031E+01 -0.15699240806E+02  0.18726313941E+02  0.00000000000E+00 0. -1.
         11    1    3    3    0    0  0.17590634702E+02  0.21807153071E+02  0.93623392104E+01  0.29540408766E+02  0.51100000000E-03 0. -1.
        -11    1    3    3    0    0 -0.36391595194E+01  0.45661541417E+01  0.78057250794E+01  0.97479531149E+01  0.51100000000E-03 0.  1.
        -12    1    3    3    0    0 -0.58744911682E+01 -0.32615983016E+02 -0.14688234841E+01  0.33173324178E+02  0.00000000000E+00 0.  1.
</event>
<event>
 7    1  0.2153242E-013  0.7246138E+02  0.7816164E-02  0.1226709E+00
        -11   -1    0    0    0    0  0.00000000000E+00  0.00000000000E+00  0.45593999997E+02  0.45594000000E+02  0.51100000000E-03 0. -1.
         11   -1    0    0    0    0 -0.00000000000E+00 -0.00000000000E+00 -0.45593999997E+02  0.45594000000E+02  0.51100000000E-03 0.  1.
    9900012    2    1    2    0    0 -0.16720532000E+01  0.27349411918E+01 -0.18450225277E+02  0.72461375158E+02  0.69999745798E+02 0.  0.
         12    1    1    2    0    0  0.16720532000E+01 -0.27349411918E+01  0.18450225277E+02  0.18726624842E+02  0.00000000000E+00 0. -1.
         11    1    3    3    0    0  0.71425458873E+01  0.75456792606E+01  0.74594534501E+01  0.12790491910E+02  0.51100000000E-03 0. -1.
        -11    1    3    3    0    0 -0.28891427593E+02  0.43926787378E+01 -0.57832502045E+01  0.29790203055E+02  0.51100000000E-03 0.  1.
        -12    1    3    3    0    0  0.20076828506E+02 -0.92034168066E+01 -0.20126428522E+02  0.29880680193E+02  0.00000000000E+00 0.  1.
</event>
<event>
 7    1  0.2153242E-013  0.7246122E+02  0.7816164E-02  0.1226709E+00
        -11   -1    0    0    0    0  0.00000000000E+00  0.00000000000E+00  0.45593999997E+02  0.45594000000E+02  0.51100000000E-03 0. -1.
         11   -1    0    0    0    0 -0.00000000000E+00 -0.00000000000E+00 -0.45593999997E+02  0.45594000000E+02  0.51100000000E-03 0.  1.
    9900012    2    1    2    0    0  0.98693637722E+01 -0.15909346551E+02  0.42517617519E+00  0.72461216407E+02  0.69999538995E+02 0.  0.
         12    1    1    2    0    0 -0.98693637722E+01  0.15909346551E+02 -0.42517617519E+00  0.18726783593E+02  0.00000000000E+00 0. -1.
         11    1    3    3    0    0  0.67658195291E+01 -0.83996800843E+01 -0.12263820849E+02  0.16331939306E+02  0.51100000000E-03 0. -1.
        -11    1    3    3    0    0  0.14170342212E+02 -0.27239443431E+02  0.13388505805E+02  0.33496835146E+02  0.51100000000E-03 0.  1.
         12    1    3    3    0    0 -0.11066797969E+02  0.19729776964E+02 -0.69950878050E+00  0.22632441956E+02  0.00000000000E+00 0. -1.
</event>
<event>
 7    1  0.2153242E-013  0.7246160E+02  0.7816164E-02  0.1226708E+00
        -11   -1    0    0    0    0  0.00000000000E+00  0.00000000000E+00  0.45593999997E+02  0.45594000000E+02  0.51100000000E-03 0.  1.
         11   -1    0    0    0    0 -0.00000000000E+00 -0.00000000000E+00 -0.45593999997E+02  0.45594000000E+02  0.51100000000E-03 0. -1.
    9900012    2    1    2    0    0 -0.14173125386E+02  0.99006452893E+01  0.71956748179E+01  0.72461601616E+02  0.70000040802E+02 0.  0.
         12    1    1    2    0    0  0.14173125386E+02 -0.99006452893E+01 -0.71956748179E+01  0.18726398384E+02  0.00000000000E+00 0. -1.
         11    1    3    3    0    0  0.22856269283E+01  0.20157388320E+02 -0.35690298826E+01  0.20598115664E+02  0.51100000000E-03 0. -1.
        -11    1    3    3    0    0  0.90261449124E+00  0.39452633405E+01 -0.16252460003E+02  0.16748799125E+02  0.51100000000E-03 0.  1.
        -12    1    3    3    0    0 -0.17361366805E+02 -0.14202006372E+02  0.27017164703E+02  0.35114686826E+02  0.00000000000E+00 0.  1.
</event>
<event>
 7    1  0.2153242E-013  0.7246158E+02  0.7816164E-02  0.1226708E+00
        -11   -1    0    0    0    0  0.00000000000E+00  0.00000000000E+00  0.45593999997E+02  0.45594000000E+02  0.51100000000E-03 0.  1.
         11   -1    0    0    0    0 -0.00000000000E+00 -0.00000000000E+00 -0.45593999997E+02  0.45594000000E+02  0.51100000000E-03 0. -1.
    9900012    2    1    2    0    0  0.67576114790E+01 -0.13863468685E+02  0.10621561203E+02  0.72461584452E+02  0.70000018443E+02 0.  0.
         12    1    1    2    0    0 -0.67576114790E+01  0.13863468685E+02 -0.10621561203E+02  0.18726415548E+02  0.00000000000E+00 0. -1.
         11    1    3    3    0    0  0.17578941703E+02  0.70597944914E+01  0.12337549767E+02  0.22606968487E+02  0.51100000000E-03 0. -1.
        -11    1    3    3    0    0 -0.14223606007E+02  0.41251213058E+01  0.13759659958E+02  0.20215237719E+02  0.51100000000E-03 0.  1.
         12    1    3    3    0    0  0.34022757831E+01 -0.25048384482E+02 -0.15475648522E+02  0.29639378246E+02  0.00000000000E+00 0. -1.
</event>
<event>
 7    1  0.2153242E-013  0.7246172E+02  0.7816164E-02  0.1226708E+00
        -11   -1    0    0    0    0  0.00000000000E+00  0.00000000000E+00  0.45593999997E+02  0.45594000000E+02  0.51100000000E-03 0.  1.
         11   -1    0    0    0    0 -0.00000000000E+00 -0.00000000000E+00 -0.45593999997E+02  0.45594000000E+02  0.51100000000E-03 0. -1.
    9900012    2    1    2    0    0 -0.57840740702E+01  0.41308418151E+01  0.17324957264E+02  0.72461721375E+02  0.70000196810E+02 0.  0.
         12    1    1    2    0    0  0.57840740702E+01 -0.41308418151E+01 -0.17324957264E+02  0.18726278625E+02  0.00000000000E+00 0. -1.
         11    1    3    3    0    0  0.47988281808E+01  0.60665686740E+01 -0.17691742415E+02  0.19308799997E+02  0.51100000000E-03 0. -1.
        -11    1    3    3    0    0  0.59788136376E+01  0.99423267330E+01  0.29997980644E+02  0.32163254132E+02  0.51100000000E-03 0.  1.
        -12    1    3    3    0    0 -0.16561715889E+02 -0.11878053592E+02  0.50187190358E+01  0.20989667245E+02  0.00000000000E+00 0.  1.
</event>
<event>
 7    1  0.2153242E-013  0.7246154E+02  0.7816164E-02  0.1226708E+00
        -11   -1    0    0    0    0  0.00000000000E+00  0.00000000000E+00  0.45593999997E+02  0.45594000000E+02  0.51100000000E-03 0.  1.
         11   -1    0    0    0    0 -0.00000000000E+00 -0.00000000000E+00 -0.45593999997E+02  0.45594000000E+02  0.51100000000E-03 0. -1.
    9900012    2    1    2    0    0 -0.12558944335E+01  0.16979404164E+02  0.77976196367E+01  0.72461539881E+02  0.69999960380E+02 0.  0.
         12    1    1    2    0    0  0.12558944335E+01 -0.16979404164E+02 -0.77976196367E+01  0.18726460119E+02  0.00000000000E+00 0. -1.
         11    1    3    3    0    0 -0.10083963289E+02 -0.13203766263E+02  0.22292062492E+02  0.27802190733E+02  0.51100000000E-03 0. -1.
        -11    1    3    3    0    0  0.59341546330E+01 -0.36218527396E+01  0.15585162672E+01  0.71246741464E+01  0.51100000000E-03 0.  1.
        -12    1    3    3    0    0  0.28939142225E+01  0.33805023167E+02 -0.16052959123E+02  0.37534675001E+02  0.00000000000E+00 0.  1.
</event>
<event>
 7    1  0.2153242E-013  0.7246156E+02  0.7816164E-02  0.1226708E+00
        -11   -1    0    0    0    0  0.00000000000E+00  0.00000000000E+00  0.45593999997E+02  0.45594000000E+02  0.51100000000E-03 0.  1.
         11   -1    0    0    0    0 -0.00000000000E+00 -0.00000000000E+00 -0.45593999997E+02  0.45594000000E+02  0.51100000000E-03 0. -1.
    9900012    2    1    2    0    0  0.10515077535E+02 -0.50322194606E+00  0.15487399927E+02  0.72461557616E+02  0.69999983484E+02 0.  0.
         12    1    1    2    0    0 -0.10515077535E+02  0.50322194606E+00 -0.15487399927E+02  0.18726442384E+02  0.00000000000E+00 0. -1.
         11    1    3    3    0    0 -0.16024515676E+02 -0.15265348141E+02  0.24118015886E+01  0.22262810777E+02  0.51100000000E-03 0. -1.
        -11    1    3    3    0    0  0.55647872633E+01 -0.12334950230E+02  0.27742850231E-01  0.13532133031E+02  0.51100000000E-03 0.  1.
        -12    1    3    3    0    0  0.20974805948E+02  0.27097076424E+02  0.13047855488E+02  0.36666613808E+02  0.00000000000E+00 0.  1.
</event>
<event>
 7    1  0.2153242E-013  0.7246157E+02  0.7816164E-02  0.1226708E+00
        -11   -1    0    0    0    0  0.00000000000E+00  0.00000000000E+00  0.45593999997E+02  0.45594000000E+02  0.51100000000E-03 0. -1.
         11   -1    0    0    0    0 -0.00000000000E+00 -0.00000000000E+00 -0.45593999997E+02  0.45594000000E+02  0.51100000000E-03 0.  1.
    9900012    2    1    2    0    0 -0.15349270697E+02 -0.10463542887E+02  0.23650317529E+01  0.72461569057E+02  0.69999998388E+02 0.  0.
         12    1    1    2    0    0  0.15349270697E+02  0.10463542887E+02 -0.23650317529E+01  0.18726430943E+02  0.00000000000E+00 0. -1.
         11    1    3    3    0    0  0.17766901507E+02  0.40093410651E+01  0.96515490195E+01  0.20612860152E+02  0.51100000000E-03 0. -1.
        -11    1    3    3    0    0  0.35093334844E+01  0.64834546428E+01  0.36944935271E+01  0.82462044780E+01  0.51100000000E-03 0.  1.
        -12    1    3    3    0    0 -0.36625505688E+02 -0.20956338595E+02 -0.10981010794E+02  0.43602504426E+02  0.00000000000E+00 0.  1.
</event>
<event>
 7    1  0.2153242E-013  0.7246155E+02  0.7816164E-02  0.1226708E+00
        -11   -1    0    0    0    0  0.00000000000E+00  0.00000000000E+00  0.45593999997E+02  0.45594000000E+02  0.51100000000E-03 0.  1.
         11   -1    0    0    0    0 -0.00000000000E+00 -0.00000000000E+00 -0.45593999997E+02  0.45594000000E+02  0.51100000000E-03 0. -1.
    9900012    2    1    2    0    0 -0.10889547792E+02  0.12014044878E+02  0.93680462287E+01  0.72461553044E+02  0.69999977529E+02 0.  0.
         12    1    1    2    0    0  0.10889547792E+02 -0.12014044878E+02 -0.93680462287E+01  0.18726446956E+02  0.00000000000E+00 0. -1.
         11    1    3    3    0    0  0.64093145779E+01 -0.80210113289E+01 -0.55108557752E+01  0.11652702164E+02  0.51100000000E-03 0. -1.
        -11    1    3    3    0    0 -0.78649681688E+01 -0.17748162207E+02  0.90980132525E+01  0.21438955932E+02  0.51100000000E-03 0.  1.
        -12    1    3    3    0    0 -0.94338942013E+01  0.37783218414E+02  0.57808887514E+01  0.39369894948E+02  0.00000000000E+00 0.  1.
</event>
<event>
 7    1  0.2153242E-013  0.7246155E+02  0.7816164E-02  0.1226708E+00
        -11   -1    0    0    0    0  0.00000000000E+00  0.00000000000E+00  0.45593999997E+02  0.45594000000E+02  0.51100000000E-03 0. -1.
         11   -1    0    0    0    0 -0.00000000000E+00 -0.00000000000E+00 -0.45593999997E+02  0.45594000000E+02  0.51100000000E-03 0.  1.
    9900012    2    1    2    0    0  0.17523315645E+02  0.57566718116E+01 -0.32363423689E+01  0.72461554168E+02  0.69999978993E+02 0.  0.
         12    1    1    2    0    0 -0.17523315645E+02 -0.57566718116E+01  0.32363423689E+01  0.18726445832E+02  0.00000000000E+00 0. -1.
         11    1    3    3    0    0  0.18588411213E+02 -0.15447827946E+02 -0.15263297988E+01  0.24217640318E+02  0.51100000000E-03 0. -1.
        -11    1    3    3    0    0  0.54773271805E+01 -0.82853042151E+01  0.11568648662E+02  0.15247327999E+02  0.51100000000E-03 0.  1.
         12    1    3    3    0    0 -0.65424227476E+01  0.29489803972E+02 -0.13278661232E+02  0.32996585852E+02  0.00000000000E+00 0. -1.
</event>
<event>
 7    1  0.2153242E-013  0.7246158E+02  0.7816164E-02  0.1226708E+00
        -11   -1    0    0    0    0  0.00000000000E+00  0.00000000000E+00  0.45593999997E+02  0.45594000000E+02  0.51100000000E-03 0.  1.
         11   -1    0    0    0    0 -0.00000000000E+00 -0.00000000000E+00 -0.45593999997E+02  0.45594000000E+02  0.51100000000E-03 0. -1.
    9900012    2    1    2    0    0 -0.82329373349E+01 -0.39603131520E+01  0.16346669042E+02  0.72461576792E+02  0.70000008464E+02 0.  0.
         12    1    1    2    0    0  0.82329373349E+01  0.39603131520E+01 -0.16346669042E+02  0.18726423208E+02  0.00000000000E+00 0. -1.
         11    1    3    3    0    0 -0.13505187369E+02 -0.96941311297E+01 -0.24504091199E+01  0.16803891494E+02  0.51100000000E-03 0. -1.
        -11    1    3    3    0    0 -0.10506717532E+02 -0.93798319122E+00  0.32214307363E+02  0.33897382272E+02  0.51100000000E-03 0.  1.
         12    1    3    3    0    0  0.15778967566E+02  0.66718011690E+01 -0.13417229202E+02  0.21760303025E+02  0.00000000000E+00 0. -1.
</event>
<event>
 7    1  0.2153242E-013  0.7246157E+02  0.7816164E-02  0.1226708E+00
        -11   -1    0    0    0    0  0.00000000000E+00  0.00000000000E+00  0.45593999997E+02  0.45594000000E+02  0.51100000000E-03 0.  1.
         11   -1    0    0    0    0 -0.00000000000E+00 -0.00000000000E+00 -0.45593999997E+02  0.45594000000E+02  0.51100000000E-03 0. -1.
    9900012    2    1    2    0    0  0.10379029421E+02 -0.13806015982E+02  0.72352619892E+01  0.72461565607E+02  0.69999993894E+02 0.  0.
         12    1    1    2    0    0 -0.10379029421E+02  0.13806015982E+02 -0.72352619892E+01  0.18726434393E+02  0.00000000000E+00 0. -1.
         11    1    3    3    0    0 -0.15928607853E+01  0.74065219374E+01 -0.78276286696E+01  0.10893371542E+02  0.51100000000E-03 0. -1.
        -11    1    3    3    0    0 -0.49515118726E+01  0.51479717549E+01 -0.15957132104E+02  0.17482824379E+02  0.51100000000E-03 0.  1.
        -12    1    3    3    0    0  0.16923402079E+02 -0.26360509674E+02  0.31020022763E+02  0.44085369687E+02  0.00000000000E+00 0.  1.
</event>
<event>
 7    1  0.2153242E-013  0.7246157E+02  0.7816164E-02  0.1226708E+00
        -11   -1    0    0    0    0  0.00000000000E+00  0.00000000000E+00  0.45593999997E+02  0.45594000000E+02  0.51100000000E-03 0. -1.
         11   -1    0    0    0    0 -0.00000000000E+00 -0.00000000000E+00 -0.45593999997E+02  0.45594000000E+02  0.51100000000E-03 0.  1.
    9900012    2    1    2    0    0  0.15552403135E+02  0.10388920375E+02  0.93389186227E+00  0.72461573116E+02  0.70000003675E+02 0.  0.
         12    1    1    2    0    0 -0.15552403135E+02 -0.10388920375E+02 -0.93389186227E+00  0.18726426884E+02  0.00000000000E+00 0. -1.
         11    1    3    3    0    0  0.36598408183E+01  0.32671709864E+00 -0.11123967845E+01  0.38390891818E+01  0.51100000000E-03 0. -1.
        -11    1    3    3    0    0  0.34680943582E+02 -0.69346737402E+00  0.17714619353E+02  0.38949409288E+02  0.51100000000E-03 0.  1.
         12    1    3    3    0    0 -0.22788381265E+02  0.10755670650E+02 -0.15668330706E+02  0.29673074646E+02  0.00000000000E+00 0. -1.
</event>
<event>
 7    1  0.2153242E-013  0.7246160E+02  0.7816164E-02  0.1226708E+00
        -11   -1    0    0    0    0  0.00000000000E+00  0.00000000000E+00  0.45593999997E+02  0.45594000000E+02  0.51100000000E-03 0. -1.
         11   -1    0    0    0    0 -0.00000000000E+00 -0.00000000000E+00 -0.45593999997E+02  0.45594000000E+02  0.51100000000E-03 0.  1.
    9900012    2    1    2    0    0  0.13590336053E+02  0.98590279926E+01 -0.82933865364E+01  0.72461603464E+02  0.70000043209E+02 0.  0.
         12    1    1    2    0    0 -0.13590336053E+02 -0.98590279926E+01  0.82933865364E+01  0.18726396536E+02  0.00000000000E+00 0. -1.
         11    1    3    3    0    0 -0.20980758093E+02  0.13916447196E+02  0.68358374488E+00  0.25185849196E+02  0.51100000000E-03 0. -1.
        -11    1    3    3    0    0  0.11966808781E+02  0.13273595389E+02 -0.22897804528E+01  0.18017656388E+02  0.51100000000E-03 0.  1.
         12    1    3    3    0    0  0.22604285366E+02 -0.17331014593E+02 -0.66871898285E+01  0.29258097879E+02  0.00000000000E+00 0. -1.
</event>
<event>
 7    1  0.2153242E-013  0.7246162E+02  0.7816164E-02  0.1226708E+00
        -11   -1    0    0    0    0  0.00000000000E+00  0.00000000000E+00  0.45593999997E+02  0.45594000000E+02  0.51100000000E-03 0.  1.
         11   -1    0    0    0    0 -0.00000000000E+00 -0.00000000000E+00 -0.45593999997E+02  0.45594000000E+02  0.51100000000E-03 0. -1.
    9900012    2    1    2    0    0  0.18474306758E+02 -0.20719678215E+01 -0.22547903710E+01  0.72461624470E+02  0.70000070574E+02 0.  0.
         12    1    1    2    0    0 -0.18474306758E+02  0.20719678215E+01  0.22547903710E+01  0.18726375530E+02  0.00000000000E+00 0. -1.
         11    1    3    3    0    0 -0.97676683782E+01  0.14566737699E+01 -0.70875777226E+01  0.12155780611E+02  0.51100000000E-03 0. -1.
        -11    1    3    3    0    0 -0.13528212097E+02 -0.10886471949E+02 -0.14706320284E+01  0.17426719510E+02  0.51100000000E-03 0.  1.
         12    1    3    3    0    0  0.41770187234E+02  0.73578303580E+01  0.63034193801E+01  0.42879124350E+02  0.00000000000E+00 0. -1.
</event>
<event>
 7    1  0.2153242E-013  0.7246157E+02  0.7816164E-02  0.1226708E+00
        -11   -1    0    0    0    0  0.00000000000E+00  0.00000000000E+00  0.45593999997E+02  0.45594000000E+02  0.51100000000E-03 0. -1.
         11   -1    0    0    0    0 -0.00000000000E+00 -0.00000000000E+00 -0.45593999997E+02  0.45594000000E+02  0.51100000000E-03 0.  1.
    9900012    2    1    2    0    0 -0.15659657753E+02  0.39325311432E+01 -0.94862837162E+01  0.72461567855E+02  0.69999996822E+02 0.  0.
         12    1    1    2    0    0  0.15659657753E+02 -0.39325311432E+01  0.94862837162E+01  0.18726432145E+02  0.00000000000E+00 0. -1.
         11    1    3    3    0    0 -0.15809918545E+02  0.14207164105E+02 -0.15057859201E+01  0.21308787572E+02  0.51100000000E-03 0. -1.
        -11    1    3    3    0    0 -0.15291666560E+02 -0.15621503127E+02 -0.20959087375E+02  0.30284480679E+02  0.51100000000E-03 0.  1.
         12    1    3    3    0    0  0.15441927352E+02  0.53468701656E+01  0.12978589579E+02  0.20868299604E+02  0.00000000000E+00 0. -1.
</event>
<event>
 7    1  0.2153242E-013  0.7246159E+02  0.7816164E-02  0.1226708E+00
        -11   -1    0    0    0    0  0.00000000000E+00  0.00000000000E+00  0.45593999997E+02  0.45594000000E+02  0.51100000000E-03 0.  1.
         11   -1    0    0    0    0 -0.00000000000E+00 -0.00000000000E+00 -0.45593999997E+02  0.45594000000E+02  0.51100000000E-03 0. -1.
    9900012    2    1    2    0    0 -0.12968047603E+02  0.35443883420E+00  0.13504905866E+02  0.72461591696E+02  0.70000027880E+02 0.  0.
         12    1    1    2    0    0  0.12968047603E+02 -0.35443883420E+00 -0.13504905866E+02  0.18726408304E+02  0.00000000000E+00 0. -1.
         11    1    3    3    0    0  0.47246395980E+01 -0.25642025504E+02  0.79368642718E+01  0.27254898753E+02  0.51100000000E-03 0. -1.
        -11    1    3    3    0    0  0.63901548809E+01  0.41609168623E+01 -0.70024267145E+01  0.10352839644E+02  0.51100000000E-03 0.  1.
        -12    1    3    3    0    0 -0.24082842082E+02  0.21835547476E+02  0.12570468309E+02  0.34853853299E+02  0.00000000000E+00 0.  1.
</event>
<event>
 7    1  0.2153242E-013  0.7246161E+02  0.7816164E-02  0.1226708E+00
        -11   -1    0    0    0    0  0.00000000000E+00  0.00000000000E+00  0.45593999997E+02  0.45594000000E+02  0.51100000000E-03 0.  1.
         11   -1    0    0    0    0 -0.00000000000E+00 -0.00000000000E+00 -0.45593999997E+02  0.45594000000E+02  0.51100000000E-03 0. -1.
    9900012    2    1    2    0    0  0.64030706908E+00  0.82791025494E+01  0.16784645836E+02  0.72461605045E+02  0.70000045269E+02 0.  0.
         12    1    1    2    0    0 -0.64030706908E+00 -0.82791025494E+01 -0.16784645836E+02  0.18726394955E+02  0.00000000000E+00 0. -1.
         11    1    3    3    0    0  0.28296663623E+02  0.80559456079E+01  0.70432390163E+01  0.30252382517E+02  0.51100000000E-03 0. -1.
        -11    1    3    3    0    0 -0.53034570207E+00 -0.61303562827E+01 -0.73023630403E+01  0.95491905913E+01  0.51100000000E-03 0.  1.
        -12    1    3    3    0    0 -0.27126010852E+02  0.63535132242E+01  0.17043769860E+02  0.32660031937E+02  0.00000000000E+00 0.  1.
</event>
<event>
 7    1  0.2153242E-013  0.7246165E+02  0.7816164E-02  0.1226708E+00
        -11   -1    0    0    0    0  0.00000000000E+00  0.00000000000E+00  0.45593999997E+02  0.45594000000E+02  0.51100000000E-03 0. -1.
         11   -1    0    0    0    0 -0.00000000000E+00 -0.00000000000E+00 -0.45593999997E+02  0.45594000000E+02  0.51100000000E-03 0.  1.
    9900012    2    1    2    0    0 -0.16498983308E+02 -0.82663695871E+01 -0.31822956815E+01  0.72461646320E+02  0.70000099038E+02 0.  0.
         12    1    1    2    0    0  0.16498983308E+02  0.82663695871E+01  0.31822956815E+01  0.18726353680E+02  0.00000000000E+00 0. -1.
         11    1    3    3    0    0 -0.91345235003E+01 -0.46423823119E+01 -0.19839142052E+01  0.10436816993E+02  0.51100000000E-03 0. -1.
        -11    1    3    3    0    0 -0.25546970880E+02 -0.67785082808E+01 -0.21876129988E+02  0.34309779351E+02  0.51100000000E-03 0.  1.
         12    1    3    3    0    0  0.18182511072E+02  0.31545210055E+01  0.20677748511E+02  0.27715049976E+02  0.00000000000E+00 0. -1.
</event>
<event>
 7    1  0.2153242E-013  0.7246159E+02  0.7816164E-02  0.1226708E+00
        -11   -1    0    0    0    0  0.00000000000E+00  0.00000000000E+00  0.45593999997E+02  0.45594000000E+02  0.51100000000E-03 0.  1.
         11   -1    0    0    0    0 -0.00000000000E+00 -0.00000000000E+00 -0.45593999997E+02  0.45594000000E+02  0.51100000000E-03 0. -1.
    9900012    2    1    2    0    0 -0.11102377308E+02  0.13631228949E+02  0.64502057489E+01  0.72461592476E+02  0.70000028896E+02 0.  0.
         12    1    1    2    0    0  0.11102377308E+02 -0.13631228949E+02 -0.64502057489E+01  0.18726407524E+02  0.00000000000E+00 0. -1.
         11    1    3    3    0    0 -0.12172713677E+02  0.21506787507E+02 -0.58838865589E+01  0.25403483785E+02  0.51100000000E-03 0. -1.
        -11    1    3    3    0    0 -0.18842950887E+02  0.37645033857E+01  0.14235690160E+02  0.23914078666E+02  0.51100000000E-03 0.  1.
        -12    1    3    3    0    0  0.19913287256E+02 -0.11640061944E+02 -0.19015978523E+01  0.23144030025E+02  0.00000000000E+00 0.  1.
</event>
<event>
 7    1  0.2153242E-013  0.7246171E+02  0.7816164E-02  0.1226708E+00
        -11   -1    0    0    0    0  0.00000000000E+00  0.00000000000E+00  0.45593999997E+02  0.45594000000E+02  0.51100000000E-03 0.  1.
         11   -1    0    0    0    0 -0.00000000000E+00 -0.00000000000E+00 -0.45593999997E+02  0.45594000000E+02  0.51100000000E-03 0. -1.
    9900012    2    1    2    0    0  0.12503912226E+02  0.81837497630E+01  0.11285056290E+02  0.72461706277E+02  0.70000177142E+02 0.  0.
         12    1    1    2    0    0 -0.12503912226E+02 -0.81837497630E+01 -0.11285056290E+02  0.18726293723E+02  0.00000000000E+00 0. -1.
         11    1    3    3    0    0  0.10819496550E+02 -0.16632050911E+02 -0.16748126049E+02  0.25965098681E+02  0.51100000000E-03 0. -1.
        -11    1    3    3    0    0 -0.96332465072E+01  0.25323098020E+01  0.15782470203E+02  0.18662754276E+02  0.51100000000E-03 0.  1.
        -12    1    3    3    0    0  0.11317662183E+02  0.22283490872E+02  0.12250712137E+02  0.27833853320E+02  0.00000000000E+00 0.  1.
</event>
<event>
 7    1  0.2153242E-013  0.7246154E+02  0.7816164E-02  0.1226708E+00
        -11   -1    0    0    0    0  0.00000000000E+00  0.00000000000E+00  0.45593999997E+02  0.45594000000E+02  0.51100000000E-03 0. -1.
         11   -1    0    0    0    0 -0.00000000000E+00 -0.00000000000E+00 -0.45593999997E+02  0.45594000000E+02  0.51100000000E-03 0.  1.
    9900012    2    1    2    0    0  0.69664773454E+01  0.15278052848E+01 -0.17315150119E+02  0.72461536926E+02  0.69999956532E+02 0.  0.
         12    1    1    2    0    0 -0.69664773454E+01 -0.15278052848E+01  0.17315150119E+02  0.18726463074E+02  0.00000000000E+00 0. -1.
         11    1    3    3    0    0 -0.28198386309E+02 -0.32578336297E+01 -0.19458901692E+01  0.28452573859E+02  0.51100000000E-03 0. -1.
        -11    1    3    3    0    0  0.37876951596E+01  0.29634109389E+01 -0.11345136753E+02  0.12322360456E+02  0.51100000000E-03 0.  1.
         12    1    3    3    0    0  0.31377168495E+02  0.18222279756E+01 -0.40241231977E+01  0.31686602611E+02  0.00000000000E+00 0. -1.
</event>
<event>
 7    1  0.2153242E-013  0.7246156E+02  0.7816164E-02  0.1226708E+00
        -11   -1    0    0    0    0  0.00000000000E+00  0.00000000000E+00  0.45593999997E+02  0.45594000000E+02  0.51100000000E-03 0.  1.
         11   -1    0    0    0    0 -0.00000000000E+00 -0.00000000000E+00 -0.45593999997E+02  0.45594000000E+02  0.51100000000E-03 0. -1.
    9900012    2    1    2    0    0  0.11931331549E+02  0.14088454673E+02 -0.31366074325E+01  0.72461560569E+02  0.69999987330E+02 0.  0.
         12    1    1    2    0    0 -0.11931331549E+02 -0.14088454673E+02  0.31366074325E+01  0.18726439431E+02  0.00000000000E+00 0. -1.
         11    1    3    3    0    0 -0.17314373678E+02 -0.16832652479E+02 -0.79429646383E+01  0.25420787023E+02  0.51100000000E-03 0. -1.
        -11    1    3    3    0    0  0.85358186166E+01  0.13365575311E+02  0.10864806143E+02  0.19223496447E+02  0.51100000000E-03 0.  1.
        -12    1    3    3    0    0  0.20709886611E+02  0.17555531841E+02 -0.60584489376E+01  0.27817277099E+02  0.00000000000E+00 0.  1.
</event>
<event>
 7    1  0.2153242E-013  0.7246157E+02  0.7816164E-02  0.1226708E+00
        -11   -1    0    0    0    0  0.00000000000E+00  0.00000000000E+00  0.45593999997E+02  0.45594000000E+02  0.51100000000E-03 0. -1.
         11   -1    0    0    0    0 -0.00000000000E+00 -0.00000000000E+00 -0.45593999997E+02  0.45594000000E+02  0.51100000000E-03 0.  1.
    9900012    2    1    2    0    0 -0.15675359154E+02  0.65753346654E+01 -0.78566718330E+01  0.72461569404E+02  0.69999998840E+02 0.  0.
         12    1    1    2    0    0  0.15675359154E+02 -0.65753346654E+01  0.78566718330E+01  0.18726430596E+02  0.00000000000E+00 0. -1.
         11    1    3    3    0    0 -0.14083437620E+02 -0.65399180570E+01 -0.17732872355E+02  0.23570500751E+02  0.51100000000E-03 0. -1.
        -11    1    3    3    0    0  0.18910557328E+02  0.57778841201E+01 -0.73809729497E+01  0.21106204901E+02  0.51100000000E-03 0.  1.
         12    1    3    3    0    0 -0.20502478862E+02  0.73373686023E+01  0.17257173472E+02  0.27784863753E+02  0.00000000000E+00 0. -1.
</event>
<event>
 7    1  0.2153242E-013  0.7246159E+02  0.7816164E-02  0.1226708E+00
        -11   -1    0    0    0    0  0.00000000000E+00  0.00000000000E+00  0.45593999997E+02  0.45594000000E+02  0.51100000000E-03 0. -1.
         11   -1    0    0    0    0 -0.00000000000E+00 -0.00000000000E+00 -0.45593999997E+02  0.45594000000E+02  0.51100000000E-03 0.  1.
    9900012    2    1    2    0    0 -0.14558471312E+02  0.41495948696E+01 -0.11023172351E+02  0.72461586750E+02  0.70000021437E+02 0.  0.
         12    1    1    2    0    0  0.14558471312E+02 -0.41495948696E+01  0.11023172351E+02  0.18726413250E+02  0.00000000000E+00 0. -1.
         11    1    3    3    0    0  0.16837934921E+02  0.91901463774E+00 -0.11754475752E+01  0.16903914267E+02  0.51100000000E-03 0. -1.
        -11    1    3    3    0    0 -0.54057287970E+01  0.17773344461E+02 -0.16718843146E+02  0.24992666796E+02  0.51100000000E-03 0.  1.
        -12    1    3    3    0    0 -0.25990677435E+02 -0.14542764229E+02  0.68711183702E+01  0.30565005687E+02  0.00000000000E+00 0.  1.
</event>
<event>
 7    1  0.2153242E-013  0.7246157E+02  0.7816164E-02  0.1226708E+00
        -11   -1    0    0    0    0  0.00000000000E+00  0.00000000000E+00  0.45593999997E+02  0.45594000000E+02  0.51100000000E-03 0. -1.
         11   -1    0    0    0    0 -0.00000000000E+00 -0.00000000000E+00 -0.45593999997E+02  0.45594000000E+02  0.51100000000E-03 0.  1.
    9900012    2    1    2    0    0  0.61207061157E+01  0.14830465542E+02 -0.96578211097E+01  0.72461567875E+02  0.69999996848E+02 0.  0.
         12    1    1    2    0    0 -0.61207061157E+01 -0.14830465542E+02  0.96578211097E+01  0.18726432125E+02  0.00000000000E+00 0. -1.
         11    1    3    3    0    0  0.20031432744E+02 -0.22885600224E+01 -0.19984590822E+02  0.28388019926E+02  0.51100000000E-03 0. -1.
        -11    1    3    3    0    0 -0.14371535821E+02  0.17393644323E+01 -0.10712000035E+02  0.18008702771E+02  0.51100000000E-03 0.  1.
        -12    1    3    3    0    0  0.46080919319E+00  0.15379661132E+02  0.21038769747E+02  0.26064845178E+02  0.00000000000E+00 0.  1.
</event>
<event>
 7    1  0.2153242E-013  0.7246135E+02  0.7816164E-02  0.1226709E+00
        -11   -1    0    0    0    0  0.00000000000E+00  0.00000000000E+00  0.45593999997E+02  0.45594000000E+02  0.51100000000E-03 0.  1.
         11   -1    0    0    0    0 -0.00000000000E+00 -0.00000000000E+00 -0.45593999997E+02  0.45594000000E+02  0.51100000000E-03 0. -1.
    9900012    2    1    2    0    0  0.64228085617E+01 -0.16334701928E+02  0.65278131650E+01  0.72461353167E+02  0.69999717151E+02 0.  0.
         12    1    1    2    0    0 -0.64228085617E+01  0.16334701928E+02 -0.65278131650E+01  0.18726646833E+02  0.00000000000E+00 0. -1.
         11    1    3    3    0    0  0.74954427834E+00 -0.58874599853E+01  0.28423924475E+01  0.65805164532E+01  0.51100000000E-03 0. -1.
        -11    1    3    3    0    0 -0.48883312317E+01 -0.18147149524E+02  0.30628418050E+02  0.35934869008E+02  0.51100000000E-03 0.  1.
         12    1    3    3    0    0  0.10561595515E+02  0.76999075812E+01 -0.26942997333E+02  0.29945967706E+02  0.00000000000E+00 0. -1.
</event>
<event>
 7    1  0.2153242E-013  0.7246228E+02  0.7816164E-02  0.1226706E+00
        -11   -1    0    0    0    0  0.00000000000E+00  0.00000000000E+00  0.45593999997E+02  0.45594000000E+02  0.51100000000E-03 0.  1.
         11   -1    0    0    0    0 -0.00000000000E+00 -0.00000000000E+00 -0.45593999997E+02  0.45594000000E+02  0.51100000000E-03 0. -1.
    9900012    2    1    2    0    0 -0.71081667326E+01 -0.15877304703E+02  0.69309207558E+01  0.72462282352E+02  0.70000927581E+02 0.  0.
         12    1    1    2    0    0  0.71081667326E+01  0.15877304703E+02 -0.69309207558E+01  0.18725717648E+02  0.00000000000E+00 0. -1.
         11    1    3    3    0    0  0.27893675916E+01  0.11386948660E+02  0.49232611835E+01  0.12715410819E+02  0.51100000000E-03 0. -1.
        -11    1    3    3    0    0 -0.73644128811E+01  0.14175776866E+02  0.78866025083E+01  0.17815322793E+02  0.51100000000E-03 0.  1.
         12    1    3    3    0    0 -0.25331214430E+01 -0.41440030229E+02 -0.58789429361E+01  0.41931548739E+02  0.00000000000E+00 0. -1.
</event>
<event>
 7    1  0.2153242E-013  0.7246157E+02  0.7816164E-02  0.1226708E+00
        -11   -1    0    0    0    0  0.00000000000E+00  0.00000000000E+00  0.45593999997E+02  0.45594000000E+02  0.51100000000E-03 0.  1.
         11   -1    0    0    0    0 -0.00000000000E+00 -0.00000000000E+00 -0.45593999997E+02  0.45594000000E+02  0.51100000000E-03 0. -1.
    9900012    2    1    2    0    0  0.17867051461E+02  0.49897707931E+01  0.25592714156E+01  0.72461569196E+02  0.69999998569E+02 0.  0.
         12    1    1    2    0    0 -0.17867051461E+02 -0.49897707931E+01 -0.25592714156E+01  0.18726430804E+02  0.00000000000E+00 0. -1.
         11    1    3    3    0    0 -0.28297903957E+01 -0.10024100790E+01 -0.22677188432E+02  0.22875039128E+02  0.51100000000E-03 0. -1.
        -11    1    3    3    0    0 -0.14558305520E+01  0.17403572841E+02  0.75368964601E+01  0.19021267012E+02  0.51100000000E-03 0.  1.
         12    1    3    3    0    0  0.22152672409E+02 -0.11411391969E+02  0.17699563388E+02  0.30565263056E+02  0.00000000000E+00 0. -1.
</event>
<event>
 7    1  0.2153242E-013  0.7246161E+02  0.7816164E-02  0.1226708E+00
        -11   -1    0    0    0    0  0.00000000000E+00  0.00000000000E+00  0.45593999997E+02  0.45594000000E+02  0.51100000000E-03 0. -1.
         11   -1    0    0    0    0 -0.00000000000E+00 -0.00000000000E+00 -0.45593999997E+02  0.45594000000E+02  0.51100000000E-03 0.  1.
    9900012    2    1    2    0    0  0.65272495627E+01  0.32152708172E+01 -0.17254986586E+02  0.72461614461E+02  0.70000057535E+02 0.  0.
         12    1    1    2    0    0 -0.65272495627E+01 -0.32152708172E+01  0.17254986586E+02  0.18726385539E+02  0.00000000000E+00 0. -1.
         11    1    3    3    0    0  0.33076397825E+02  0.13284842193E+02 -0.57108973773E+01  0.36099161684E+02  0.51100000000E-03 0. -1.
        -11    1    3    3    0    0 -0.12180460657E+02  0.48108308138E+01 -0.80824720972E+01  0.15389414232E+02  0.51100000000E-03 0.  1.
        -12    1    3    3    0    0 -0.14368687605E+02 -0.14880402189E+02 -0.34616171115E+01  0.20973038546E+02  0.00000000000E+00 0.  1.
</event>
<event>
 7    1  0.2153242E-013  0.7246159E+02  0.7816164E-02  0.1226708E+00
        -11   -1    0    0    0    0  0.00000000000E+00  0.00000000000E+00  0.45593999997E+02  0.45594000000E+02  0.51100000000E-03 0.  1.
         11   -1    0    0    0    0 -0.00000000000E+00 -0.00000000000E+00 -0.45593999997E+02  0.45594000000E+02  0.51100000000E-03 0. -1.
    9900012    2    1    2    0    0 -0.12871833739E+02 -0.10549346299E+02  0.85851955087E+01  0.72461591026E+02  0.70000027007E+02 0.  0.
         12    1    1    2    0    0  0.12871833739E+02  0.10549346299E+02 -0.85851955087E+01  0.18726408974E+02  0.00000000000E+00 0. -1.
         11    1    3    3    0    0 -0.28101777286E+01 -0.14984600463E+02  0.13241430474E+02  0.20193336305E+02  0.51100000000E-03 0. -1.
        -11    1    3    3    0    0  0.14595549091E+01  0.10838436517E+02  0.20857558737E+02  0.23550791142E+02  0.51100000000E-03 0.  1.
         12    1    3    3    0    0 -0.11521210919E+02 -0.64031823539E+01 -0.25513793703E+02  0.28717463579E+02  0.00000000000E+00 0. -1.
</event>
<event>
 7    1  0.2153242E-013  0.7246155E+02  0.7816164E-02  0.1226708E+00
        -11   -1    0    0    0    0  0.00000000000E+00  0.00000000000E+00  0.45593999997E+02  0.45594000000E+02  0.51100000000E-03 0.  1.
         11   -1    0    0    0    0 -0.00000000000E+00 -0.00000000000E+00 -0.45593999997E+02  0.45594000000E+02  0.51100000000E-03 0. -1.
    9900012    2    1    2    0    0 -0.43200698968E+01 -0.15846594768E+02 -0.89945800468E+01  0.72461547056E+02  0.69999969727E+02 0.  0.
         12    1    1    2    0    0  0.43200698968E+01  0.15846594768E+02  0.89945800468E+01  0.18726452944E+02  0.00000000000E+00 0. -1.
         11    1    3    3    0    0  0.22776245580E+01  0.16268604000E+01  0.96868967595E+01  0.10083165053E+02  0.51100000000E-03 0. -1.
        -11    1    3    3    0    0  0.97364537867E+01  0.17146268144E+02  0.14789517930E+00  0.19718390321E+02  0.51100000000E-03 0.  1.
         12    1    3    3    0    0 -0.16334148242E+02 -0.34619723312E+02 -0.18829371986E+02  0.42659991682E+02  0.00000000000E+00 0. -1.
</event>
<event>
 7    1  0.2153242E-013  0.7246175E+02  0.7816164E-02  0.1226708E+00
        -11   -1    0    0    0    0  0.00000000000E+00  0.00000000000E+00  0.45593999997E+02  0.45594000000E+02  0.51100000000E-03 0.  1.
         11   -1    0    0    0    0 -0.00000000000E+00 -0.00000000000E+00 -0.45593999997E+02  0.45594000000E+02  0.51100000000E-03 0. -1.
    9900012    2    1    2    0    0  0.12909504432E+02  0.25546263612E+00 -0.13562890482E+02  0.72461746663E+02  0.70000229752E+02 0.  0.
         12    1    1    2    0    0 -0.12909504432E+02 -0.25546263612E+00  0.13562890482E+02  0.18726253337E+02  0.00000000000E+00 0. -1.
         11    1    3    3    0    0 -0.31832911855E+01 -0.17854795176E+02 -0.27781913421E+02  0.33177729988E+02  0.51100000000E-03 0. -1.
        -11    1    3    3    0    0  0.67503721919E+01  0.34192051448E+01 -0.80295506032E+01  0.11033230338E+02  0.51100000000E-03 0.  1.
        -12    1    3    3    0    0  0.93424234254E+01  0.14691052667E+02  0.22248573543E+02  0.28250786336E+02  0.00000000000E+00 0.  1.
</event>
<event>
 7    1  0.2153242E-013  0.7246160E+02  0.7816164E-02  0.1226708E+00
        -11   -1    0    0    0    0  0.00000000000E+00  0.00000000000E+00  0.45593999997E+02  0.45594000000E+02  0.51100000000E-03 0.  1.
         11   -1    0    0    0    0 -0.00000000000E+00 -0.00000000000E+00 -0.45593999997E+02  0.45594000000E+02  0.51100000000E-03 0. -1.
    9900012    2    1    2    0    0 -0.52011367387E+01 -0.22225814638E+01  0.17851792455E+02  0.72461596566E+02  0.70000034223E+02 0.  0.
         12    1    1    2    0    0  0.52011367387E+01  0.22225814638E+01 -0.17851792455E+02  0.18726403434E+02  0.00000000000E+00 0. -1.
         11    1    3    3    0    0 -0.14167570645E+02 -0.43644135136E+01  0.12048472316E+02  0.19103241838E+02  0.51100000000E-03 0. -1.
        -11    1    3    3    0    0 -0.20151640256E+02  0.10165440962E+02  0.51371931457E+01  0.23147689920E+02  0.51100000000E-03 0.  1.
        -12    1    3    3    0    0  0.29118074163E+02 -0.80236089123E+01  0.66612699321E+00  0.30210664807E+02  0.00000000000E+00 0.  1.
</event>
<event>
 7    1  0.2153242E-013  0.7246156E+02  0.7816164E-02  0.1226708E+00
        -11   -1    0    0    0    0  0.00000000000E+00  0.00000000000E+00  0.45593999997E+02  0.45594000000E+02  0.51100000000E-03 0.  1.
         11   -1    0    0    0    0 -0.00000000000E+00 -0.00000000000E+00 -0.45593999997E+02  0.45594000000E+02  0.51100000000E-03 0. -1.
    9900012    2    1    2    0    0 -0.75127035693E+01 -0.11357283038E+02  0.12854993860E+02  0.72461562537E+02  0.69999989894E+02 0.  0.
         12    1    1    2    0    0  0.75127035693E+01  0.11357283038E+02 -0.12854993860E+02  0.18726437463E+02  0.00000000000E+00 0. -1.
         11    1    3    3    0    0 -0.41267354766E+01 -0.62838212604E+01 -0.21959883577E+02  0.23211050004E+02  0.51100000000E-03 0. -1.
        -11    1    3    3    0    0  0.26117813599E+00  0.11150656914E+02  0.55419978435E+00  0.11167475153E+02  0.51100000000E-03 0.  1.
        -12    1    3    3    0    0 -0.36471462287E+01 -0.16224118691E+02  0.34260677652E+02  0.38083037380E+02  0.00000000000E+00 0.  1.
</event>
<event>
 7    1  0.2153242E-013  0.7246161E+02  0.7816164E-02  0.1226708E+00
        -11   -1    0    0    0    0  0.00000000000E+00  0.00000000000E+00  0.45593999997E+02  0.45594000000E+02  0.51100000000E-03 0.  1.
         11   -1    0    0    0    0 -0.00000000000E+00 -0.00000000000E+00 -0.45593999997E+02  0.45594000000E+02  0.51100000000E-03 0. -1.
    9900012    2    1    2    0    0 -0.14000073421E+02  0.82039360206E+01  0.93472456779E+01  0.72461611566E+02  0.70000053763E+02 0.  0.
         12    1    1    2    0    0  0.14000073421E+02 -0.82039360206E+01 -0.93472456779E+01  0.18726388434E+02  0.00000000000E+00 0. -1.
         11    1    3    3    0    0  0.46511370035E+01 -0.92065189789E+00  0.81338774954E-01  0.47420767181E+01  0.51100000000E-03 0. -1.
        -11    1    3    3    0    0 -0.12626424154E+02 -0.63198939612E+01  0.34641535050E+02  0.37408603255E+02  0.51100000000E-03 0.  1.
         12    1    3    3    0    0 -0.60247862707E+01  0.15444481880E+02 -0.25375628147E+02  0.30310931592E+02  0.00000000000E+00 0. -1.
</event>
<event>
 7    1  0.2153242E-013  0.7246158E+02  0.7816164E-02  0.1226708E+00
        -11   -1    0    0    0    0  0.00000000000E+00  0.00000000000E+00  0.45593999997E+02  0.45594000000E+02  0.51100000000E-03 0.  1.
         11   -1    0    0    0    0 -0.00000000000E+00 -0.00000000000E+00 -0.45593999997E+02  0.45594000000E+02  0.51100000000E-03 0. -1.
    9900012    2    1    2    0    0 -0.19660413723E+01  0.52426660602E+01  0.17869754007E+02  0.72461575505E+02  0.70000006788E+02 0.  0.
         12    1    1    2    0    0  0.19660413723E+01 -0.52426660602E+01 -0.17869754007E+02  0.18726424495E+02  0.00000000000E+00 0. -1.
         11    1    3    3    0    0 -0.72073829284E+01 -0.33074546621E+01 -0.14122179986E+02  0.16196345046E+02  0.51100000000E-03 0. -1.
        -11    1    3    3    0    0 -0.13247115519E+02  0.20368494606E+02  0.18040639624E+02  0.30262622497E+02  0.51100000000E-03 0.  1.
        -12    1    3    3    0    0  0.18488457075E+02 -0.11818373884E+02  0.13951294369E+02  0.26002607962E+02  0.00000000000E+00 0.  1.
</event>
<event>
 7    1  0.2153242E-013  0.7246157E+02  0.7816164E-02  0.1226708E+00
        -11   -1    0    0    0    0  0.00000000000E+00  0.00000000000E+00  0.45593999997E+02  0.45594000000E+02  0.51100000000E-03 0. -1.
         11   -1    0    0    0    0 -0.00000000000E+00 -0.00000000000E+00 -0.45593999997E+02  0.45594000000E+02  0.51100000000E-03 0.  1.
    9900012    2    1    2    0    0  0.17534569252E+02 -0.63421758675E+01  0.17305651646E+01  0.72461570298E+02  0.70000000005E+02 0.  0.
         12    1    1    2    0    0 -0.17534569252E+02  0.63421758675E+01 -0.17305651646E+01  0.18726429702E+02  0.00000000000E+00 0. -1.
         11    1    3    3    0    0 -0.16680147551E+02  0.65492323046E-02  0.24404108669E+02  0.29559903338E+02  0.51100000000E-03 0. -1.
        -11    1    3    3    0    0  0.24160348554E+01  0.17344582459E+01  0.77961453979E-01  0.29751719410E+01  0.51100000000E-03 0.  1.
        -12    1    3    3    0    0  0.31798681948E+02 -0.80831833457E+01 -0.22751504958E+02  0.39926495018E+02  0.00000000000E+00 0.  1.
</event>
<event>
 7    1  0.2153242E-013  0.7246163E+02  0.7816164E-02  0.1226708E+00
        -11   -1    0    0    0    0  0.00000000000E+00  0.00000000000E+00  0.45593999997E+02  0.45594000000E+02  0.51100000000E-03 0.  1.
         11   -1    0    0    0    0 -0.00000000000E+00 -0.00000000000E+00 -0.45593999997E+02  0.45594000000E+02  0.51100000000E-03 0. -1.
    9900012    2    1    2    0    0  0.40950842937E+01  0.84135386865E+01  0.16220962919E+02  0.72461628579E+02  0.70000075926E+02 0.  0.
         12    1    1    2    0    0 -0.40950842937E+01 -0.84135386865E+01 -0.16220962919E+02  0.18726371421E+02  0.00000000000E+00 0. -1.
         11    1    3    3    0    0 -0.22648307529E+02  0.49204103130E+01  0.44105596371E+01  0.23592568918E+02  0.51100000000E-03 0. -1.
        -11    1    3    3    0    0 -0.56311707883E+01  0.11081983330E+02  0.92958129055E+01  0.15522002990E+02  0.51100000000E-03 0.  1.
         12    1    3    3    0    0  0.32374562611E+02 -0.75888549569E+01  0.25145903760E+01  0.33347056671E+02  0.00000000000E+00 0. -1.
</event>
<event>
 7    1  0.2153242E-013  0.7246152E+02  0.7816164E-02  0.1226708E+00
        -11   -1    0    0    0    0  0.00000000000E+00  0.00000000000E+00  0.45593999997E+02  0.45594000000E+02  0.51100000000E-03 0. -1.
         11   -1    0    0    0    0 -0.00000000000E+00 -0.00000000000E+00 -0.45593999997E+02  0.45594000000E+02  0.51100000000E-03 0.  1.
    9900012    2    1    2    0    0 -0.44732239860E+01  0.16368947826E+02 -0.79201525881E+01  0.72461521346E+02  0.69999936236E+02 0.  0.
         12    1    1    2    0    0  0.44732239860E+01 -0.16368947826E+02  0.79201525881E+01  0.18726478654E+02  0.00000000000E+00 0. -1.
         11    1    3    3    0    0 -0.91185467099E+01  0.16143136093E+02 -0.55390106280E+01  0.19350177674E+02  0.51100000000E-03 0.  1.
        -11    1    3    3    0    0 -0.20064734626E+02  0.12736524036E+02 -0.75505687793E+01  0.24936393269E+02  0.51100000000E-03 0. -1.
        -12    1    3    3    0    0  0.24710057350E+02 -0.12510712303E+02  0.51694268192E+01  0.28174950403E+02  0.00000000000E+00 0.  1.
</event>
<event>
 7    1  0.2153242E-013  0.7246151E+02  0.7816164E-02  0.1226708E+00
        -11   -1    0    0    0    0  0.00000000000E+00  0.00000000000E+00  0.45593999997E+02  0.45594000000E+02  0.51100000000E-03 0.  1.
         11   -1    0    0    0    0 -0.00000000000E+00 -0.00000000000E+00 -0.45593999997E+02  0.45594000000E+02  0.51100000000E-03 0. -1.
    9900012    2    1    2    0    0  0.11095212075E+02 -0.87832063354E+01  0.12265119765E+02  0.72461505204E+02  0.69999915207E+02 0.  0.
         12    1    1    2    0    0 -0.11095212075E+02  0.87832063354E+01 -0.12265119765E+02  0.18726494796E+02  0.00000000000E+00 0. -1.
         11    1    3    3    0    0  0.11710406803E+02  0.75039967294E+01 -0.23090784058E+01  0.14098774335E+02  0.51100000000E-03 0. -1.
        -11    1    3    3    0    0 -0.19141301889E+02 -0.56554659166E+01 -0.12747235070E+02  0.23682604057E+02  0.51100000000E-03 0.  1.
         12    1    3    3    0    0  0.18526107161E+02 -0.10631737148E+02  0.27321433241E+02  0.34680126811E+02  0.00000000000E+00 0. -1.
</event>
<event>
 7    1  0.2153242E-013  0.7246150E+02  0.7816164E-02  0.1226708E+00
        -11   -1    0    0    0    0  0.00000000000E+00  0.00000000000E+00  0.45593999997E+02  0.45594000000E+02  0.51100000000E-03 0.  1.
         11   -1    0    0    0    0 -0.00000000000E+00 -0.00000000000E+00 -0.45593999997E+02  0.45594000000E+02  0.51100000000E-03 0. -1.
    9900012    2    1    2    0    0  0.54711308119E+01  0.16299059671E+02  0.74222125572E+01  0.72461498518E+02  0.69999906498E+02 0.  0.
         12    1    1    2    0    0 -0.54711308119E+01 -0.16299059671E+02 -0.74222125572E+01  0.18726501482E+02  0.00000000000E+00 0. -1.
         11    1    3    3    0    0  0.16610096024E+02  0.17058285688E+02 -0.25221302923E+02  0.34684211421E+02  0.51100000000E-03 0. -1.
        -11    1    3    3    0    0  0.37957388166E+01  0.42554957178E+00  0.45666379368E+01  0.59533946542E+01  0.51100000000E-03 0.  1.
        -12    1    3    3    0    0 -0.14934704028E+02 -0.11847755890E+01  0.28076877543E+02  0.31823892442E+02  0.00000000000E+00 0.  1.
</event>
<event>
 7    1  0.2153242E-013  0.7246155E+02  0.7816164E-02  0.1226708E+00
        -11   -1    0    0    0    0  0.00000000000E+00  0.00000000000E+00  0.45593999997E+02  0.45594000000E+02  0.51100000000E-03 0.  1.
         11   -1    0    0    0    0 -0.00000000000E+00 -0.00000000000E+00 -0.45593999997E+02  0.45594000000E+02  0.51100000000E-03 0. -1.
    9900012    2    1    2    0    0 -0.60134748929E+01 -0.17109637145E+02  0.46667325450E+01  0.72461549291E+02  0.69999972639E+02 0.  0.
         12    1    1    2    0    0  0.60134748929E+01  0.17109637145E+02 -0.46667325450E+01  0.18726450709E+02  0.00000000000E+00 0. -1.
         11    1    3    3    0    0 -0.66660460447E+01 -0.30695001651E+01 -0.45780687588E+01  0.86496655979E+01  0.51100000000E-03 0. -1.
        -11    1    3    3    0    0 -0.63662437627E+01 -0.36337736977E+02  0.14858571014E+02  0.39771061352E+02  0.51100000000E-03 0.  1.
         12    1    3    3    0    0  0.70188149146E+01  0.22297599997E+02 -0.56137697103E+01  0.24040822340E+02  0.00000000000E+00 0. -1.
</event>
<event>
 7    1  0.2153242E-013  0.7246159E+02  0.7816164E-02  0.1226708E+00
        -11   -1    0    0    0    0  0.00000000000E+00  0.00000000000E+00  0.45593999997E+02  0.45594000000E+02  0.51100000000E-03 0.  1.
         11   -1    0    0    0    0 -0.00000000000E+00 -0.00000000000E+00 -0.45593999997E+02  0.45594000000E+02  0.51100000000E-03 0. -1.
    9900012    2    1    2    0    0  0.16236907420E+02  0.80981050502E+01  0.46326873774E+01  0.72461594571E+02  0.70000031625E+02 0.  0.
         12    1    1    2    0    0 -0.16236907420E+02 -0.80981050502E+01 -0.46326873774E+01  0.18726405429E+02  0.00000000000E+00 0. -1.
         11    1    3    3    0    0  0.20152588874E+02 -0.13852195421E+02 -0.39254455786E+01  0.24767302630E+02  0.51100000000E-03 0. -1.
        -11    1    3    3    0    0  0.15812790119E+02  0.11624486192E+02 -0.66581622856E+01  0.20724481558E+02  0.51100000000E-03 0.  1.
        -12    1    3    3    0    0 -0.19728471574E+02  0.10325814280E+02  0.15216295242E+02  0.26969810382E+02  0.00000000000E+00 0.  1.
</event>
<event>
 7    1  0.2153242E-013  0.7246155E+02  0.7816164E-02  0.1226708E+00
        -11   -1    0    0    0    0  0.00000000000E+00  0.00000000000E+00  0.45593999997E+02  0.45594000000E+02  0.51100000000E-03 0.  1.
         11   -1    0    0    0    0 -0.00000000000E+00 -0.00000000000E+00 -0.45593999997E+02  0.45594000000E+02  0.51100000000E-03 0. -1.
    9900012    2    1    2    0    0  0.65498571126E+01  0.27358898253E+01  0.17328993748E+02  0.72461554912E+02  0.69999979961E+02 0.  0.
         12    1    1    2    0    0 -0.65498571126E+01 -0.27358898253E+01 -0.17328993748E+02  0.18726445088E+02  0.00000000000E+00 0. -1.
         11    1    3    3    0    0  0.14282638675E+02  0.11676227595E+01 -0.70346935410E+00  0.14347542640E+02  0.51100000000E-03 0. -1.
        -11    1    3    3    0    0 -0.12769821480E+02 -0.21305465114E+01  0.36441671156E+02  0.38673026335E+02  0.51100000000E-03 0.  1.
         12    1    3    3    0    0  0.50370399176E+01  0.36988135772E+01 -0.18409208054E+02  0.19440985936E+02  0.00000000000E+00 0. -1.
</event>
<event>
 7    1  0.3754677E-013  0.7246157E+02  0.7816164E-02  0.1226708E+00
        -11   -1    0    0    0    0  0.00000000000E+00  0.00000000000E+00  0.45593999997E+02  0.45594000000E+02  0.51100000000E-03 0. -1.
         11   -1    0    0    0    0 -0.00000000000E+00 -0.00000000000E+00 -0.45593999997E+02  0.45594000000E+02  0.51100000000E-03 0.  1.
    9900012    2    1    2    0    0 -0.10650449604E+01  0.42884744126E+01 -0.18197635413E+02  0.72461567660E+02  0.69999996568E+02 0.  0.
         12    1    1    2    0    0  0.10650449604E+01 -0.42884744126E+01  0.18197635413E+02  0.18726432340E+02  0.00000000000E+00 0. -1.
         11    1    3    3    0    0 -0.47754379777E+01  0.72110732332E+00 -0.96473574599E+01  0.10788712151E+02  0.51100000000E-03 0. -1.
        -11    1    3    3    0    0 -0.34159231160E+00 -0.43813507998E+01 -0.34217838985E+02  0.34498890202E+02  0.51100000000E-03 0.  1.
         12    1    3    3    0    0  0.40519853290E+01  0.79487178890E+01  0.25667561032E+02  0.27173965307E+02  0.00000000000E+00 0. -1.
</event>
<event>
 7    1  0.2153242E-013  0.7246171E+02  0.7816164E-02  0.1226708E+00
        -11   -1    0    0    0    0  0.00000000000E+00  0.00000000000E+00  0.45593999997E+02  0.45594000000E+02  0.51100000000E-03 0. -1.
         11   -1    0    0    0    0 -0.00000000000E+00 -0.00000000000E+00 -0.45593999997E+02  0.45594000000E+02  0.51100000000E-03 0.  1.
    9900012    2    1    2    0    0  0.51032245774E+01 -0.17923158970E+02 -0.18415385971E+01  0.72461713850E+02  0.70000187008E+02 0.  0.
         12    1    1    2    0    0 -0.51032245774E+01  0.17923158970E+02  0.18415385971E+01  0.18726286150E+02  0.00000000000E+00 0. -1.
         11    1    3    3    0    0 -0.18605571147E+02 -0.17447285545E+02 -0.26795236678E+01  0.25646732695E+02  0.51100000000E-03 0. -1.
        -11    1    3    3    0    0  0.39643543654E+01 -0.17377148282E+02 -0.77597123230E+01  0.19439509344E+02  0.51100000000E-03 0.  1.
         12    1    3    3    0    0  0.19744441359E+02  0.16901274857E+02  0.85976973937E+01  0.27375471811E+02  0.00000000000E+00 0. -1.
</event>
<event>
 7    1  0.2153242E-013  0.7246152E+02  0.7816164E-02  0.1226708E+00
        -11   -1    0    0    0    0  0.00000000000E+00  0.00000000000E+00  0.45593999997E+02  0.45594000000E+02  0.51100000000E-03 0.  1.
         11   -1    0    0    0    0 -0.00000000000E+00 -0.00000000000E+00 -0.45593999997E+02  0.45594000000E+02  0.51100000000E-03 0. -1.
    9900012    2    1    2    0    0 -0.91933758578E+01 -0.14215594350E+01  0.16252444278E+02  0.72461523132E+02  0.69999938562E+02 0.  0.
         12    1    1    2    0    0  0.91933758578E+01  0.14215594350E+01 -0.16252444278E+02  0.18726476868E+02  0.00000000000E+00 0. -1.
         11    1    3    3    0    0  0.64458085296E+01  0.97102693730E+01  0.13002911307E+02  0.17461772006E+02  0.51100000000E-03 0. -1.
        -11    1    3    3    0    0  0.98439368921E+01 -0.22044910592E+02  0.10528072941E+02  0.26338593293E+02  0.51100000000E-03 0.  1.
         12    1    3    3    0    0 -0.25483121279E+02  0.10913081784E+02 -0.72785399703E+01  0.28661157832E+02  0.00000000000E+00 0. -1.
</event>
<event>
 7    1  0.2153242E-013  0.7246153E+02  0.7816164E-02  0.1226708E+00
        -11   -1    0    0    0    0  0.00000000000E+00  0.00000000000E+00  0.45593999997E+02  0.45594000000E+02  0.51100000000E-03 0. -1.
         11   -1    0    0    0    0 -0.00000000000E+00 -0.00000000000E+00 -0.45593999997E+02  0.45594000000E+02  0.51100000000E-03 0.  1.
    9900012    2    1    2    0    0  0.12769330977E+01  0.10798147621E+02  0.15246318763E+02  0.72461527135E+02  0.69999943776E+02 0.  0.
         12    1    1    2    0    0 -0.12769330977E+01 -0.10798147621E+02 -0.15246318763E+02  0.18726472865E+02  0.00000000000E+00 0. -1.
         11    1    3    3    0    0  0.19241044637E+02  0.36680318506E+01  0.24602751108E+02  0.31447855550E+02  0.51100000000E-03 0. -1.
        -11    1    3    3    0    0 -0.83329256121E+01 -0.71409986702E+01  0.10183228661E+02  0.14970960473E+02  0.51100000000E-03 0.  1.
        -12    1    3    3    0    0 -0.96311859273E+01  0.14271114440E+02 -0.19539661007E+02  0.26042711111E+02  0.00000000000E+00 0.  1.
</event>
<event>
 7    1  0.2153242E-013  0.7246156E+02  0.7816164E-02  0.1226708E+00
        -11   -1    0    0    0    0  0.00000000000E+00  0.00000000000E+00  0.45593999997E+02  0.45594000000E+02  0.51100000000E-03 0. -1.
         11   -1    0    0    0    0 -0.00000000000E+00 -0.00000000000E+00 -0.45593999997E+02  0.45594000000E+02  0.51100000000E-03 0.  1.
    9900012    2    1    2    0    0  0.15948193705E+01  0.39694831554E+01 -0.18231269131E+02  0.72461563620E+02  0.69999991306E+02 0.  0.
         12    1    1    2    0    0 -0.15948193705E+01 -0.39694831554E+01  0.18231269131E+02  0.18726436380E+02  0.00000000000E+00 0. -1.
         11    1    3    3    0    0  0.53988062000E+01 -0.17649663767E+02  0.70932451869E+01  0.19773008547E+02  0.51100000000E-03 0. -1.
        -11    1    3    3    0    0  0.12961366255E+02  0.62955739929E+01  0.45950590320E+01  0.15124345766E+02  0.51100000000E-03 0.  1.
         12    1    3    3    0    0 -0.16765353084E+02  0.15323572929E+02 -0.29919573350E+02  0.37564209307E+02  0.00000000000E+00 0. -1.
</event>
<event>
 7    1  0.2153242E-013  0.7246159E+02  0.7816164E-02  0.1226708E+00
        -11   -1    0    0    0    0  0.00000000000E+00  0.00000000000E+00  0.45593999997E+02  0.45594000000E+02  0.51100000000E-03 0. -1.
         11   -1    0    0    0    0 -0.00000000000E+00 -0.00000000000E+00 -0.45593999997E+02  0.45594000000E+02  0.51100000000E-03 0.  1.
    9900012    2    1    2    0    0 -0.14512625659E+02 -0.11602227350E+02  0.23346566711E+01  0.72461585374E+02  0.70000019644E+02 0.  0.
         12    1    1    2    0    0  0.14512625659E+02  0.11602227350E+02 -0.23346566711E+01  0.18726414626E+02  0.00000000000E+00 0. -1.
         11    1    3    3    0    0 -0.63415282118E+01 -0.10111403740E+02  0.42475753213E+01  0.12668755346E+02  0.51100000000E-03 0. -1.
        -11    1    3    3    0    0 -0.10345856150E+02 -0.29646582987E+02  0.90480163821E+00  0.31412979619E+02  0.51100000000E-03 0.  1.
         12    1    3    3    0    0  0.21747587028E+01  0.28155759378E+02 -0.28177202884E+01  0.28379850408E+02  0.00000000000E+00 0. -1.
</event>
<event>
 7    1  0.2153242E-013  0.7246170E+02  0.7816164E-02  0.1226708E+00
        -11   -1    0    0    0    0  0.00000000000E+00  0.00000000000E+00  0.45593999997E+02  0.45594000000E+02  0.51100000000E-03 0.  1.
         11   -1    0    0    0    0 -0.00000000000E+00 -0.00000000000E+00 -0.45593999997E+02  0.45594000000E+02  0.51100000000E-03 0. -1.
    9900012    2    1    2    0    0  0.60645070015E+01 -0.99494826507E+01  0.14659596582E+02  0.72461702391E+02  0.70000172080E+02 0.  0.
         12    1    1    2    0    0 -0.60645070015E+01  0.99494826507E+01 -0.14659596582E+02  0.18726297609E+02  0.00000000000E+00 0. -1.
         11    1    3    3    0    0 -0.16554744650E+00  0.13459414057E+02  0.73555501196E+01  0.15339079195E+02  0.51100000000E-03 0. -1.
        -11    1    3    3    0    0 -0.82188104604E+01 -0.46281000306E+01 -0.19308706252E+02  0.21489399542E+02  0.51100000000E-03 0.  1.
         12    1    3    3    0    0  0.14448864908E+02 -0.18780796677E+02  0.26612752715E+02  0.35633223655E+02  0.00000000000E+00 0. -1.
</event>
<event>
 7    1  0.2153242E-013  0.7246162E+02  0.7816164E-02  0.1226708E+00
        -11   -1    0    0    0    0  0.00000000000E+00  0.00000000000E+00  0.45593999997E+02  0.45594000000E+02  0.51100000000E-03 0. -1.
         11   -1    0    0    0    0 -0.00000000000E+00 -0.00000000000E+00 -0.45593999997E+02  0.45594000000E+02  0.51100000000E-03 0.  1.
    9900012    2    1    2    0    0  0.15992939899E+02 -0.21519352041E+01 -0.95011670499E+01  0.72461624829E+02  0.70000071042E+02 0.  0.
         12    1    1    2    0    0 -0.15992939899E+02  0.21519352041E+01  0.95011670499E+01  0.18726375171E+02  0.00000000000E+00 0. -1.
         11    1    3    3    0    0  0.30763206249E+02 -0.24575030637E+01 -0.54636129845E+01  0.31341111134E+02  0.51100000000E-03 0. -1.
        -11    1    3    3    0    0  0.10055868429E+02  0.62513710318E+01 -0.92991546838E+01  0.15055710137E+02  0.51100000000E-03 0.  1.
         12    1    3    3    0    0 -0.24826134779E+02 -0.59458031722E+01  0.52616006185E+01  0.26064803558E+02  0.00000000000E+00 0. -1.
</event>
<event>
 7    1  0.2153242E-013  0.7246153E+02  0.7816164E-02  0.1226708E+00
        -11   -1    0    0    0    0  0.00000000000E+00  0.00000000000E+00  0.45593999997E+02  0.45594000000E+02  0.51100000000E-03 0.  1.
         11   -1    0    0    0    0 -0.00000000000E+00 -0.00000000000E+00 -0.45593999997E+02  0.45594000000E+02  0.51100000000E-03 0. -1.
    9900012    2    1    2    0    0  0.99299632064E+01 -0.22386603883E+00  0.15875341202E+02  0.72461528267E+02  0.69999945251E+02 0.  0.
         12    1    1    2    0    0 -0.99299632064E+01  0.22386603883E+00 -0.15875341202E+02  0.18726471733E+02  0.00000000000E+00 0. -1.
         11    1    3    3    0    0  0.29373108250E+01 -0.18222808279E+02 -0.57049021285E+01  0.19319535321E+02  0.51100000000E-03 0. -1.
        -11    1    3    3    0    0 -0.16131924835E+02  0.19241206816E+02  0.14148107432E+02  0.28820686716E+02  0.51100000000E-03 0.  1.
         12    1    3    3    0    0  0.23124577216E+02 -0.12422645755E+01  0.74321358983E+01  0.24321306230E+02  0.00000000000E+00 0. -1.
</event>
<event>
 7    1  0.2153242E-013  0.7246155E+02  0.7816164E-02  0.1226708E+00
        -11   -1    0    0    0    0  0.00000000000E+00  0.00000000000E+00  0.45593999997E+02  0.45594000000E+02  0.51100000000E-03 0.  1.
         11   -1    0    0    0    0 -0.00000000000E+00 -0.00000000000E+00 -0.45593999997E+02  0.45594000000E+02  0.51100000000E-03 0. -1.
    9900012    2    1    2    0    0 -0.12776677238E+01 -0.17900884737E+02  0.53484422016E+01  0.72461549637E+02  0.69999973091E+02 0.  0.
         12    1    1    2    0    0  0.12776677238E+01  0.17900884737E+02 -0.53484422016E+01  0.18726450363E+02  0.00000000000E+00 0. -1.
         11    1    3    3    0    0 -0.22883005473E+02 -0.59228143657E+00 -0.54354763539E+01  0.23527157504E+02  0.51100000000E-03 0. -1.
        -11    1    3    3    0    0 -0.94059782257E+01 -0.11991042404E+02 -0.11499215859E+01  0.15283319150E+02  0.51100000000E-03 0.  1.
        -12    1    3    3    0    0  0.31011315975E+02 -0.53175608964E+01  0.11933840141E+02  0.33651072983E+02  0.00000000000E+00 0.  1.
</event>
<event>
 7    1  0.2153242E-013  0.7246157E+02  0.7816164E-02  0.1226708E+00
        -11   -1    0    0    0    0  0.00000000000E+00  0.00000000000E+00  0.45593999997E+02  0.45594000000E+02  0.51100000000E-03 0. -1.
         11   -1    0    0    0    0 -0.00000000000E+00 -0.00000000000E+00 -0.45593999997E+02  0.45594000000E+02  0.51100000000E-03 0.  1.
    9900012    2    1    2    0    0  0.50778075497E+01  0.10177107922E+02 -0.14876876140E+02  0.72461572181E+02  0.70000002458E+02 0.  0.
         12    1    1    2    0    0 -0.50778075497E+01 -0.10177107922E+02  0.14876876140E+02  0.18726427819E+02  0.00000000000E+00 0. -1.
         11    1    3    3    0    0  0.87353635601E+01  0.19634543189E+02  0.70587309416E+01  0.22619627440E+02  0.51100000000E-03 0. -1.
        -11    1    3    3    0    0 -0.21866865318E+02 -0.22207806427E+01 -0.22956460240E+01  0.22098906227E+02  0.51100000000E-03 0.  1.
         12    1    3    3    0    0  0.18209309308E+02 -0.72366546242E+01 -0.19639961057E+02  0.27743038514E+02  0.00000000000E+00 0. -1.
</event>
<event>
 7    1  0.2153242E-013  0.7246165E+02  0.7816164E-02  0.1226708E+00
        -11   -1    0    0    0    0  0.00000000000E+00  0.00000000000E+00  0.45593999997E+02  0.45594000000E+02  0.51100000000E-03 0.  1.
         11   -1    0    0    0    0 -0.00000000000E+00 -0.00000000000E+00 -0.45593999997E+02  0.45594000000E+02  0.51100000000E-03 0. -1.
    9900012    2    1    2    0    0 -0.29399388456E+01  0.10103001717E+02  0.15490711998E+02  0.72461653791E+02  0.70000108770E+02 0.  0.
         12    1    1    2    0    0  0.29399388456E+01 -0.10103001717E+02 -0.15490711998E+02  0.18726346209E+02  0.00000000000E+00 0. -1.
         11    1    3    3    0    0  0.11241601832E+02  0.16953035975E+02  0.24321374528E+02  0.31706597101E+02  0.51100000000E-03 0. -1.
        -11    1    3    3    0    0  0.15182517214E+01  0.41725579445E+01  0.11785796667E+02  0.12594456377E+02  0.51100000000E-03 0.  1.
         12    1    3    3    0    0 -0.15699792399E+02 -0.11022592203E+02 -0.20616459196E+02  0.28160600314E+02  0.00000000000E+00 0. -1.
</event>
<event>
 7    1  0.2153242E-013  0.7246158E+02  0.7816164E-02  0.1226708E+00
        -11   -1    0    0    0    0  0.00000000000E+00  0.00000000000E+00  0.45593999997E+02  0.45594000000E+02  0.51100000000E-03 0. -1.
         11   -1    0    0    0    0 -0.00000000000E+00 -0.00000000000E+00 -0.45593999997E+02  0.45594000000E+02  0.51100000000E-03 0.  1.
    9900012    2    1    2    0    0 -0.68459179051E+01 -0.14382848076E+02 -0.98461141728E+01  0.72461578157E+02  0.70000010243E+02 0.  0.
         12    1    1    2    0    0  0.68459179051E+01  0.14382848076E+02  0.98461141728E+01  0.18726421843E+02  0.00000000000E+00 0. -1.
         11    1    3    3    0    0  0.65014779527E+00  0.10622989104E+01 -0.50293106747E+01  0.51812293189E+01  0.51100000000E-03 0. -1.
        -11    1    3    3    0    0 -0.18652050067E+02 -0.33505676315E+02 -0.17926115626E+02  0.42330543803E+02  0.51100000000E-03 0.  1.
         12    1    3    3    0    0  0.11155984367E+02  0.18060529329E+02  0.13109312128E+02  0.24949805035E+02  0.00000000000E+00 0. -1.
</event>
<event>
 7    1  0.2153242E-013  0.7246158E+02  0.7816164E-02  0.1226708E+00
        -11   -1    0    0    0    0  0.00000000000E+00  0.00000000000E+00  0.45593999997E+02  0.45594000000E+02  0.51100000000E-03 0. -1.
         11   -1    0    0    0    0 -0.00000000000E+00 -0.00000000000E+00 -0.45593999997E+02  0.45594000000E+02  0.51100000000E-03 0.  1.
    9900012    2    1    2    0    0 -0.48674170264E+01  0.97955039706E+01 -0.15199840792E+02  0.72461579983E+02  0.70000012622E+02 0.  0.
         12    1    1    2    0    0  0.48674170264E+01 -0.97955039706E+01  0.15199840792E+02  0.18726420017E+02  0.00000000000E+00 0. -1.
         11    1    3    3    0    0 -0.10478129172E+02 -0.17174607010E+02 -0.10133567662E+02  0.22526595631E+02  0.51100000000E-03 0. -1.
        -11    1    3    3    0    0 -0.12089869835E+02  0.18203779637E+02 -0.16253461499E+02  0.27234492039E+02  0.51100000000E-03 0.  1.
         12    1    3    3    0    0  0.17700581980E+02  0.87663313438E+01  0.11187188369E+02  0.22700492313E+02  0.00000000000E+00 0. -1.
</event>
<event>
 7    1  0.2153242E-013  0.7246165E+02  0.7816164E-02  0.1226708E+00
        -11   -1    0    0    0    0  0.00000000000E+00  0.00000000000E+00  0.45593999997E+02  0.45594000000E+02  0.51100000000E-03 0.  1.
         11   -1    0    0    0    0 -0.00000000000E+00 -0.00000000000E+00 -0.45593999997E+02  0.45594000000E+02  0.51100000000E-03 0. -1.
    9900012    2    1    2    0    0  0.12851813045E+02  0.26517173296E+01  0.13359468256E+02  0.72461652374E+02  0.70000106924E+02 0.  0.
         12    1    1    2    0    0 -0.12851813045E+02 -0.26517173296E+01 -0.13359468256E+02  0.18726347626E+02  0.00000000000E+00 0. -1.
         11    1    3    3    0    0 -0.36365545840E+01  0.17240000673E+02 -0.84149421440E+01  0.19525711357E+02  0.51100000000E-03 0. -1.
        -11    1    3    3    0    0 -0.66230878923E+01  0.54055229314E+01 -0.69333526715E+01  0.11007104566E+02  0.51100000000E-03 0.  1.
        -12    1    3    3    0    0  0.23111455521E+02 -0.19993806275E+02  0.28707763071E+02  0.41928836452E+02  0.00000000000E+00 0.  1.
</event>
<event>
 7    1  0.2153242E-013  0.7246145E+02  0.7816164E-02  0.1226708E+00
        -11   -1    0    0    0    0  0.00000000000E+00  0.00000000000E+00  0.45593999997E+02  0.45594000000E+02  0.51100000000E-03 0.  1.
         11   -1    0    0    0    0 -0.00000000000E+00 -0.00000000000E+00 -0.45593999997E+02  0.45594000000E+02  0.51100000000E-03 0. -1.
    9900012    2    1    2    0    0  0.13245898470E+02 -0.58936494118E+01  0.11853048545E+02  0.72461449611E+02  0.69999842787E+02 0.  0.
         12    1    1    2    0    0 -0.13245898470E+02  0.58936494118E+01 -0.11853048545E+02  0.18726550389E+02  0.00000000000E+00 0. -1.
         11    1    3    3    0    0  0.77329902656E+01  0.52655601503E+01 -0.63627045885E+01  0.11314118264E+02  0.51100000000E-03 0. -1.
        -11    1    3    3    0    0  0.24535485147E+02  0.11546144425E+02  0.15904388871E+02  0.31436492618E+02  0.51100000000E-03 0.  1.
        -12    1    3    3    0    0 -0.19022576943E+02 -0.22705353987E+02  0.23113642634E+01  0.29710838729E+02  0.00000000000E+00 0.  1.
</event>
<event>
 7    1  0.5130255E-013  0.7246154E+02  0.7816164E-02  0.1226708E+00
        -11   -1    0    0    0    0  0.00000000000E+00  0.00000000000E+00  0.45593999997E+02  0.45594000000E+02  0.51100000000E-03 0. -1.
         11   -1    0    0    0    0 -0.00000000000E+00 -0.00000000000E+00 -0.45593999997E+02  0.45594000000E+02  0.51100000000E-03 0.  1.
    9900012    2    1    2    0    0  0.12100273149E+01  0.11497001521E+02 -0.14732104789E+02  0.72461544874E+02  0.69999966886E+02 0.  0.
         12    1    1    2    0    0 -0.12100273149E+01 -0.11497001521E+02  0.14732104789E+02  0.18726455126E+02  0.00000000000E+00 0. -1.
         11    1    3    3    0    0  0.11883454848E+02 -0.19346059242E+01 -0.79070703695E+01  0.14404199433E+02  0.51100000000E-03 0. -1.
        -11    1    3    3    0    0 -0.34970384736E+01  0.60234842152E+01 -0.31000670809E+02  0.31773467406E+02  0.51100000000E-03 0.  1.
         12    1    3    3    0    0 -0.71763890597E+01  0.74081232297E+01  0.24175636389E+02  0.26283878035E+02  0.00000000000E+00 0. -1.
</event>
<event>
 7    1  0.2153242E-013  0.7246157E+02  0.7816164E-02  0.1226708E+00
        -11   -1    0    0    0    0  0.00000000000E+00  0.00000000000E+00  0.45593999997E+02  0.45594000000E+02  0.51100000000E-03 0.  1.
         11   -1    0    0    0    0 -0.00000000000E+00 -0.00000000000E+00 -0.45593999997E+02  0.45594000000E+02  0.51100000000E-03 0. -1.
    9900012    2    1    2    0    0 -0.15596033148E+02  0.10179678243E+02  0.19537337777E+01  0.72461570154E+02  0.69999999817E+02 0.  0.
         12    1    1    2    0    0  0.15596033148E+02 -0.10179678243E+02 -0.19537337777E+01  0.18726429846E+02  0.00000000000E+00 0. -1.
         11    1    3    3    0    0 -0.40675928860E+01 -0.24199365861E+01  0.23274325917E+01  0.52743101631E+01  0.51100000000E-03 0. -1.
        -11    1    3    3    0    0 -0.15374989577E+02 -0.22068460143E+01  0.29660525679E+02  0.33481446468E+02  0.51100000000E-03 0.  1.
         12    1    3    3    0    0  0.38465493146E+01  0.14806460844E+02 -0.30034224493E+02  0.33705813523E+02  0.00000000000E+00 0. -1.
</event>
<event>
 7    1  0.2153242E-013  0.7246147E+02  0.7816164E-02  0.1226708E+00
        -11   -1    0    0    0    0  0.00000000000E+00  0.00000000000E+00  0.45593999997E+02  0.45594000000E+02  0.51100000000E-03 0. -1.
         11   -1    0    0    0    0 -0.00000000000E+00 -0.00000000000E+00 -0.45593999997E+02  0.45594000000E+02  0.51100000000E-03 0.  1.
    9900012    2    1    2    0    0 -0.36598826138E+01 -0.65793284278E+00 -0.18353617923E+02  0.72461470496E+02  0.69999869994E+02 0.  0.
         12    1    1    2    0    0  0.36598826138E+01  0.65793284278E+00  0.18353617923E+02  0.18726529504E+02  0.00000000000E+00 0. -1.
         11    1    3    3    0    0  0.15674875230E+01  0.43790135761E+01  0.19401336204E+01  0.50395332880E+01  0.51100000000E-03 0. -1.
        -11    1    3    3    0    0 -0.47314572824E+01 -0.29160434714E+02  0.76364117872E+01  0.30512823960E+02  0.51100000000E-03 0.  1.
         12    1    3    3    0    0 -0.49591285439E+00  0.24123488296E+02 -0.27930163331E+02  0.36909113249E+02  0.00000000000E+00 0. -1.
</event>
<event>
 7    1  0.2153242E-013  0.7246155E+02  0.7816164E-02  0.1226708E+00
        -11   -1    0    0    0    0  0.00000000000E+00  0.00000000000E+00  0.45593999997E+02  0.45594000000E+02  0.51100000000E-03 0. -1.
         11   -1    0    0    0    0 -0.00000000000E+00 -0.00000000000E+00 -0.45593999997E+02  0.45594000000E+02  0.51100000000E-03 0.  1.
    9900012    2    1    2    0    0  0.11644803224E+02 -0.91285964221E+01 -0.11478114302E+02  0.72461552855E+02  0.69999977282E+02 0.  0.
         12    1    1    2    0    0 -0.11644803224E+02  0.91285964221E+01  0.11478114302E+02  0.18726447145E+02  0.00000000000E+00 0. -1.
         11    1    3    3    0    0  0.13146022771E+02 -0.21359903762E+01  0.21557251317E+02  0.25339602487E+02  0.51100000000E-03 0. -1.
        -11    1    3    3    0    0 -0.34804285322E+00 -0.43462293165E+01  0.63105259542E+01  0.76703051556E+01  0.51100000000E-03 0.  1.
        -12    1    3    3    0    0 -0.11531766943E+01 -0.26463767294E+01 -0.39345891573E+02  0.39451645212E+02  0.00000000000E+00 0.  1.
</event>
<event>
 7    1  0.2153242E-013  0.7246148E+02  0.7816164E-02  0.1226708E+00
        -11   -1    0    0    0    0  0.00000000000E+00  0.00000000000E+00  0.45593999997E+02  0.45594000000E+02  0.51100000000E-03 0.  1.
         11   -1    0    0    0    0 -0.00000000000E+00 -0.00000000000E+00 -0.45593999997E+02  0.45594000000E+02  0.51100000000E-03 0. -1.
    9900012    2    1    2    0    0  0.45131533969E+01 -0.10719015443E+02  0.14677080703E+02  0.72461480205E+02  0.69999882642E+02 0.  0.
         12    1    1    2    0    0 -0.45131533969E+01  0.10719015443E+02 -0.14677080703E+02  0.18726519795E+02  0.00000000000E+00 0. -1.
         11    1    3    3    0    0 -0.10110670111E+02  0.11992674810E+02  0.77353008225E+01  0.17489561980E+02  0.51100000000E-03 0. -1.
        -11    1    3    3    0    0  0.60532200180E+01  0.47530011083E+00 -0.18516423791E+02  0.19486542357E+02  0.51100000000E-03 0.  1.
        -12    1    3    3    0    0  0.85706034898E+01 -0.23186990364E+02  0.25458203671E+02  0.35485375868E+02  0.00000000000E+00 0.  1.
</event>
<event>
 7    1  0.2153242E-013  0.7246150E+02  0.7816164E-02  0.1226708E+00
        -11   -1    0    0    0    0  0.00000000000E+00  0.00000000000E+00  0.45593999997E+02  0.45594000000E+02  0.51100000000E-03 0.  1.
         11   -1    0    0    0    0 -0.00000000000E+00 -0.00000000000E+00 -0.45593999997E+02  0.45594000000E+02  0.51100000000E-03 0. -1.
    9900012    2    1    2    0    0 -0.72560047676E+01 -0.13481166619E+02  0.10783793848E+02  0.72461503575E+02  0.69999913085E+02 0.  0.
         12    1    1    2    0    0  0.72560047676E+01  0.13481166619E+02 -0.10783793848E+02  0.18726496425E+02  0.00000000000E+00 0. -1.
         11    1    3    3    0    0  0.94852036631E+01 -0.84810095939E+01  0.17665291624E+02  0.21770602672E+02  0.51100000000E-03 0. -1.
        -11    1    3    3    0    0 -0.36402952933E+01  0.10719563095E+02  0.16251569371E+02  0.19805915532E+02  0.51100000000E-03 0.  1.
         12    1    3    3    0    0 -0.13100913137E+02 -0.15719720121E+02 -0.23133067147E+02  0.30884985371E+02  0.00000000000E+00 0. -1.
</event>
<event>
 7    1  0.2153242E-013  0.7246148E+02  0.7816164E-02  0.1226708E+00
        -11   -1    0    0    0    0  0.00000000000E+00  0.00000000000E+00  0.45593999997E+02  0.45594000000E+02  0.51100000000E-03 0. -1.
         11   -1    0    0    0    0 -0.00000000000E+00 -0.00000000000E+00 -0.45593999997E+02  0.45594000000E+02  0.51100000000E-03 0.  1.
    9900012    2    1    2    0    0  0.82834934646E+01  0.85749284873E+01 -0.14440800429E+02  0.72461484585E+02  0.69999888348E+02 0.  0.
         12    1    1    2    0    0 -0.82834934646E+01 -0.85749284873E+01  0.14440800429E+02  0.18726515415E+02  0.00000000000E+00 0. -1.
         11    1    3    3    0    0  0.11852704271E+02  0.14453265598E+02  0.17845029570E+02  0.25842379256E+02  0.51100000000E-03 0. -1.
        -11    1    3    3    0    0  0.28721006957E+01  0.81987103944E+01  0.20753226437E+01  0.89316727926E+01  0.51100000000E-03 0.  1.
        -12    1    3    3    0    0 -0.64413115024E+01 -0.14077047505E+02 -0.34361152642E+02  0.37687432537E+02  0.00000000000E+00 0.  1.
</event>
<event>
 7    1  0.2153242E-013  0.7246158E+02  0.7816164E-02  0.1226708E+00
        -11   -1    0    0    0    0  0.00000000000E+00  0.00000000000E+00  0.45593999997E+02  0.45594000000E+02  0.51100000000E-03 0.  1.
         11   -1    0    0    0    0 -0.00000000000E+00 -0.00000000000E+00 -0.45593999997E+02  0.45594000000E+02  0.51100000000E-03 0. -1.
    9900012    2    1    2    0    0  0.52978410489E+01 -0.12005830431E+02  0.13359326236E+02  0.72461583322E+02  0.70000016971E+02 0.  0.
         12    1    1    2    0    0 -0.52978410489E+01  0.12005830431E+02 -0.13359326236E+02  0.18726416678E+02  0.00000000000E+00 0. -1.
         11    1    3    3    0    0 -0.94090177718E+01 -0.17897813289E+02 -0.46336045115E+01  0.20744436049E+02  0.51100000000E-03 0. -1.
        -11    1    3    3    0    0 -0.59011051287E+01 -0.88203778268E+01  0.23517169981E+02  0.25800763378E+02  0.51100000000E-03 0.  1.
         12    1    3    3    0    0  0.20607963949E+02  0.14712360685E+02 -0.55242392327E+01  0.25916383894E+02  0.00000000000E+00 0. -1.
</event>
<event>
 7    1  0.2153242E-013  0.7246160E+02  0.7816164E-02  0.1226708E+00
        -11   -1    0    0    0    0  0.00000000000E+00  0.00000000000E+00  0.45593999997E+02  0.45594000000E+02  0.51100000000E-03 0.  1.
         11   -1    0    0    0    0 -0.00000000000E+00 -0.00000000000E+00 -0.45593999997E+02  0.45594000000E+02  0.51100000000E-03 0. -1.
    9900012    2    1    2    0    0 -0.16509762929E+02  0.84137968915E+01 -0.27043705116E+01  0.72461604993E+02  0.70000045201E+02 0.  0.
         12    1    1    2    0    0  0.16509762929E+02 -0.84137968915E+01  0.27043705116E+01  0.18726395007E+02  0.00000000000E+00 0. -1.
         11    1    3    3    0    0  0.19242426816E+01 -0.71875828220E+01 -0.10509701561E+00  0.74414449110E+01  0.51100000000E-03 0. -1.
        -11    1    3    3    0    0 -0.18059646201E+02 -0.15697929268E+02  0.15835119527E+02  0.28693672036E+02  0.51100000000E-03 0.  1.
         12    1    3    3    0    0 -0.37435940895E+00  0.31299308981E+02 -0.18434393023E+02  0.36326488046E+02  0.00000000000E+00 0. -1.
</event>
<event>
 7    1  0.2153242E-013  0.7246158E+02  0.7816164E-02  0.1226708E+00
        -11   -1    0    0    0    0  0.00000000000E+00  0.00000000000E+00  0.45593999997E+02  0.45594000000E+02  0.51100000000E-03 0.  1.
         11   -1    0    0    0    0 -0.00000000000E+00 -0.00000000000E+00 -0.45593999997E+02  0.45594000000E+02  0.51100000000E-03 0. -1.
    9900012    2    1    2    0    0  0.56486809131E+01 -0.15751581310E+02 -0.84058878300E+01  0.72461578557E+02  0.70000010764E+02 0.  0.
         12    1    1    2    0    0 -0.56486809131E+01  0.15751581310E+02  0.84058878300E+01  0.18726421443E+02  0.00000000000E+00 0. -1.
         11    1    3    3    0    0  0.27553021869E+01  0.87910198423E+01 -0.24853608906E+02  0.26506142607E+02  0.51100000000E-03 0. -1.
        -11    1    3    3    0    0 -0.62570334473E+01  0.10086554187E+01  0.17685586001E+02  0.18786905167E+02  0.51100000000E-03 0.  1.
        -12    1    3    3    0    0  0.91504121734E+01 -0.25551256571E+02 -0.12378649247E+01  0.27168530783E+02  0.00000000000E+00 0.  1.
</event>
<event>
 7    1  0.2153242E-013  0.7246157E+02  0.7816164E-02  0.1226708E+00
        -11   -1    0    0    0    0  0.00000000000E+00  0.00000000000E+00  0.45593999997E+02  0.45594000000E+02  0.51100000000E-03 0.  1.
         11   -1    0    0    0    0 -0.00000000000E+00 -0.00000000000E+00 -0.45593999997E+02  0.45594000000E+02  0.51100000000E-03 0. -1.
    9900012    2    1    2    0    0 -0.13936007936E+02 -0.94027733837E+01 -0.82495239869E+01  0.72461571870E+02  0.70000002053E+02 0.  0.
         12    1    1    2    0    0  0.13936007936E+02  0.94027733837E+01  0.82495239869E+01  0.18726428130E+02  0.00000000000E+00 0. -1.
         11    1    3    3    0    0 -0.24825058056E+02 -0.10362959107E+02 -0.17216678239E+02  0.31938823378E+02  0.51100000000E-03 0. -1.
        -11    1    3    3    0    0 -0.49284466322E+01  0.16536283027E+01 -0.12679553373E+02  0.13703836936E+02  0.51100000000E-03 0.  1.
        -12    1    3    3    0    0  0.15817496752E+02 -0.69344257936E+00  0.21646707624E+02  0.26818911557E+02  0.00000000000E+00 0.  1.
</event>
<event>
 7    1  0.2153242E-013  0.7246157E+02  0.7816164E-02  0.1226708E+00
        -11   -1    0    0    0    0  0.00000000000E+00  0.00000000000E+00  0.45593999997E+02  0.45594000000E+02  0.51100000000E-03 0.  1.
         11   -1    0    0    0    0 -0.00000000000E+00 -0.00000000000E+00 -0.45593999997E+02  0.45594000000E+02  0.51100000000E-03 0. -1.
    9900012    2    1    2    0    0  0.80359875168E+01  0.13878319629E+02  0.96692386447E+01  0.72461574098E+02  0.70000004955E+02 0.  0.
         12    1    1    2    0    0 -0.80359875168E+01 -0.13878319629E+02 -0.96692386447E+01  0.18726425902E+02  0.00000000000E+00 0. -1.
         11    1    3    3    0    0  0.32790364639E+01  0.20865795134E+01 -0.12681885935E+02  0.13264091576E+02  0.51100000000E-03 0. -1.
        -11    1    3    3    0    0  0.14084689302E+02  0.88595731502E+01 -0.13881029303E+02  0.21669182816E+02  0.51100000000E-03 0.  1.
        -12    1    3    3    0    0 -0.93277382488E+01  0.29321669649E+01  0.36232153882E+02  0.37528299707E+02  0.00000000000E+00 0.  1.
</event>
<event>
 7    1  0.2153242E-013  0.7246179E+02  0.7816164E-02  0.1226707E+00
        -11   -1    0    0    0    0  0.00000000000E+00  0.00000000000E+00  0.45593999997E+02  0.45594000000E+02  0.51100000000E-03 0.  1.
         11   -1    0    0    0    0 -0.00000000000E+00 -0.00000000000E+00 -0.45593999997E+02  0.45594000000E+02  0.51100000000E-03 0. -1.
    9900012    2    1    2    0    0  0.59523598623E+01 -0.14710392208E+02  0.99420770082E+01  0.72461785164E+02  0.70000279907E+02 0.  0.
         12    1    1    2    0    0 -0.59523598623E+01  0.14710392208E+02 -0.99420770082E+01  0.18726214836E+02  0.00000000000E+00 0. -1.
         11    1    3    3    0    0 -0.57943369567E+01  0.19932605729E+01  0.10265120299E+02  0.11954920472E+02  0.51100000000E-03 0.  1.
        -11    1    3    3    0    0  0.21911300201E+02  0.23364629452E+01  0.20803736039E+02  0.30304448007E+02  0.51100000000E-03 0. -1.
         12    1    3    3    0    0 -0.10164603382E+02 -0.19040115727E+02 -0.21126779329E+02  0.30202416685E+02  0.00000000000E+00 0. -1.
</event>
<event>
 7    1  0.2153242E-013  0.7246199E+02  0.7816164E-02  0.1226707E+00
        -11   -1    0    0    0    0  0.00000000000E+00  0.00000000000E+00  0.45593999997E+02  0.45594000000E+02  0.51100000000E-03 0.  1.
         11   -1    0    0    0    0 -0.00000000000E+00 -0.00000000000E+00 -0.45593999997E+02  0.45594000000E+02  0.51100000000E-03 0. -1.
    9900012    2    1    2    0    0 -0.10733630097E+02 -0.22988604788E+01  0.15171285761E+02  0.72461989047E+02  0.70000545501E+02 0.  0.
         12    1    1    2    0    0  0.10733630097E+02  0.22988604788E+01 -0.15171285761E+02  0.18726010953E+02  0.00000000000E+00 0. -1.
         11    1    3    3    0    0  0.15566513495E+02 -0.50941099976E+01  0.18041504430E+02  0.24367235818E+02  0.51100000000E-03 0. -1.
        -11    1    3    3    0    0  0.53147470015E+01 -0.90344973742E+01  0.73775483540E+01  0.12817835171E+02  0.51100000000E-03 0.  1.
        -12    1    3    3    0    0 -0.31614890593E+02  0.11829746893E+02 -0.10247767023E+02  0.35276918058E+02  0.00000000000E+00 0.  1.
</event>
<event>
 7    1  0.2153242E-013  0.7246159E+02  0.7816164E-02  0.1226708E+00
        -11   -1    0    0    0    0  0.00000000000E+00  0.00000000000E+00  0.45593999997E+02  0.45594000000E+02  0.51100000000E-03 0.  1.
         11   -1    0    0    0    0 -0.00000000000E+00 -0.00000000000E+00 -0.45593999997E+02  0.45594000000E+02  0.51100000000E-03 0. -1.
    9900012    2    1    2    0    0 -0.15362198859E+02  0.60055337947E+01  0.88664989027E+01  0.72461591035E+02  0.70000027019E+02 0.  0.
         12    1    1    2    0    0  0.15362198859E+02 -0.60055337947E+01 -0.88664989027E+01  0.18726408965E+02  0.00000000000E+00 0. -1.
         11    1    3    3    0    0  0.19740849513E+02  0.45238858236E+00  0.17381261210E+02  0.26306159667E+02  0.51100000000E-03 0. -1.
        -11    1    3    3    0    0  0.32988263589E+01  0.49665767315E+01 -0.46381798999E+01  0.75539296278E+01  0.51100000000E-03 0.  1.
        -12    1    3    3    0    0 -0.38401874731E+02  0.58656848080E+00 -0.38765824073E+01  0.38601501740E+02  0.00000000000E+00 0.  1.
</event>
<event>
 7    1  0.2153242E-013  0.7246156E+02  0.7816164E-02  0.1226708E+00
        -11   -1    0    0    0    0  0.00000000000E+00  0.00000000000E+00  0.45593999997E+02  0.45594000000E+02  0.51100000000E-03 0.  1.
         11   -1    0    0    0    0 -0.00000000000E+00 -0.00000000000E+00 -0.45593999997E+02  0.45594000000E+02  0.51100000000E-03 0. -1.
    9900012    2    1    2    0    0  0.44984289801E+01 -0.11435818301E+02  0.14130310708E+02  0.72461561892E+02  0.69999989054E+02 0.  0.
         12    1    1    2    0    0 -0.44984289801E+01  0.11435818301E+02 -0.14130310708E+02  0.18726438108E+02  0.00000000000E+00 0. -1.
         11    1    3    3    0    0 -0.15234992643E+01 -0.13789450289E+02 -0.33162461180E+01  0.14264202672E+02  0.51100000000E-03 0. -1.
        -11    1    3    3    0    0 -0.15764282013E+02 -0.17053117276E+02  0.17403858742E+02  0.29020952699E+02  0.51100000000E-03 0.  1.
         12    1    3    3    0    0  0.21786210257E+02  0.19406749264E+02  0.42698084308E-01  0.29176406521E+02  0.00000000000E+00 0. -1.
</event>
<event>
 7    1  0.2153242E-013  0.7246224E+02  0.7816164E-02  0.1226706E+00
        -11   -1    0    0    0    0  0.00000000000E+00  0.00000000000E+00  0.45593999997E+02  0.45594000000E+02  0.51100000000E-03 0.  1.
         11   -1    0    0    0    0 -0.00000000000E+00 -0.00000000000E+00 -0.45593999997E+02  0.45594000000E+02  0.51100000000E-03 0. -1.
    9900012    2    1    2    0    0  0.12139213015E+02 -0.23462838925E+01  0.14063734903E+02  0.72462237528E+02  0.70000869191E+02 0.  0.
         12    1    1    2    0    0 -0.12139213015E+02  0.23462838925E+01 -0.14063734903E+02  0.18725762472E+02  0.00000000000E+00 0. -1.
         11    1    3    3    0    0  0.12493318772E+02 -0.92528275209E+01  0.16688916254E+02  0.22808282642E+02  0.51100000000E-03 0. -1.
        -11    1    3    3    0    0 -0.10629847237E+02  0.40064266429E+01  0.20917586733E+02  0.23803162431E+02  0.51100000000E-03 0.  1.
         12    1    3    3    0    0  0.10275741480E+02  0.29001169855E+01 -0.23542768084E+02  0.25850792455E+02  0.00000000000E+00 0. -1.
</event>
<event>
 7    1  0.2153242E-013  0.7246156E+02  0.7816164E-02  0.1226708E+00
        -11   -1    0    0    0    0  0.00000000000E+00  0.00000000000E+00  0.45593999997E+02  0.45594000000E+02  0.51100000000E-03 0.  1.
         11   -1    0    0    0    0 -0.00000000000E+00 -0.00000000000E+00 -0.45593999997E+02  0.45594000000E+02  0.51100000000E-03 0. -1.
    9900012    2    1    2    0    0 -0.48856237859E+01  0.15399802749E+02  0.94687099240E+01  0.72461555807E+02  0.69999981127E+02 0.  0.
         12    1    1    2    0    0  0.48856237859E+01 -0.15399802749E+02 -0.94687099240E+01  0.18726444193E+02  0.00000000000E+00 0. -1.
         11    1    3    3    0    0 -0.26897716897E+02  0.29557996798E+01  0.17654760264E+02  0.32309665524E+02  0.51100000000E-03 0. -1.
        -11    1    3    3    0    0  0.23453132987E+01  0.35382871980E+01  0.10672601527E+02  0.11485834510E+02  0.51100000000E-03 0.  1.
         12    1    3    3    0    0  0.19666779812E+02  0.89057158714E+01 -0.18858651868E+02  0.28666055774E+02  0.00000000000E+00 0. -1.
</event>
<event>
 7    1  0.2153242E-013  0.7246152E+02  0.7816164E-02  0.1226708E+00
        -11   -1    0    0    0    0  0.00000000000E+00  0.00000000000E+00  0.45593999997E+02  0.45594000000E+02  0.51100000000E-03 0.  1.
         11   -1    0    0    0    0 -0.00000000000E+00 -0.00000000000E+00 -0.45593999997E+02  0.45594000000E+02  0.51100000000E-03 0. -1.
    9900012    2    1    2    0    0 -0.11939140344E+02  0.25615283015E-01  0.14426971113E+02  0.72461515445E+02  0.69999928549E+02 0.  0.
         12    1    1    2    0    0  0.11939140344E+02 -0.25615283015E-01 -0.14426971113E+02  0.18726484555E+02  0.00000000000E+00 0. -1.
         11    1    3    3    0    0 -0.41459810144E+01  0.14088856453E+02 -0.21405663955E+02  0.25959342910E+02  0.51100000000E-03 0. -1.
        -11    1    3    3    0    0 -0.13945476108E+02 -0.10711977783E+02  0.11096704398E+02  0.20793259019E+02  0.51100000000E-03 0.  1.
        -12    1    3    3    0    0  0.61523167786E+01 -0.33512633872E+01  0.24735930670E+02  0.25708913515E+02  0.00000000000E+00 0.  1.
</event>
<event>
 7    1  0.2153242E-013  0.7246169E+02  0.7816164E-02  0.1226708E+00
        -11   -1    0    0    0    0  0.00000000000E+00  0.00000000000E+00  0.45593999997E+02  0.45594000000E+02  0.51100000000E-03 0.  1.
         11   -1    0    0    0    0 -0.00000000000E+00 -0.00000000000E+00 -0.45593999997E+02  0.45594000000E+02  0.51100000000E-03 0. -1.
    9900012    2    1    2    0    0  0.91599303582E+01  0.74489203626E+01  0.14535613183E+02  0.72461687247E+02  0.70000152352E+02 0.  0.
         12    1    1    2    0    0 -0.91599303582E+01 -0.74489203626E+01 -0.14535613183E+02  0.18726312753E+02  0.00000000000E+00 0. -1.
         11    1    3    3    0    0  0.19779217058E+02 -0.10585213803E+02  0.34983129223E+01  0.22704677321E+02  0.51100000000E-03 0. -1.
        -11    1    3    3    0    0  0.74002382872E+01  0.24523807064E+02 -0.33067250798E+01  0.25828570820E+02  0.51100000000E-03 0.  1.
         12    1    3    3    0    0 -0.18019524987E+02 -0.64896728976E+01  0.14344025340E+02  0.23928439106E+02  0.00000000000E+00 0. -1.
</event>
<event>
 7    1  0.2153242E-013  0.7246164E+02  0.7816164E-02  0.1226708E+00
        -11   -1    0    0    0    0  0.00000000000E+00  0.00000000000E+00  0.45593999997E+02  0.45594000000E+02  0.51100000000E-03 0.  1.
         11   -1    0    0    0    0 -0.00000000000E+00 -0.00000000000E+00 -0.45593999997E+02  0.45594000000E+02  0.51100000000E-03 0. -1.
    9900012    2    1    2    0    0 -0.49181566365E+00  0.18042824145E+02  0.49891213806E+01  0.72461635753E+02  0.70000085272E+02 0.  0.
         12    1    1    2    0    0  0.49181566365E+00 -0.18042824145E+02 -0.49891213806E+01  0.18726364247E+02  0.00000000000E+00 0. -1.
         11    1    3    3    0    0 -0.85967915423E+01  0.16736348179E+02 -0.19051312385E+02  0.26776158781E+02  0.51100000000E-03 0. -1.
        -11    1    3    3    0    0 -0.13789135975E+02 -0.66178862599E+01  0.12194659112E+02  0.19561349662E+02  0.51100000000E-03 0.  1.
        -12    1    3    3    0    0  0.21894111854E+02  0.79243622255E+01  0.11845774654E+02  0.26124127310E+02  0.00000000000E+00 0.  1.
</event>
<event>
 7    1  0.2153242E-013  0.7246163E+02  0.7816164E-02  0.1226708E+00
        -11   -1    0    0    0    0  0.00000000000E+00  0.00000000000E+00  0.45593999997E+02  0.45594000000E+02  0.51100000000E-03 0.  1.
         11   -1    0    0    0    0 -0.00000000000E+00 -0.00000000000E+00 -0.45593999997E+02  0.45594000000E+02  0.51100000000E-03 0. -1.
    9900012    2    1    2    0    0  0.56601825536E+00  0.49488251926E+01  0.18051754562E+02  0.72461625813E+02  0.70000072323E+02 0.  0.
         12    1    1    2    0    0 -0.56601825536E+00 -0.49488251926E+01 -0.18051754562E+02  0.18726374187E+02  0.00000000000E+00 0. -1.
         11    1    3    3    0    0  0.29309896440E+01  0.21083607306E+02 -0.66977423747E+01  0.22315217913E+02  0.51100000000E-03 0. -1.
        -11    1    3    3    0    0  0.11574006497E+02  0.88585456486E+01  0.51391781281E+01  0.15454533623E+02  0.51100000000E-03 0.  1.
        -12    1    3    3    0    0 -0.13938977886E+02 -0.24993327762E+02  0.19610318808E+02  0.34691874277E+02  0.00000000000E+00 0.  1.
</event>
<event>
 7    1  0.2153242E-013  0.7246164E+02  0.7816164E-02  0.1226708E+00
        -11   -1    0    0    0    0  0.00000000000E+00  0.00000000000E+00  0.45593999997E+02  0.45594000000E+02  0.51100000000E-03 0.  1.
         11   -1    0    0    0    0 -0.00000000000E+00 -0.00000000000E+00 -0.45593999997E+02  0.45594000000E+02  0.51100000000E-03 0. -1.
    9900012    2    1    2    0    0  0.18106459380E+02 -0.46282640250E+01 -0.11881693805E+01  0.72461643023E+02  0.70000094742E+02 0.  0.
         12    1    1    2    0    0 -0.18106459380E+02  0.46282640250E+01  0.11881693805E+01  0.18726356977E+02  0.00000000000E+00 0. -1.
         11    1    3    3    0    0  0.71833799747E+01 -0.57800412412E+01 -0.13600998174E+02  0.16431584713E+02  0.51100000000E-03 0. -1.
        -11    1    3    3    0    0  0.11547304280E+01 -0.25426872774E+02  0.91975662428E+00  0.25469692066E+02  0.51100000000E-03 0.  1.
        -12    1    3    3    0    0  0.97683489774E+01  0.26578649990E+02  0.11493072169E+02  0.30560366243E+02  0.00000000000E+00 0.  1.
</event>
<event>
 7    1  0.2153242E-013  0.7246150E+02  0.7816164E-02  0.1226708E+00
        -11   -1    0    0    0    0  0.00000000000E+00  0.00000000000E+00  0.45593999997E+02  0.45594000000E+02  0.51100000000E-03 0.  1.
         11   -1    0    0    0    0 -0.00000000000E+00 -0.00000000000E+00 -0.45593999997E+02  0.45594000000E+02  0.51100000000E-03 0. -1.
    9900012    2    1    2    0    0  0.15695143657E+02  0.60478228907E+01  0.82321331783E+01  0.72461502389E+02  0.69999911540E+02 0.  0.
         12    1    1    2    0    0 -0.15695143657E+02 -0.60478228907E+01 -0.82321331783E+01  0.18726497611E+02  0.00000000000E+00 0. -1.
         11    1    3    3    0    0 -0.98279361552E+01  0.19660392720E+02  0.68874550435E+01  0.23033810111E+02  0.51100000000E-03 0. -1.
        -11    1    3    3    0    0 -0.17744927271E+01  0.70158300713E+01 -0.10903201108E+02  0.13086271077E+02  0.51100000000E-03 0.  1.
        -12    1    3    3    0    0  0.27297572539E+02 -0.20628399901E+02  0.12247879243E+02  0.36341421201E+02  0.00000000000E+00 0.  1.
</event>
<event>
 7    1  0.2153242E-013  0.7246160E+02  0.7816164E-02  0.1226708E+00
        -11   -1    0    0    0    0  0.00000000000E+00  0.00000000000E+00  0.45593999997E+02  0.45594000000E+02  0.51100000000E-03 0.  1.
         11   -1    0    0    0    0 -0.00000000000E+00 -0.00000000000E+00 -0.45593999997E+02  0.45594000000E+02  0.51100000000E-03 0. -1.
    9900012    2    1    2    0    0 -0.12258565409E+02  0.78222205463E+01  0.11799082255E+02  0.72461604131E+02  0.70000044079E+02 0.  0.
         12    1    1    2    0    0  0.12258565409E+02 -0.78222205463E+01 -0.11799082255E+02  0.18726395869E+02  0.00000000000E+00 0. -1.
         11    1    3    3    0    0  0.37279544665E+01  0.17956866666E+02 -0.74107098290E+01  0.19780427836E+02  0.51100000000E-03 0. -1.
        -11    1    3    3    0    0 -0.50084752856E+01  0.21615313883E+01  0.31595379441E+02  0.32062829646E+02  0.51100000000E-03 0.  1.
         12    1    3    3    0    0 -0.10978044590E+02 -0.12296177508E+02 -0.12385587357E+02  0.20618346648E+02  0.00000000000E+00 0. -1.
</event>
<event>
 7    1  0.2153242E-013  0.7246156E+02  0.7816164E-02  0.1226708E+00
        -11   -1    0    0    0    0  0.00000000000E+00  0.00000000000E+00  0.45593999997E+02  0.45594000000E+02  0.51100000000E-03 0.  1.
         11   -1    0    0    0    0 -0.00000000000E+00 -0.00000000000E+00 -0.45593999997E+02  0.45594000000E+02  0.51100000000E-03 0. -1.
    9900012    2    1    2    0    0  0.11242890221E+02  0.13281851881E+02  0.69187694563E+01  0.72461560383E+02  0.69999987089E+02 0.  0.
         12    1    1    2    0    0 -0.11242890221E+02 -0.13281851881E+02 -0.69187694563E+01  0.18726439617E+02  0.00000000000E+00 0. -1.
         11    1    3    3    0    0  0.18754507430E+02 -0.75382124505E+00  0.22592342942E+01  0.18905129866E+02  0.51100000000E-03 0.  1.
        -11    1    3    3    0    0  0.13281678320E+02  0.23917206385E+01 -0.16757054961E+02  0.21515626829E+02  0.51100000000E-03 0. -1.
         12    1    3    3    0    0 -0.20793295528E+02  0.11643952488E+02  0.21416590123E+02  0.32040803688E+02  0.00000000000E+00 0. -1.
</event>
<event>
 7    1  0.2153242E-013  0.7246158E+02  0.7816164E-02  0.1226708E+00
        -11   -1    0    0    0    0  0.00000000000E+00  0.00000000000E+00  0.45593999997E+02  0.45594000000E+02  0.51100000000E-03 0. -1.
         11   -1    0    0    0    0 -0.00000000000E+00 -0.00000000000E+00 -0.45593999997E+02  0.45594000000E+02  0.51100000000E-03 0.  1.
    9900012    2    1    2    0    0  0.11979906826E+02  0.10814716193E+02 -0.94975011644E+01  0.72461580634E+02  0.70000013470E+02 0.  0.
         12    1    1    2    0    0 -0.11979906826E+02 -0.10814716193E+02  0.94975011644E+01  0.18726419366E+02  0.00000000000E+00 0. -1.
         11    1    3    3    0    0 -0.22970866367E+01  0.46501148124E+01  0.23848764586E+02  0.24406223537E+02  0.51100000000E-03 0. -1.
        -11    1    3    3    0    0  0.54544453716E+01 -0.91850047944E+01 -0.44342421626E+00  0.10691674924E+02  0.51100000000E-03 0.  1.
        -12    1    3    3    0    0  0.88225480909E+01  0.15349606175E+02 -0.32902841534E+02  0.37363682174E+02  0.00000000000E+00 0.  1.
</event>
<event>
 7    1  0.2153242E-013  0.7246159E+02  0.7816164E-02  0.1226708E+00
        -11   -1    0    0    0    0  0.00000000000E+00  0.00000000000E+00  0.45593999997E+02  0.45594000000E+02  0.51100000000E-03 0.  1.
         11   -1    0    0    0    0 -0.00000000000E+00 -0.00000000000E+00 -0.45593999997E+02  0.45594000000E+02  0.51100000000E-03 0. -1.
    9900012    2    1    2    0    0 -0.17457138589E+02 -0.58147816238E+01 -0.34806903222E+01  0.72461586084E+02  0.70000020569E+02 0.  0.
         12    1    1    2    0    0  0.17457138589E+02  0.58147816238E+01  0.34806903222E+01  0.18726413916E+02  0.00000000000E+00 0. -1.
         11    1    3    3    0    0  0.63781517934E+01 -0.13695756262E+02 -0.19148311074E+02  0.24390825675E+02  0.51100000000E-03 0. -1.
        -11    1    3    3    0    0 -0.14977942063E+02 -0.13547875170E+02  0.19854228119E+00  0.20197105965E+02  0.51100000000E-03 0.  1.
        -12    1    3    3    0    0 -0.88573483192E+01  0.21428849808E+02  0.15469078470E+02  0.27873654444E+02  0.00000000000E+00 0.  1.
</event>
<event>
 7    1  0.2153242E-013  0.7246154E+02  0.7816164E-02  0.1226708E+00
        -11   -1    0    0    0    0  0.00000000000E+00  0.00000000000E+00  0.45593999997E+02  0.45594000000E+02  0.51100000000E-03 0. -1.
         11   -1    0    0    0    0 -0.00000000000E+00 -0.00000000000E+00 -0.45593999997E+02  0.45594000000E+02  0.51100000000E-03 0.  1.
    9900012    2    1    2    0    0  0.10173470474E+02  0.52612463482E+01 -0.14815532007E+02  0.72461542693E+02  0.69999964044E+02 0.  0.
         12    1    1    2    0    0 -0.10173470474E+02 -0.52612463482E+01  0.14815532007E+02  0.18726457307E+02  0.00000000000E+00 0. -1.
         11    1    3    3    0    0  0.34466233361E+02  0.48124764784E+00 -0.16017811099E+02  0.38009513467E+02  0.51100000000E-03 0.  1.
        -11    1    3    3    0    0 -0.43558425084E+01  0.54661593530E+01  0.10363578407E+02  0.12500240785E+02  0.51100000000E-03 0. -1.
        -12    1    3    3    0    0 -0.19936920378E+02 -0.68616065260E+00 -0.91612993150E+01  0.21951788440E+02  0.00000000000E+00 0.  1.
</event>
<event>
 7    1  0.2153242E-013  0.7246164E+02  0.7816164E-02  0.1226708E+00
        -11   -1    0    0    0    0  0.00000000000E+00  0.00000000000E+00  0.45593999997E+02  0.45594000000E+02  0.51100000000E-03 0.  1.
         11   -1    0    0    0    0 -0.00000000000E+00 -0.00000000000E+00 -0.45593999997E+02  0.45594000000E+02  0.51100000000E-03 0. -1.
    9900012    2    1    2    0    0 -0.70103295638E+01 -0.12375532222E+02  0.12181048755E+02  0.72461642449E+02  0.70000093994E+02 0.  0.
         12    1    1    2    0    0  0.70103295638E+01  0.12375532222E+02 -0.12181048755E+02  0.18726357551E+02  0.00000000000E+00 0. -1.
         11    1    3    3    0    0 -0.21601236656E+01 -0.20342352904E+01 -0.33697333845E+01  0.44899165707E+01  0.51100000000E-03 0. -1.
        -11    1    3    3    0    0  0.14068216980E+00 -0.33810625160E+02  0.25139267615E+02  0.42132658849E+02  0.51100000000E-03 0.  1.
         12    1    3    3    0    0 -0.49908880680E+01  0.23469328229E+02 -0.95884854755E+01  0.25839067029E+02  0.00000000000E+00 0. -1.
</event>
<event>
 7    1  0.2153242E-013  0.7246157E+02  0.7816164E-02  0.1226708E+00
        -11   -1    0    0    0    0  0.00000000000E+00  0.00000000000E+00  0.45593999997E+02  0.45594000000E+02  0.51100000000E-03 0.  1.
         11   -1    0    0    0    0 -0.00000000000E+00 -0.00000000000E+00 -0.45593999997E+02  0.45594000000E+02  0.51100000000E-03 0. -1.
    9900012    2    1    2    0    0 -0.57847241709E+01 -0.11846732170E+02  0.13299282694E+02  0.72461574366E+02  0.70000005305E+02 0.  0.
         12    1    1    2    0    0  0.57847241709E+01  0.11846732170E+02 -0.13299282694E+02  0.18726425634E+02  0.00000000000E+00 0. -1.
         11    1    3    3    0    0 -0.16887016594E+02  0.78659323998E+01  0.14985097724E+02  0.23908102727E+02  0.51100000000E-03 0. -1.
        -11    1    3    3    0    0 -0.18264302668E+01 -0.26570522381E+02  0.11353587652E+02  0.28952244472E+02  0.51100000000E-03 0.  1.
         12    1    3    3    0    0  0.12928722689E+02  0.68578578108E+01 -0.13039402683E+02  0.19601227167E+02  0.00000000000E+00 0. -1.
</event>
<event>
 7    1  0.2153242E-013  0.7246190E+02  0.7816164E-02  0.1226707E+00
        -11   -1    0    0    0    0  0.00000000000E+00  0.00000000000E+00  0.45593999997E+02  0.45594000000E+02  0.51100000000E-03 0.  1.
         11   -1    0    0    0    0 -0.00000000000E+00 -0.00000000000E+00 -0.45593999997E+02  0.45594000000E+02  0.51100000000E-03 0. -1.
    9900012    2    1    2    0    0 -0.46399460176E+01  0.14476038378E+02  0.10935355221E+02  0.72461901101E+02  0.70000430936E+02 0.  0.
         12    1    1    2    0    0  0.46399460176E+01 -0.14476038378E+02 -0.10935355221E+02  0.18726098899E+02  0.00000000000E+00 0. -1.
         11    1    3    3    0    0  0.15144624007E+02 -0.38856419927E+01 -0.13132130297E+02  0.20418391132E+02  0.51100000000E-03 0. -1.
        -11    1    3    3    0    0 -0.11953434292E+02  0.23287574574E+02 -0.88602716950E-01  0.26176393404E+02  0.51100000000E-03 0.  1.
        -12    1    3    3    0    0 -0.78311357332E+01 -0.49258942033E+01  0.24156088235E+02  0.25867116565E+02  0.00000000000E+00 0.  1.
</event>
<event>
 7    1  0.2153242E-013  0.7246160E+02  0.7816164E-02  0.1226708E+00
        -11   -1    0    0    0    0  0.00000000000E+00  0.00000000000E+00  0.45593999997E+02  0.45594000000E+02  0.51100000000E-03 0.  1.
         11   -1    0    0    0    0 -0.00000000000E+00 -0.00000000000E+00 -0.45593999997E+02  0.45594000000E+02  0.51100000000E-03 0. -1.
    9900012    2    1    2    0    0 -0.14035312235E+02 -0.12326103327E+02 -0.13248471898E+01  0.72461600644E+02  0.70000039536E+02 0.  0.
         12    1    1    2    0    0  0.14035312235E+02  0.12326103327E+02  0.13248471898E+01  0.18726399356E+02  0.00000000000E+00 0. -1.
         11    1    3    3    0    0 -0.24232607500E+01  0.50318450005E+01 -0.98541553396E+01  0.11326783943E+02  0.51100000000E-03 0. -1.
        -11    1    3    3    0    0  0.36555788765E+01  0.19739615321E+02  0.59367594733E+01  0.20934678963E+02  0.51100000000E-03 0.  1.
         12    1    3    3    0    0 -0.15267630361E+02 -0.37097563649E+02  0.25925486766E+01  0.40200137739E+02  0.00000000000E+00 0. -1.
</event>
<event>
 7    1  0.2153242E-013  0.7246155E+02  0.7816164E-02  0.1226708E+00
        -11   -1    0    0    0    0  0.00000000000E+00  0.00000000000E+00  0.45593999997E+02  0.45594000000E+02  0.51100000000E-03 0.  1.
         11   -1    0    0    0    0 -0.00000000000E+00 -0.00000000000E+00 -0.45593999997E+02  0.45594000000E+02  0.51100000000E-03 0. -1.
    9900012    2    1    2    0    0  0.26404920532E+01 -0.15311451508E+02  0.10453092499E+02  0.72461551101E+02  0.69999974998E+02 0.  0.
         12    1    1    2    0    0 -0.26404920532E+01  0.15311451508E+02 -0.10453092499E+02  0.18726448899E+02  0.00000000000E+00 0. -1.
         11    1    3    3    0    0  0.16232739257E+00  0.15236759803E+02 -0.82787772839E+01  0.17341376907E+02  0.51100000000E-03 0. -1.
        -11    1    3    3    0    0  0.12159670973E+02  0.62371546384E+01  0.32159915411E+01  0.14039312590E+02  0.51100000000E-03 0.  1.
        -12    1    3    3    0    0 -0.96815063124E+01 -0.36785365949E+02  0.15515878242E+02  0.41080861604E+02  0.00000000000E+00 0.  1.
</event>
<event>
 7    1  0.2153242E-013  0.7246156E+02  0.7816164E-02  0.1226708E+00
        -11   -1    0    0    0    0  0.00000000000E+00  0.00000000000E+00  0.45593999997E+02  0.45594000000E+02  0.51100000000E-03 0.  1.
         11   -1    0    0    0    0 -0.00000000000E+00 -0.00000000000E+00 -0.45593999997E+02  0.45594000000E+02  0.51100000000E-03 0. -1.
    9900012    2    1    2    0    0  0.11105351732E+02  0.13121659367E+02  0.74278297755E+01  0.72461563158E+02  0.69999990703E+02 0.  0.
         12    1    1    2    0    0 -0.11105351732E+02 -0.13121659367E+02 -0.74278297755E+01  0.18726436842E+02  0.00000000000E+00 0. -1.
         11    1    3    3    0    0  0.23113345629E+02 -0.16965145291E+02  0.17945412773E+02  0.33824262605E+02  0.51100000000E-03 0. -1.
        -11    1    3    3    0    0 -0.34805704993E+01 -0.26151100822E+00 -0.57906949916E+01  0.67612800382E+01  0.51100000000E-03 0.  1.
        -12    1    3    3    0    0 -0.85274233978E+01  0.30348315666E+02 -0.47268880063E+01  0.31876020514E+02  0.00000000000E+00 0.  1.
</event>
<event>
 7    1  0.2153242E-013  0.7246157E+02  0.7816164E-02  0.1226708E+00
        -11   -1    0    0    0    0  0.00000000000E+00  0.00000000000E+00  0.45593999997E+02  0.45594000000E+02  0.51100000000E-03 0.  1.
         11   -1    0    0    0    0 -0.00000000000E+00 -0.00000000000E+00 -0.45593999997E+02  0.45594000000E+02  0.51100000000E-03 0. -1.
    9900012    2    1    2    0    0 -0.16897258917E+02 -0.11835638970E+01  0.79850424894E+01  0.72461572525E+02  0.70000002906E+02 0.  0.
         12    1    1    2    0    0  0.16897258917E+02  0.11835638970E+01 -0.79850424894E+01  0.18726427475E+02  0.00000000000E+00 0. -1.
         11    1    3    3    0    0 -0.63275026220E+01  0.14869902852E+02 -0.21625451981E+02  0.26996508551E+02  0.51100000000E-03 0. -1.
        -11    1    3    3    0    0  0.57025112287E+01  0.51678097781E+01  0.77910843934E+01  0.10951067916E+02  0.51100000000E-03 0.  1.
        -12    1    3    3    0    0 -0.16272267524E+02 -0.21221276527E+02  0.21819410077E+02  0.34513996059E+02  0.00000000000E+00 0.  1.
</event>
<event>
 7    1  0.2153242E-013  0.7246157E+02  0.7816164E-02  0.1226708E+00
        -11   -1    0    0    0    0  0.00000000000E+00  0.00000000000E+00  0.45593999997E+02  0.45594000000E+02  0.51100000000E-03 0. -1.
         11   -1    0    0    0    0 -0.00000000000E+00 -0.00000000000E+00 -0.45593999997E+02  0.45594000000E+02  0.51100000000E-03 0.  1.
    9900012    2    1    2    0    0  0.71358229481E+01  0.12046710049E+02 -0.12435270669E+02  0.72461570849E+02  0.70000000723E+02 0.  0.
         12    1    1    2    0    0 -0.71358229481E+01 -0.12046710049E+02  0.12435270669E+02  0.18726429151E+02  0.00000000000E+00 0. -1.
         11    1    3    3    0    0 -0.92297909589E+01  0.34357338637E+02  0.50999233637E+01  0.35939184436E+02  0.51100000000E-03 0. -1.
        -11    1    3    3    0    0  0.37511228855E+01  0.20276198919E+01 -0.61554435686E+00  0.43082549187E+01  0.51100000000E-03 0.  1.
        -12    1    3    3    0    0  0.12614491021E+02 -0.24338248480E+02 -0.16919649675E+02  0.32214131495E+02  0.00000000000E+00 0.  1.
</event>
<event>
 7    1  0.2153242E-013  0.7246155E+02  0.7816164E-02  0.1226708E+00
        -11   -1    0    0    0    0  0.00000000000E+00  0.00000000000E+00  0.45593999997E+02  0.45594000000E+02  0.51100000000E-03 0. -1.
         11   -1    0    0    0    0 -0.00000000000E+00 -0.00000000000E+00 -0.45593999997E+02  0.45594000000E+02  0.51100000000E-03 0.  1.
    9900012    2    1    2    0    0  0.13714467773E+02 -0.12751177221E+02  0.29022436094E-01  0.72461548411E+02  0.69999971492E+02 0.  0.
         12    1    1    2    0    0 -0.13714467773E+02  0.12751177221E+02 -0.29022436094E-01  0.18726451589E+02  0.00000000000E+00 0. -1.
         11    1    3    3    0    0 -0.10892880892E+02  0.67898852019E+01  0.10125383991E+01  0.12875660350E+02  0.51100000000E-03 0. -1.
        -11    1    3    3    0    0 -0.81555724575E+01  0.11502064534E+02  0.24905826372E+01  0.14318304815E+02  0.51100000000E-03 0.  1.
        -12    1    3    3    0    0  0.32762921123E+02 -0.31043126957E+02 -0.34740986002E+01  0.45267583245E+02  0.00000000000E+00 0.  1.
</event>
<event>
 7    1  0.2153242E-013  0.7246151E+02  0.7816164E-02  0.1226708E+00
        -11   -1    0    0    0    0  0.00000000000E+00  0.00000000000E+00  0.45593999997E+02  0.45594000000E+02  0.51100000000E-03 0. -1.
         11   -1    0    0    0    0 -0.00000000000E+00 -0.00000000000E+00 -0.45593999997E+02  0.45594000000E+02  0.51100000000E-03 0.  1.
    9900012    2    1    2    0    0 -0.12494428344E+02 -0.12625695867E+02  0.59297830957E+01  0.72461514389E+02  0.69999927173E+02 0.  0.
         12    1    1    2    0    0  0.12494428344E+02  0.12625695867E+02 -0.59297830957E+01  0.18726485611E+02  0.00000000000E+00 0. -1.
         11    1    3    3    0    0 -0.23646629791E+02  0.43400749152E+01  0.36767634686E+01  0.24321141844E+02  0.51100000000E-03 0. -1.
        -11    1    3    3    0    0 -0.16070845829E+02 -0.12720413625E+02 -0.54503566154E-02  0.20495878571E+02  0.51100000000E-03 0.  1.
         12    1    3    3    0    0  0.27223047276E+02 -0.42453571574E+01  0.22584699837E+01  0.27644493974E+02  0.00000000000E+00 0. -1.
</event>
<event>
 7    1  0.2153242E-013  0.7246160E+02  0.7816164E-02  0.1226708E+00
        -11   -1    0    0    0    0  0.00000000000E+00  0.00000000000E+00  0.45593999997E+02  0.45594000000E+02  0.51100000000E-03 0.  1.
         11   -1    0    0    0    0 -0.00000000000E+00 -0.00000000000E+00 -0.45593999997E+02  0.45594000000E+02  0.51100000000E-03 0. -1.
    9900012    2    1    2    0    0 -0.10888942451E+02  0.13102381938E+02  0.77740947169E+01  0.72461600751E+02  0.70000039676E+02 0.  0.
         12    1    1    2    0    0  0.10888942451E+02 -0.13102381938E+02 -0.77740947169E+01  0.18726399249E+02  0.00000000000E+00 0. -1.
         11    1    3    3    0    0  0.11361831207E+02  0.10159815280E+02 -0.12052027217E+02  0.19431016834E+02  0.51100000000E-03 0. -1.
        -11    1    3    3    0    0  0.90301935557E+01  0.13380635804E+02  0.78133170641E+01  0.17934149937E+02  0.51100000000E-03 0.  1.
        -12    1    3    3    0    0 -0.31280967213E+02 -0.10438069145E+02  0.12012804870E+02  0.35096433980E+02  0.00000000000E+00 0.  1.
</event>
<event>
 7    1  0.2153242E-013  0.7246157E+02  0.7816164E-02  0.1226708E+00
        -11   -1    0    0    0    0  0.00000000000E+00  0.00000000000E+00  0.45593999997E+02  0.45594000000E+02  0.51100000000E-03 0. -1.
         11   -1    0    0    0    0 -0.00000000000E+00 -0.00000000000E+00 -0.45593999997E+02  0.45594000000E+02  0.51100000000E-03 0.  1.
    9900012    2    1    2    0    0 -0.14200325506E+02 -0.10452763272E+02 -0.63063103199E+01  0.72461573369E+02  0.70000004006E+02 0.  0.
         12    1    1    2    0    0  0.14200325506E+02  0.10452763272E+02  0.63063103199E+01  0.18726426631E+02  0.00000000000E+00 0. -1.
         11    1    3    3    0    0 -0.20783357199E+01  0.14904109561E+02  0.12644398453E+02  0.19655349747E+02  0.51100000000E-03 0. -1.
        -11    1    3    3    0    0 -0.15214892717E+01  0.75565349033E+01  0.63281256620E+01  0.99730298307E+01  0.51100000000E-03 0.  1.
        -12    1    3    3    0    0 -0.10600500515E+02 -0.32913407737E+02 -0.25278834435E+02  0.42833193792E+02  0.00000000000E+00 0.  1.
</event>
<event>
 7    1  0.2153242E-013  0.7246159E+02  0.7816164E-02  0.1226708E+00
        -11   -1    0    0    0    0  0.00000000000E+00  0.00000000000E+00  0.45593999997E+02  0.45594000000E+02  0.51100000000E-03 0.  1.
         11   -1    0    0    0    0 -0.00000000000E+00 -0.00000000000E+00 -0.45593999997E+02  0.45594000000E+02  0.51100000000E-03 0. -1.
    9900012    2    1    2    0    0 -0.16629917997E+02 -0.12345642255E+01  0.85205749094E+01  0.72461587685E+02  0.70000022655E+02 0.  0.
         12    1    1    2    0    0  0.16629917997E+02  0.12345642255E+01 -0.85205749094E+01  0.18726412315E+02  0.00000000000E+00 0. -1.
         11    1    3    3    0    0 -0.29144147924E+01  0.11693277024E+02 -0.26522658146E+01  0.12339410657E+02  0.51100000000E-03 0. -1.
        -11    1    3    3    0    0  0.17336547347E+02  0.56539436364E+01 -0.71178341905E+01  0.19575150481E+02  0.51100000000E-03 0.  1.
         12    1    3    3    0    0 -0.31052050551E+02 -0.18581784886E+02  0.18290674915E+02  0.40547026547E+02  0.00000000000E+00 0. -1.
</event>
<event>
 7    1  0.2153242E-013  0.7246150E+02  0.7816164E-02  0.1226708E+00
        -11   -1    0    0    0    0  0.00000000000E+00  0.00000000000E+00  0.45593999997E+02  0.45594000000E+02  0.51100000000E-03 0.  1.
         11   -1    0    0    0    0 -0.00000000000E+00 -0.00000000000E+00 -0.45593999997E+02  0.45594000000E+02  0.51100000000E-03 0. -1.
    9900012    2    1    2    0    0 -0.95846213740E+01  0.97731956132E+01  0.12778947720E+02  0.72461499414E+02  0.69999907665E+02 0.  0.
         12    1    1    2    0    0  0.95846213740E+01 -0.97731956132E+01 -0.12778947720E+02  0.18726500586E+02  0.00000000000E+00 0. -1.
         11    1    3    3    0    0 -0.17073474187E+02 -0.21466342170E+02  0.95217594848E+01  0.29033967537E+02  0.51100000000E-03 0. -1.
        -11    1    3    3    0    0 -0.44709341572E+01  0.27969736513E+01  0.10485824305E+02  0.11737326163E+02  0.51100000000E-03 0.  1.
         12    1    3    3    0    0  0.11959786971E+02  0.28442564132E+02 -0.72286360696E+01  0.31690205714E+02  0.00000000000E+00 0. -1.
</event>
<event>
 7    1  0.2153242E-013  0.7246154E+02  0.7816164E-02  0.1226708E+00
        -11   -1    0    0    0    0  0.00000000000E+00  0.00000000000E+00  0.45593999997E+02  0.45594000000E+02  0.51100000000E-03 0.  1.
         11   -1    0    0    0    0 -0.00000000000E+00 -0.00000000000E+00 -0.45593999997E+02  0.45594000000E+02  0.51100000000E-03 0. -1.
    9900012    2    1    2    0    0 -0.15247656202E+02 -0.10869705033E+02  0.19680222122E+00  0.72461541758E+02  0.69999962826E+02 0.  0.
         12    1    1    2    0    0  0.15247656202E+02  0.10869705033E+02 -0.19680222122E+00  0.18726458242E+02  0.00000000000E+00 0. -1.
         11    1    3    3    0    0 -0.19671213127E+02 -0.17630035875E+02 -0.24375662540E+02  0.35943674205E+02  0.51100000000E-03 0. -1.
        -11    1    3    3    0    0 -0.13641234537E+01 -0.16786331478E+01 -0.48802598617E+01  0.53381250099E+01  0.51100000000E-03 0.  1.
        -12    1    3    3    0    0  0.57876803785E+01  0.84389639897E+01  0.29452724623E+02  0.31179742543E+02  0.00000000000E+00 0.  1.
</event>
<event>
 7    1  0.2153242E-013  0.7246157E+02  0.7816164E-02  0.1226708E+00
        -11   -1    0    0    0    0  0.00000000000E+00  0.00000000000E+00  0.45593999997E+02  0.45594000000E+02  0.51100000000E-03 0. -1.
         11   -1    0    0    0    0 -0.00000000000E+00 -0.00000000000E+00 -0.45593999997E+02  0.45594000000E+02  0.51100000000E-03 0.  1.
    9900012    2    1    2    0    0 -0.80908809379E+01  0.16502751463E+02 -0.35883108420E+01  0.72461571219E+02  0.70000001204E+02 0.  0.
         12    1    1    2    0    0  0.80908809379E+01 -0.16502751463E+02  0.35883108420E+01  0.18726428781E+02  0.00000000000E+00 0. -1.
         11    1    3    3    0    0 -0.32804975022E+01 -0.10652878334E+02  0.20817491369E+02  0.23613839752E+02  0.51100000000E-03 0. -1.
        -11    1    3    3    0    0  0.12989916339E+01 -0.41323414339E+01  0.41871649392E+01  0.60246141354E+01  0.51100000000E-03 0.  1.
        -12    1    3    3    0    0 -0.61093750695E+01  0.31287971231E+02 -0.28592967151E+02  0.42823117331E+02  0.00000000000E+00 0.  1.
</event>
<event>
 7    1  0.2153242E-013  0.7246156E+02  0.7816164E-02  0.1226708E+00
        -11   -1    0    0    0    0  0.00000000000E+00  0.00000000000E+00  0.45593999997E+02  0.45594000000E+02  0.51100000000E-03 0. -1.
         11   -1    0    0    0    0 -0.00000000000E+00 -0.00000000000E+00 -0.45593999997E+02  0.45594000000E+02  0.51100000000E-03 0.  1.
    9900012    2    1    2    0    0 -0.40725383046E+01 -0.18277744295E+02  0.13415129182E+00  0.72461561435E+02  0.69999988459E+02 0.  0.
         12    1    1    2    0    0  0.40725383046E+01  0.18277744295E+02 -0.13415129182E+00  0.18726438565E+02  0.00000000000E+00 0. -1.
         11    1    3    3    0    0  0.17533037162E+02 -0.34312881557E+02  0.51779574649E+01  0.38879203653E+02  0.51100000000E-03 0. -1.
        -11    1    3    3    0    0 -0.48261512624E+01  0.41847037282E+01  0.72340374748E+01  0.96506362353E+01  0.51100000000E-03 0.  1.
        -12    1    3    3    0    0 -0.16779424204E+02  0.11850433534E+02 -0.12277843648E+02  0.23931721547E+02  0.00000000000E+00 0.  1.
</event>
<event>
 7    1  0.2153242E-013  0.7246157E+02  0.7816164E-02  0.1226708E+00
        -11   -1    0    0    0    0  0.00000000000E+00  0.00000000000E+00  0.45593999997E+02  0.45594000000E+02  0.51100000000E-03 0.  1.
         11   -1    0    0    0    0 -0.00000000000E+00 -0.00000000000E+00 -0.45593999997E+02  0.45594000000E+02  0.51100000000E-03 0. -1.
    9900012    2    1    2    0    0  0.15864969826E+02 -0.98118584720E+01 -0.16460117945E+01  0.72461569772E+02  0.69999999320E+02 0.  0.
         12    1    1    2    0    0 -0.15864969826E+02  0.98118584720E+01  0.16460117945E+01  0.18726430228E+02  0.00000000000E+00 0. -1.
         11    1    3    3    0    0  0.28197487552E+02 -0.52890706766E+01 -0.16828732656E+02  0.33260769924E+02  0.51100000000E-03 0. -1.
        -11    1    3    3    0    0 -0.42971157954E+01  0.14507518198E+02  0.37394391615E+01  0.15585784996E+02  0.51100000000E-03 0.  1.
        -12    1    3    3    0    0 -0.80354019309E+01 -0.19030305994E+02  0.11443281700E+02  0.23615014852E+02  0.00000000000E+00 0.  1.
</event>
<event>
 7    1  0.2153242E-013  0.7246157E+02  0.7816164E-02  0.1226708E+00
        -11   -1    0    0    0    0  0.00000000000E+00  0.00000000000E+00  0.45593999997E+02  0.45594000000E+02  0.51100000000E-03 0.  1.
         11   -1    0    0    0    0 -0.00000000000E+00 -0.00000000000E+00 -0.45593999997E+02  0.45594000000E+02  0.51100000000E-03 0. -1.
    9900012    2    1    2    0    0  0.14113679839E+02  0.10782212666E+02  0.59352290998E+01  0.72461574473E+02  0.70000005443E+02 0.  0.
         12    1    1    2    0    0 -0.14113679839E+02 -0.10782212666E+02 -0.59352290998E+01  0.18726425527E+02  0.00000000000E+00 0. -1.
         11    1    3    3    0    0 -0.18391197820E+02 -0.81762095449E+01  0.30267174967E+01  0.20353072959E+02  0.51100000000E-03 0. -1.
        -11    1    3    3    0    0  0.20015274019E+02 -0.85844059291E+01  0.16224490533E+01  0.21838854375E+02  0.51100000000E-03 0.  1.
        -12    1    3    3    0    0  0.12489603640E+02  0.27542828140E+02  0.12860625498E+01  0.30269647139E+02  0.00000000000E+00 0.  1.
</event>
<event>
 7    1  0.2153242E-013  0.7246135E+02  0.7816164E-02  0.1226709E+00
        -11   -1    0    0    0    0  0.00000000000E+00  0.00000000000E+00  0.45593999997E+02  0.45594000000E+02  0.51100000000E-03 0.  1.
         11   -1    0    0    0    0 -0.00000000000E+00 -0.00000000000E+00 -0.45593999997E+02  0.45594000000E+02  0.51100000000E-03 0. -1.
    9900012    2    1    2    0    0  0.17952111690E+02  0.46273378259E+01  0.26451685428E+01  0.72461348241E+02  0.69999710733E+02 0.  0.
         12    1    1    2    0    0 -0.17952111690E+02 -0.46273378259E+01 -0.26451685428E+01  0.18726651759E+02  0.00000000000E+00 0. -1.
         11    1    3    3    0    0  0.53396464724E+01  0.44217372904E+01  0.19920028295E+01  0.72132974879E+01  0.51100000000E-03 0. -1.
        -11    1    3    3    0    0  0.11170554812E+02 -0.16349754803E+02  0.27371669399E+02  0.33783192018E+02  0.51100000000E-03 0.  1.
         12    1    3    3    0    0  0.14419104058E+01  0.16555355339E+02 -0.26718503686E+02  0.31464858735E+02  0.00000000000E+00 0. -1.
</event>
<event>
 7    1  0.2153242E-013  0.7246159E+02  0.7816164E-02  0.1226708E+00
        -11   -1    0    0    0    0  0.00000000000E+00  0.00000000000E+00  0.45593999997E+02  0.45594000000E+02  0.51100000000E-03 0.  1.
         11   -1    0    0    0    0 -0.00000000000E+00 -0.00000000000E+00 -0.45593999997E+02  0.45594000000E+02  0.51100000000E-03 0. -1.
    9900012    2    1    2    0    0 -0.10502725444E+02 -0.12051218530E+02  0.97539426121E+01  0.72461588002E+02  0.70000023068E+02 0.  0.
         12    1    1    2    0    0  0.10502725444E+02  0.12051218530E+02 -0.97539426121E+01  0.18726411998E+02  0.00000000000E+00 0. -1.
         11    1    3    3    0    0  0.10078727691E+02  0.76602684229E+01 -0.80201858018E+01  0.14986121737E+02  0.51100000000E-03 0. -1.
        -11    1    3    3    0    0 -0.22738667694E+02  0.10009164282E+02  0.87556246765E+01  0.26341817360E+02  0.51100000000E-03 0.  1.
         12    1    3    3    0    0  0.21572145588E+01 -0.29720651235E+02  0.90185037374E+01  0.31133648905E+02  0.00000000000E+00 0. -1.
</event>
<event>
 7    1  0.2153242E-013  0.7246159E+02  0.7816164E-02  0.1226708E+00
        -11   -1    0    0    0    0  0.00000000000E+00  0.00000000000E+00  0.45593999997E+02  0.45594000000E+02  0.51100000000E-03 0. -1.
         11   -1    0    0    0    0 -0.00000000000E+00 -0.00000000000E+00 -0.45593999997E+02  0.45594000000E+02  0.51100000000E-03 0.  1.
    9900012    2    1    2    0    0 -0.18176043719E+02  0.41016906555E+01  0.18670754734E+01  0.72461590779E+02  0.70000026685E+02 0.  0.
         12    1    1    2    0    0  0.18176043719E+02 -0.41016906555E+01 -0.18670754734E+01  0.18726409221E+02  0.00000000000E+00 0. -1.
         11    1    3    3    0    0 -0.28840625213E+02 -0.16101764728E+01  0.16182481053E+02  0.33109621325E+02  0.51100000000E-03 0. -1.
        -11    1    3    3    0    0  0.90025635706E+00  0.15811728560E+02  0.39370418772E+01  0.16319360299E+02  0.51100000000E-03 0.  1.
        -12    1    3    3    0    0  0.97643251372E+01 -0.10099861432E+02 -0.18252447457E+02  0.23032609155E+02  0.00000000000E+00 0.  1.
</event>
<event>
 7    1  0.2153242E-013  0.7246159E+02  0.7816164E-02  0.1226708E+00
        -11   -1    0    0    0    0  0.00000000000E+00  0.00000000000E+00  0.45593999997E+02  0.45594000000E+02  0.51100000000E-03 0.  1.
         11   -1    0    0    0    0 -0.00000000000E+00 -0.00000000000E+00 -0.45593999997E+02  0.45594000000E+02  0.51100000000E-03 0. -1.
    9900012    2    1    2    0    0 -0.69029048610E+01 -0.10255222820E+02  0.14066228415E+02  0.72461588906E+02  0.70000024246E+02 0.  0.
         12    1    1    2    0    0  0.69029048610E+01  0.10255222820E+02 -0.14066228415E+02  0.18726411094E+02  0.00000000000E+00 0. -1.
         11    1    3    3    0    0 -0.23377399514E+02 -0.12067905021E+02  0.15366028844E+02  0.30467228006E+02  0.51100000000E-03 0. -1.
        -11    1    3    3    0    0 -0.12592460484E+02 -0.85207544589E+00 -0.20988444501E+01  0.12794578613E+02  0.51100000000E-03 0.  1.
         12    1    3    3    0    0  0.29066955137E+02  0.26647576470E+01  0.79904402102E+00  0.29199782287E+02  0.00000000000E+00 0. -1.
</event>
<event>
 7    1  0.2153242E-013  0.7246168E+02  0.7816164E-02  0.1226708E+00
        -11   -1    0    0    0    0  0.00000000000E+00  0.00000000000E+00  0.45593999997E+02  0.45594000000E+02  0.51100000000E-03 0.  1.
         11   -1    0    0    0    0 -0.00000000000E+00 -0.00000000000E+00 -0.45593999997E+02  0.45594000000E+02  0.51100000000E-03 0. -1.
    9900012    2    1    2    0    0  0.16330953700E+02  0.62209937800E+01 -0.67286051664E+01  0.72461683228E+02  0.70000147116E+02 0.  0.
         12    1    1    2    0    0 -0.16330953700E+02 -0.62209937800E+01  0.67286051664E+01  0.18726316772E+02  0.00000000000E+00 0. -1.
         11    1    3    3    0    0 -0.22479126516E+01  0.49551811496E+00  0.16903904194E+01  0.28558833174E+01  0.51100000000E-03 0. -1.
        -11    1    3    3    0    0 -0.63890347623E+01 -0.61244440555E+00  0.25906396290E+02  0.26689627617E+02  0.51100000000E-03 0.  1.
         12    1    3    3    0    0  0.24967901114E+02  0.63379200706E+01 -0.34325391876E+02  0.42916172293E+02  0.00000000000E+00 0. -1.
</event>
<event>
 7    1  0.2153242E-013  0.7246154E+02  0.7816164E-02  0.1226708E+00
        -11   -1    0    0    0    0  0.00000000000E+00  0.00000000000E+00  0.45593999997E+02  0.45594000000E+02  0.51100000000E-03 0.  1.
         11   -1    0    0    0    0 -0.00000000000E+00 -0.00000000000E+00 -0.45593999997E+02  0.45594000000E+02  0.51100000000E-03 0. -1.
    9900012    2    1    2    0    0  0.18100129710E+02  0.37807689506E+01 -0.29616632839E+01  0.72461538540E+02  0.69999958634E+02 0.  0.
         12    1    1    2    0    0 -0.18100129710E+02 -0.37807689506E+01  0.29616632839E+01  0.18726461460E+02  0.00000000000E+00 0. -1.
         11    1    3    3    0    0  0.14131417321E+01 -0.29052181038E+01 -0.62851116419E+01  0.70668161429E+01  0.51100000000E-03 0. -1.
        -11    1    3    3    0    0 -0.59356864124E+01 -0.23982934050E+02  0.10092248704E+02  0.26688330465E+02  0.51100000000E-03 0.  1.
        -12    1    3    3    0    0  0.22622674391E+02  0.30668921104E+02 -0.67688003462E+01  0.38706391933E+02  0.00000000000E+00 0.  1.
</event>
<event>
 7    1  0.2153242E-013  0.7246166E+02  0.7816164E-02  0.1226708E+00
        -11   -1    0    0    0    0  0.00000000000E+00  0.00000000000E+00  0.45593999997E+02  0.45594000000E+02  0.51100000000E-03 0. -1.
         11   -1    0    0    0    0 -0.00000000000E+00 -0.00000000000E+00 -0.45593999997E+02  0.45594000000E+02  0.51100000000E-03 0.  1.
    9900012    2    1    2    0    0  0.25876970124E+01 -0.52903764685E+01 -0.17776153478E+02  0.72461657819E+02  0.70000114017E+02 0.  0.
         12    1    1    2    0    0 -0.25876970124E+01  0.52903764685E+01  0.17776153478E+02  0.18726342181E+02  0.00000000000E+00 0. -1.
         11    1    3    3    0    0 -0.29266976675E+02 -0.21425872252E+01 -0.20368200190E+02  0.35721284733E+02  0.51100000000E-03 0. -1.
        -11    1    3    3    0    0  0.29924937560E+01  0.17082240216E+00 -0.57755636917E+01  0.65070220064E+01  0.51100000000E-03 0.  1.
         12    1    3    3    0    0  0.28862179932E+02 -0.33186116455E+01  0.83676104038E+01  0.30233351080E+02  0.00000000000E+00 0. -1.
</event>
<event>
 7    1  0.2153242E-013  0.7246157E+02  0.7816164E-02  0.1226708E+00
        -11   -1    0    0    0    0  0.00000000000E+00  0.00000000000E+00  0.45593999997E+02  0.45594000000E+02  0.51100000000E-03 0.  1.
         11   -1    0    0    0    0 -0.00000000000E+00 -0.00000000000E+00 -0.45593999997E+02  0.45594000000E+02  0.51100000000E-03 0. -1.
    9900012    2    1    2    0    0  0.77746885143E+01 -0.69453573918E+01  0.15556203988E+02  0.72461568057E+02  0.69999997086E+02 0.  0.
         12    1    1    2    0    0 -0.77746885143E+01  0.69453573918E+01 -0.15556203988E+02  0.18726431943E+02  0.00000000000E+00 0. -1.
         11    1    3    3    0    0 -0.10808132923E+02 -0.19165603982E+02 -0.14510774502E+02  0.26357137366E+02  0.51100000000E-03 0. -1.
        -11    1    3    3    0    0 -0.34205136414E+01  0.90241368478E+01  0.12868411072E+01  0.97360628446E+01  0.51100000000E-03 0.  1.
        -12    1    3    3    0    0  0.22003335078E+02  0.31961097420E+01  0.28780137382E+02  0.36368367846E+02  0.00000000000E+00 0.  1.
</event>
<event>
 7    1  0.2153242E-013  0.7246156E+02  0.7816164E-02  0.1226708E+00
        -11   -1    0    0    0    0  0.00000000000E+00  0.00000000000E+00  0.45593999997E+02  0.45594000000E+02  0.51100000000E-03 0.  1.
         11   -1    0    0    0    0 -0.00000000000E+00 -0.00000000000E+00 -0.45593999997E+02  0.45594000000E+02  0.51100000000E-03 0. -1.
    9900012    2    1    2    0    0  0.48662587212E+01 -0.51467610236E+01  0.17335216919E+02  0.72461564979E+02  0.69999993076E+02 0.  0.
         12    1    1    2    0    0 -0.48662587212E+01  0.51467610236E+01 -0.17335216919E+02  0.18726435021E+02  0.00000000000E+00 0. -1.
         11    1    3    3    0    0  0.26723343338E+02 -0.46380598834E+00 -0.36601737956E-01  0.26727392972E+02  0.51100000000E-03 0. -1.
        -11    1    3    3    0    0  0.81547438627E+01 -0.88015216942E+01  0.54749707584E+01  0.13188704890E+02  0.51100000000E-03 0.  1.
        -12    1    3    3    0    0 -0.30011828479E+02  0.41185666590E+01  0.11896847898E+02  0.32545467117E+02  0.00000000000E+00 0.  1.
</event>
<event>
 7    1  0.2153242E-013  0.7246161E+02  0.7816164E-02  0.1226708E+00
        -11   -1    0    0    0    0  0.00000000000E+00  0.00000000000E+00  0.45593999997E+02  0.45594000000E+02  0.51100000000E-03 0.  1.
         11   -1    0    0    0    0 -0.00000000000E+00 -0.00000000000E+00 -0.45593999997E+02  0.45594000000E+02  0.51100000000E-03 0. -1.
    9900012    2    1    2    0    0  0.10699673497E+02 -0.65167513901E+01  0.13918573707E+02  0.72461608045E+02  0.70000049177E+02 0.  0.
         12    1    1    2    0    0 -0.10699673497E+02  0.65167513901E+01 -0.13918573707E+02  0.18726391955E+02  0.00000000000E+00 0. -1.
         11    1    3    3    0    0 -0.94732359800E+01  0.82683163401E+01 -0.14517946370E+02  0.19206197491E+02  0.51100000000E-03 0. -1.
        -11    1    3    3    0    0  0.17191545855E+02 -0.14981417722E+02 -0.17975418400E+01  0.22874074468E+02  0.51100000000E-03 0.  1.
        -12    1    3    3    0    0  0.29813636222E+01  0.19634999187E+00  0.30234061916E+02  0.30381336085E+02  0.00000000000E+00 0.  1.
</event>
<event>
 7    1 -0.2153242E-013  0.7246153E+02  0.7816164E-02  0.1226708E+00
        -11   -1    0    0    0    0  0.00000000000E+00  0.00000000000E+00  0.45593999997E+02  0.45594000000E+02  0.51100000000E-03 0.  1.
         11   -1    0    0    0    0 -0.00000000000E+00 -0.00000000000E+00 -0.45593999997E+02  0.45594000000E+02  0.51100000000E-03 0. -1.
    9900012    2    1    2    0    0 -0.13042182065E+02  0.61551393705E+01  0.11945560812E+02  0.72461530050E+02  0.69999947574E+02 0.  0.
         12    1    1    2    0    0  0.13042182065E+02 -0.61551393705E+01 -0.11945560812E+02  0.18726469950E+02  0.00000000000E+00 0. -1.
         11    1    3    3    0    0  0.94516898108E+01  0.31700669824E+02  0.16420492092E+02  0.36931009577E+02  0.51100000000E-03 0. -1.
        -11    1    3    3    0    0 -0.61975459006E-01 -0.48419857028E+00  0.13140177896E+01  0.14017604023E+01  0.51100000000E-03 0.  1.
         12    1    3    3    0    0 -0.22431896417E+02 -0.25061331883E+02 -0.57889490697E+01  0.34128760070E+02  0.00000000000E+00 0. -1.
</event>
<event>
 7    1  0.2153242E-013  0.7246160E+02  0.7816164E-02  0.1226708E+00
        -11   -1    0    0    0    0  0.00000000000E+00  0.00000000000E+00  0.45593999997E+02  0.45594000000E+02  0.51100000000E-03 0.  1.
         11   -1    0    0    0    0 -0.00000000000E+00 -0.00000000000E+00 -0.45593999997E+02  0.45594000000E+02  0.51100000000E-03 0. -1.
    9900012    2    1    2    0    0  0.10484813593E+02 -0.14743189518E+02 -0.48358008168E+01  0.72461603583E+02  0.70000043365E+02 0.  0.
         12    1    1    2    0    0 -0.10484813593E+02  0.14743189518E+02  0.48358008168E+01  0.18726396417E+02  0.00000000000E+00 0. -1.
         11    1    3    3    0    0  0.34369667490E+01  0.75800928141E+01 -0.81164610827E+01  0.11625295191E+02  0.51100000000E-03 0. -1.
        -11    1    3    3    0    0 -0.17456834083E+01 -0.45680897177E+01  0.28414295210E+02  0.28832048605E+02  0.51100000000E-03 0.  1.
         12    1    3    3    0    0  0.87935302520E+01 -0.17755192614E+02 -0.25133634944E+02  0.32004259787E+02  0.00000000000E+00 0. -1.
</event>
<event>
 7    1  0.2153242E-013  0.7246157E+02  0.7816164E-02  0.1226708E+00
        -11   -1    0    0    0    0  0.00000000000E+00  0.00000000000E+00  0.45593999997E+02  0.45594000000E+02  0.51100000000E-03 0. -1.
         11   -1    0    0    0    0 -0.00000000000E+00 -0.00000000000E+00 -0.45593999997E+02  0.45594000000E+02  0.51100000000E-03 0.  1.
    9900012    2    1    2    0    0 -0.60156296371E+01 -0.14703063415E+02 -0.99152117180E+01  0.72461566887E+02  0.69999995562E+02 0.  0.
         12    1    1    2    0    0  0.60156296371E+01  0.14703063415E+02  0.99152117180E+01  0.18726433113E+02  0.00000000000E+00 0. -1.
         11    1    3    3    0    0 -0.15647439806E+02 -0.69037554622E+01  0.17191999841E+02  0.24250135479E+02  0.51100000000E-03 0. -1.
        -11    1    3    3    0    0 -0.77002727673E+01  0.68928648626E+01  0.27477240834E+01  0.10693725946E+02  0.51100000000E-03 0.  1.
        -12    1    3    3    0    0  0.17332082936E+02 -0.14692172815E+02 -0.29854935642E+02  0.37517705462E+02  0.00000000000E+00 0.  1.
</event>
<event>
 7    1  0.2153242E-013  0.7246156E+02  0.7816164E-02  0.1226708E+00
        -11   -1    0    0    0    0  0.00000000000E+00  0.00000000000E+00  0.45593999997E+02  0.45594000000E+02  0.51100000000E-03 0.  1.
         11   -1    0    0    0    0 -0.00000000000E+00 -0.00000000000E+00 -0.45593999997E+02  0.45594000000E+02  0.51100000000E-03 0. -1.
    9900012    2    1    2    0    0  0.23632740350E+01 -0.37915864053E+01  0.18185668359E+02  0.72461555455E+02  0.69999980669E+02 0.  0.
         12    1    1    2    0    0 -0.23632740350E+01  0.37915864053E+01 -0.18185668359E+02  0.18726444545E+02  0.00000000000E+00 0. -1.
         11    1    3    3    0    0 -0.14452930411E+02 -0.25850474259E+01 -0.67612882783E+01  0.16164302865E+02  0.51100000000E-03 0. -1.
        -11    1    3    3    0    0 -0.53001612470E+01  0.95778998452E+01  0.29328291012E+02  0.31304576800E+02  0.51100000000E-03 0.  1.
         12    1    3    3    0    0  0.22116365693E+02 -0.10784438825E+02 -0.43813343746E+01  0.24992675790E+02  0.00000000000E+00 0. -1.
</event>
<event>
 7    1  0.2153242E-013  0.7246144E+02  0.7816164E-02  0.1226708E+00
        -11   -1    0    0    0    0  0.00000000000E+00  0.00000000000E+00  0.45593999997E+02  0.45594000000E+02  0.51100000000E-03 0. -1.
         11   -1    0    0    0    0 -0.00000000000E+00 -0.00000000000E+00 -0.45593999997E+02  0.45594000000E+02  0.51100000000E-03 0.  1.
    9900012    2    1    2    0    0  0.15928195977E+02  0.77824751304E+01 -0.60340316364E+01  0.72461444416E+02  0.69999836021E+02 0.  0.
         12    1    1    2    0    0 -0.15928195977E+02 -0.77824751304E+01  0.60340316364E+01  0.18726555584E+02  0.00000000000E+00 0. -1.
         11    1    3    3    0    0 -0.64627399555E-01 -0.34666981042E+01 -0.56953640198E+01  0.66677840417E+01  0.51100000000E-03 0. -1.
        -11    1    3    3    0    0  0.14487084359E+02 -0.22135531454E+02  0.13407448880E+02  0.29658338654E+02  0.51100000000E-03 0.  1.
         12    1    3    3    0    0  0.15057390172E+01  0.33384704689E+02 -0.13746116496E+02  0.36135321721E+02  0.00000000000E+00 0. -1.
</event>
<event>
 7    1  0.2153242E-013  0.7246157E+02  0.7816164E-02  0.1226708E+00
        -11   -1    0    0    0    0  0.00000000000E+00  0.00000000000E+00  0.45593999997E+02  0.45594000000E+02  0.51100000000E-03 0.  1.
         11   -1    0    0    0    0 -0.00000000000E+00 -0.00000000000E+00 -0.45593999997E+02  0.45594000000E+02  0.51100000000E-03 0. -1.
    9900012    2    1    2    0    0  0.27710055305E+01  0.45954632242E+01  0.17941085926E+02  0.72461566327E+02  0.69999994832E+02 0.  0.
         12    1    1    2    0    0 -0.27710055305E+01 -0.45954632242E+01 -0.17941085926E+02  0.18726433673E+02  0.00000000000E+00 0. -1.
         11    1    3    3    0    0 -0.28901901837E+01  0.19008993992E+01  0.11237648354E+02  0.11758033791E+02  0.51100000000E-03 0. -1.
        -11    1    3    3    0    0 -0.55346411695E+01 -0.70857883971E+01  0.30968127958E+02  0.32246947136E+02  0.51100000000E-03 0.  1.
         12    1    3    3    0    0  0.11195836884E+02  0.97803522221E+01 -0.24264690387E+02  0.28456585401E+02  0.00000000000E+00 0. -1.
</event>
<event>
 7    1  0.2153242E-013  0.7246160E+02  0.7816164E-02  0.1226708E+00
        -11   -1    0    0    0    0  0.00000000000E+00  0.00000000000E+00  0.45593999997E+02  0.45594000000E+02  0.51100000000E-03 0. -1.
         11   -1    0    0    0    0 -0.00000000000E+00 -0.00000000000E+00 -0.45593999997E+02  0.45594000000E+02  0.51100000000E-03 0.  1.
    9900012    2    1    2    0    0  0.31414993168E+01 -0.16586200734E+02 -0.81059883119E+01  0.72461598336E+02  0.70000036530E+02 0.  0.
         12    1    1    2    0    0 -0.31414993168E+01  0.16586200734E+02  0.81059883119E+01  0.18726401664E+02  0.00000000000E+00 0. -1.
         11    1    3    3    0    0  0.56113115581E+01 -0.98874070276E+01  0.17779076801E+02  0.21103156335E+02  0.51100000000E-03 0. -1.
        -11    1    3    3    0    0  0.10821191092E+02  0.11327381277E+02  0.17776507499E+01  0.15766032655E+02  0.51100000000E-03 0.  1.
        -12    1    3    3    0    0 -0.13291003333E+02 -0.18026174984E+02 -0.27662715863E+02  0.35592409346E+02  0.00000000000E+00 0.  1.
</event>
<event>
 7    1  0.2153242E-013  0.7246132E+02  0.7816164E-02  0.1226709E+00
        -11   -1    0    0    0    0  0.00000000000E+00  0.00000000000E+00  0.45593999997E+02  0.45594000000E+02  0.51100000000E-03 0.  1.
         11   -1    0    0    0    0 -0.00000000000E+00 -0.00000000000E+00 -0.45593999997E+02  0.45594000000E+02  0.51100000000E-03 0. -1.
    9900012    2    1    2    0    0 -0.85828147285E+01  0.93387174905E+01  0.13777239623E+02  0.72461316239E+02  0.69999669046E+02 0.  0.
         12    1    1    2    0    0  0.85828147285E+01 -0.93387174905E+01 -0.13777239623E+02  0.18726683761E+02  0.00000000000E+00 0. -1.
         11    1    3    3    0    0  0.11313424593E+02 -0.16529401391E+02 -0.65557729534E+01  0.21075883033E+02  0.51100000000E-03 0. -1.
        -11    1    3    3    0    0  0.95218813035E+01  0.76786791515E+01  0.25535251328E+01  0.12495952462E+02  0.51100000000E-03 0.  1.
        -12    1    3    3    0    0 -0.29418120625E+02  0.18189439730E+02  0.17779487444E+02  0.38889480744E+02  0.00000000000E+00 0.  1.
</event>
<event>
 7    1  0.2153242E-013  0.7246163E+02  0.7816164E-02  0.1226708E+00
        -11   -1    0    0    0    0  0.00000000000E+00  0.00000000000E+00  0.45593999997E+02  0.45594000000E+02  0.51100000000E-03 0.  1.
         11   -1    0    0    0    0 -0.00000000000E+00 -0.00000000000E+00 -0.45593999997E+02  0.45594000000E+02  0.51100000000E-03 0. -1.
    9900012    2    1    2    0    0  0.26288911676E+01 -0.13100352797E+02  0.13120459405E+02  0.72461634437E+02  0.70000083558E+02 0.  0.
         12    1    1    2    0    0 -0.26288911676E+01  0.13100352797E+02 -0.13120459405E+02  0.18726365563E+02  0.00000000000E+00 0. -1.
         11    1    3    3    0    0  0.55058761753E+01  0.12941157445E+01  0.13661952057E+02  0.14786424257E+02  0.51100000000E-03 0. -1.
        -11    1    3    3    0    0  0.23988241291E+02 -0.75964976018E+01  0.11245190111E+02  0.27560783678E+02  0.51100000000E-03 0.  1.
         12    1    3    3    0    0 -0.26865226299E+02 -0.67979709400E+01 -0.11786682763E+02  0.30114426502E+02  0.00000000000E+00 0. -1.
</event>
<event>
 7    1  0.2153242E-013  0.7246156E+02  0.7816164E-02  0.1226708E+00
        -11   -1    0    0    0    0  0.00000000000E+00  0.00000000000E+00  0.45593999997E+02  0.45594000000E+02  0.51100000000E-03 0. -1.
         11   -1    0    0    0    0 -0.00000000000E+00 -0.00000000000E+00 -0.45593999997E+02  0.45594000000E+02  0.51100000000E-03 0.  1.
    9900012    2    1    2    0    0  0.86243699296E+01 -0.98251882575E+01 -0.13407667441E+02  0.72461558074E+02  0.69999984081E+02 0.  0.
         12    1    1    2    0    0 -0.86243699296E+01  0.98251882575E+01  0.13407667441E+02  0.18726441926E+02  0.00000000000E+00 0. -1.
         11    1    3    3    0    0 -0.77476252170E+01 -0.22856469145E+02  0.10927132489E+02  0.26492378206E+02  0.51100000000E-03 0. -1.
        -11    1    3    3    0    0  0.49535410568E+01 -0.10769955397E+02 -0.35632829967E+01  0.12378468977E+02  0.51100000000E-03 0.  1.
        -12    1    3    3    0    0  0.11418454090E+02  0.23801236285E+02 -0.20771516933E+02  0.33590710891E+02  0.00000000000E+00 0.  1.
</event>
<event>
 7    1  0.2153242E-013  0.7246156E+02  0.7816164E-02  0.1226708E+00
        -11   -1    0    0    0    0  0.00000000000E+00  0.00000000000E+00  0.45593999997E+02  0.45594000000E+02  0.51100000000E-03 0. -1.
         11   -1    0    0    0    0 -0.00000000000E+00 -0.00000000000E+00 -0.45593999997E+02  0.45594000000E+02  0.51100000000E-03 0.  1.
    9900012    2    1    2    0    0 -0.17691231869E+02 -0.32422524106E+01  0.52141843982E+01  0.72461558676E+02  0.69999984865E+02 0.  0.
         12    1    1    2    0    0  0.17691231869E+02  0.32422524106E+01 -0.52141843982E+01  0.18726441324E+02  0.00000000000E+00 0. -1.
         11    1    3    3    0    0  0.78422359128E+01  0.69329036962E+01  0.12712924566E+02  0.16467673456E+02  0.51100000000E-03 0. -1.
        -11    1    3    3    0    0 -0.52831130639E+01  0.16366152558E+02  0.82582441774E+01  0.19077757477E+02  0.51100000000E-03 0.  1.
        -12    1    3    3    0    0 -0.20250354718E+02 -0.26541308665E+02 -0.15756984345E+02  0.36916127743E+02  0.00000000000E+00 0.  1.
</event>
<event>
 7    1  0.2153242E-013  0.7246163E+02  0.7816164E-02  0.1226708E+00
        -11   -1    0    0    0    0  0.00000000000E+00  0.00000000000E+00  0.45593999997E+02  0.45594000000E+02  0.51100000000E-03 0.  1.
         11   -1    0    0    0    0 -0.00000000000E+00 -0.00000000000E+00 -0.45593999997E+02  0.45594000000E+02  0.51100000000E-03 0. -1.
    9900012    2    1    2    0    0  0.10151470181E+02  0.78519506150E+01  0.13637138499E+02  0.72461627641E+02  0.70000074704E+02 0.  0.
         12    1    1    2    0    0 -0.10151470181E+02 -0.78519506150E+01 -0.13637138499E+02  0.18726372359E+02  0.00000000000E+00 0. -1.
         11    1    3    3    0    0 -0.43219033517E+01 -0.11847039325E+02 -0.71248083059E+01  0.14484270192E+02  0.51100000000E-03 0. -1.
        -11    1    3    3    0    0  0.24837813210E+02  0.82459654888E+01 -0.62081916547E+01  0.26897110547E+02  0.51100000000E-03 0.  1.
         12    1    3    3    0    0 -0.10364439677E+02  0.11453024451E+02  0.26970138460E+02  0.31080246901E+02  0.00000000000E+00 0. -1.
</event>
<event>
 7    1  0.2153242E-013  0.7246158E+02  0.7816164E-02  0.1226708E+00
        -11   -1    0    0    0    0  0.00000000000E+00  0.00000000000E+00  0.45593999997E+02  0.45594000000E+02  0.51100000000E-03 0.  1.
         11   -1    0    0    0    0 -0.00000000000E+00 -0.00000000000E+00 -0.45593999997E+02  0.45594000000E+02  0.51100000000E-03 0. -1.
    9900012    2    1    2    0    0 -0.13296458546E+01  0.18109078145E+02  0.45795249466E+01  0.72461582348E+02  0.70000015702E+02 0.  0.
         12    1    1    2    0    0  0.13296458546E+01 -0.18109078145E+02 -0.45795249466E+01  0.18726417652E+02  0.00000000000E+00 0. -1.
         11    1    3    3    0    0 -0.18426671101E+02  0.52966911393E+01 -0.83675463323E+01  0.20919201151E+02  0.51100000000E-03 0. -1.
        -11    1    3    3    0    0 -0.33604474735E+01  0.13605168262E+02  0.24359886091E+02  0.28103331853E+02  0.51100000000E-03 0.  1.
        -12    1    3    3    0    0  0.20457472720E+02 -0.79278125625E+00 -0.11412814812E+02  0.23439049344E+02  0.00000000000E+00 0.  1.
</event>
<event>
 7    1  0.2153242E-013  0.7246157E+02  0.7816164E-02  0.1226708E+00
        -11   -1    0    0    0    0  0.00000000000E+00  0.00000000000E+00  0.45593999997E+02  0.45594000000E+02  0.51100000000E-03 0. -1.
         11   -1    0    0    0    0 -0.00000000000E+00 -0.00000000000E+00 -0.45593999997E+02  0.45594000000E+02  0.51100000000E-03 0.  1.
    9900012    2    1    2    0    0 -0.15164157594E+02  0.37955672376E+01 -0.10311218424E+02  0.72461568637E+02  0.69999997841E+02 0.  0.
         12    1    1    2    0    0  0.15164157594E+02 -0.37955672376E+01  0.10311218424E+02  0.18726431363E+02  0.00000000000E+00 0. -1.
         11    1    3    3    0    0 -0.21564058603E+02 -0.35838074342E+00  0.68742669657E+01  0.22636090802E+02  0.51100000000E-03 0. -1.
        -11    1    3    3    0    0 -0.16694159974E+02  0.11185511271E+02  0.16615840946E+00  0.20095727121E+02  0.51100000000E-03 0.  1.
        -12    1    3    3    0    0  0.23094060983E+02 -0.70315632898E+01 -0.17351643799E+02  0.29729750714E+02  0.00000000000E+00 0.  1.
</event>
<event>
 7    1  0.2153242E-013  0.7246158E+02  0.7816164E-02  0.1226708E+00
        -11   -1    0    0    0    0  0.00000000000E+00  0.00000000000E+00  0.45593999997E+02  0.45594000000E+02  0.51100000000E-03 0.  1.
         11   -1    0    0    0    0 -0.00000000000E+00 -0.00000000000E+00 -0.45593999997E+02  0.45594000000E+02  0.51100000000E-03 0. -1.
    9900012    2    1    2    0    0 -0.18657697406E+02 -0.14867379948E+01  0.59893434169E+00  0.72461580569E+02  0.70000013385E+02 0.  0.
         12    1    1    2    0    0  0.18657697406E+02  0.14867379948E+01 -0.59893434169E+00  0.18726419431E+02  0.00000000000E+00 0. -1.
         11    1    3    3    0    0  0.34353971528E+01  0.78515722123E+01  0.38991130135E+01  0.94155309120E+01  0.51100000000E-03 0. -1.
        -11    1    3    3    0    0  0.22951096802E+01  0.11918069514E+02  0.19848799670E+02  0.23265484263E+02  0.51100000000E-03 0.  1.
         12    1    3    3    0    0 -0.24388204239E+02 -0.21256379721E+02 -0.23148978341E+02  0.39780565394E+02  0.00000000000E+00 0. -1.
</event>
<event>
 7    1  0.2153242E-013  0.7246163E+02  0.7816164E-02  0.1226708E+00
        -11   -1    0    0    0    0  0.00000000000E+00  0.00000000000E+00  0.45593999997E+02  0.45594000000E+02  0.51100000000E-03 0.  1.
         11   -1    0    0    0    0 -0.00000000000E+00 -0.00000000000E+00 -0.45593999997E+02  0.45594000000E+02  0.51100000000E-03 0. -1.
    9900012    2    1    2    0    0  0.10130728021E+02 -0.65769630775E+01  0.14310440531E+02  0.72461633515E+02  0.70000082356E+02 0.  0.
         12    1    1    2    0    0 -0.10130728021E+02  0.65769630775E+01 -0.14310440531E+02  0.18726366485E+02  0.00000000000E+00 0. -1.
         11    1    3    3    0    0 -0.18876557541E+01  0.49339948279E+00 -0.61473851505E+01  0.64495760904E+01  0.51100000000E-03 0. -1.
        -11    1    3    3    0    0 -0.19474052940E+02  0.33017990214E+01 -0.89573833661E+01  0.21688138042E+02  0.51100000000E-03 0.  1.
        -12    1    3    3    0    0  0.31492436715E+02 -0.10372161582E+02  0.29415209048E+02  0.44323919383E+02  0.00000000000E+00 0.  1.
</event>
<event>
 7    1  0.2153242E-013  0.7246160E+02  0.7816164E-02  0.1226708E+00
        -11   -1    0    0    0    0  0.00000000000E+00  0.00000000000E+00  0.45593999997E+02  0.45594000000E+02  0.51100000000E-03 0.  1.
         11   -1    0    0    0    0 -0.00000000000E+00 -0.00000000000E+00 -0.45593999997E+02  0.45594000000E+02  0.51100000000E-03 0. -1.
    9900012    2    1    2    0    0 -0.92692921010E+01  0.11617588016E+02  0.11392545751E+02  0.72461595485E+02  0.70000032816E+02 0.  0.
         12    1    1    2    0    0  0.92692921010E+01 -0.11617588016E+02 -0.11392545751E+02  0.18726404515E+02  0.00000000000E+00 0. -1.
         11    1    3    3    0    0 -0.13728382864E+02  0.24445120634E+02  0.35790431995E+01  0.28263792551E+02  0.51100000000E-03 0.  1.
        -11    1    3    3    0    0  0.22592638908E+02 -0.40290183136E+01  0.71287176623E+01  0.24030791439E+02  0.51100000000E-03 0. -1.
         12    1    3    3    0    0 -0.18133548146E+02 -0.87985143046E+01  0.68478488916E+00  0.20167011496E+02  0.00000000000E+00 0. -1.
</event>
<event>
 7    1  0.2565224E-013  0.7246159E+02  0.7816164E-02  0.1226708E+00
        -11   -1    0    0    0    0  0.00000000000E+00  0.00000000000E+00  0.45593999997E+02  0.45594000000E+02  0.51100000000E-03 0. -1.
         11   -1    0    0    0    0 -0.00000000000E+00 -0.00000000000E+00 -0.45593999997E+02  0.45594000000E+02  0.51100000000E-03 0.  1.
    9900012    2    1    2    0    0  0.69339057504E+01  0.80769729292E+01 -0.15406550175E+02  0.72461592738E+02  0.70000029237E+02 0.  0.
         12    1    1    2    0    0 -0.69339057504E+01 -0.80769729292E+01  0.15406550175E+02  0.18726407262E+02  0.00000000000E+00 0. -1.
         11    1    3    3    0    0  0.29868061723E+01 -0.21355793250E+01 -0.67633534253E+01  0.76957559720E+01  0.51100000000E-03 0.  1.
        -11    1    3    3    0    0  0.32580191815E+02 -0.57396648979E+00 -0.10155340162E+02  0.34131060198E+02  0.51100000000E-03 0. -1.
         12    1    3    3    0    0 -0.28633092236E+02  0.10786518744E+02  0.15121434117E+01  0.30634776567E+02  0.00000000000E+00 0. -1.
</event>
<event>
 7    1  0.3451125E-013  0.7246162E+02  0.7816164E-02  0.1226708E+00
        -11   -1    0    0    0    0  0.00000000000E+00  0.00000000000E+00  0.45593999997E+02  0.45594000000E+02  0.51100000000E-03 0. -1.
         11   -1    0    0    0    0 -0.00000000000E+00 -0.00000000000E+00 -0.45593999997E+02  0.45594000000E+02  0.51100000000E-03 0.  1.
    9900012    2    1    2    0    0 -0.93250867172E+01  0.70036017124E+01 -0.14651614141E+02  0.72461615507E+02  0.70000058898E+02 0.  0.
         12    1    1    2    0    0  0.93250867172E+01 -0.70036017124E+01  0.14651614141E+02  0.18726384493E+02  0.00000000000E+00 0. -1.
         11    1    3    3    0    0  0.15420216529E+01 -0.52523412872E+01  0.10381875330E+02  0.11736620272E+02  0.51100000000E-03 0. -1.
        -11    1    3    3    0    0 -0.53321495522E+01 -0.14925980662E+02 -0.28658460904E+02  0.32749413723E+02  0.51100000000E-03 0.  1.
         12    1    3    3    0    0 -0.55349588179E+01  0.27181923662E+02  0.36249714323E+01  0.27975581512E+02  0.00000000000E+00 0. -1.
</event>
<event>
 7    1  0.2153242E-013  0.7246164E+02  0.7816164E-02  0.1226708E+00
        -11   -1    0    0    0    0  0.00000000000E+00  0.00000000000E+00  0.45593999997E+02  0.45594000000E+02  0.51100000000E-03 0. -1.
         11   -1    0    0    0    0 -0.00000000000E+00 -0.00000000000E+00 -0.45593999997E+02  0.45594000000E+02  0.51100000000E-03 0.  1.
    9900012    2    1    2    0    0  0.10558116269E+02  0.70374225446E+01 -0.13772341412E+02  0.72461640952E+02  0.70000092045E+02 0.  0.
         12    1    1    2    0    0 -0.10558116269E+02 -0.70374225446E+01  0.13772341412E+02  0.18726359048E+02  0.00000000000E+00 0. -1.
         11    1    3    3    0    0 -0.10744242904E+01 -0.31879510332E+01  0.13036921527E+02  0.13463979446E+02  0.51100000000E-03 0. -1.
        -11    1    3    3    0    0 -0.17140133337E+02  0.14534268978E+02 -0.60993930716E+01  0.23285870000E+02  0.51100000000E-03 0.  1.
        -12    1    3    3    0    0  0.28772673896E+02 -0.43088953997E+01 -0.20709869868E+02  0.35711791507E+02  0.00000000000E+00 0.  1.
</event>
<event>
 7    1  0.2153242E-013  0.7246160E+02  0.7816164E-02  0.1226708E+00
        -11   -1    0    0    0    0  0.00000000000E+00  0.00000000000E+00  0.45593999997E+02  0.45594000000E+02  0.51100000000E-03 0.  1.
         11   -1    0    0    0    0 -0.00000000000E+00 -0.00000000000E+00 -0.45593999997E+02  0.45594000000E+02  0.51100000000E-03 0. -1.
    9900012    2    1    2    0    0 -0.83994654778E+00 -0.87164725736E+01  0.16552816027E+02  0.72461598243E+02  0.70000036409E+02 0.  0.
         12    1    1    2    0    0  0.83994654778E+00  0.87164725736E+01 -0.16552816027E+02  0.18726401757E+02  0.00000000000E+00 0. -1.
         11    1    3    3    0    0 -0.34248291485E+01  0.14181537155E+02  0.10032789708E+01  0.14623680102E+02  0.51100000000E-03 0. -1.
        -11    1    3    3    0    0 -0.10886728397E+02 -0.13163754281E+01 -0.14682434576E+02  0.18325599166E+02  0.51100000000E-03 0.  1.
        -12    1    3    3    0    0  0.13471610997E+02 -0.21581634301E+02  0.30231971632E+02  0.39512318975E+02  0.00000000000E+00 0.  1.
</event>
<event>
 7    1  0.2153242E-013  0.7246158E+02  0.7816164E-02  0.1226708E+00
        -11   -1    0    0    0    0  0.00000000000E+00  0.00000000000E+00  0.45593999997E+02  0.45594000000E+02  0.51100000000E-03 0.  1.
         11   -1    0    0    0    0 -0.00000000000E+00 -0.00000000000E+00 -0.45593999997E+02  0.45594000000E+02  0.51100000000E-03 0. -1.
    9900012    2    1    2    0    0  0.77556072685E+01  0.17044642145E+02 -0.96949780788E-01  0.72461583652E+02  0.70000017401E+02 0.  0.
         12    1    1    2    0    0 -0.77556072685E+01 -0.17044642145E+02  0.96949780788E-01  0.18726416348E+02  0.00000000000E+00 0. -1.
         11    1    3    3    0    0  0.13394119449E+01 -0.45141686933E+00 -0.11613018994E+02  0.11698718390E+02  0.51100000000E-03 0. -1.
        -11    1    3    3    0    0 -0.17388310014E+02 -0.17521832377E+01 -0.12804415734E+02  0.21665099441E+02  0.51100000000E-03 0.  1.
        -12    1    3    3    0    0  0.23804505337E+02  0.19248242252E+02  0.24320484948E+02  0.39097765822E+02  0.00000000000E+00 0.  1.
</event>
<event>
 7    1  0.2153242E-013  0.7246158E+02  0.7816164E-02  0.1226708E+00
        -11   -1    0    0    0    0  0.00000000000E+00  0.00000000000E+00  0.45593999997E+02  0.45594000000E+02  0.51100000000E-03 0. -1.
         11   -1    0    0    0    0 -0.00000000000E+00 -0.00000000000E+00 -0.45593999997E+02  0.45594000000E+02  0.51100000000E-03 0.  1.
    9900012    2    1    2    0    0 -0.15814257560E+02 -0.92425159792E+01  0.38940816589E+01  0.72461582410E+02  0.70000015783E+02 0.  0.
         12    1    1    2    0    0  0.15814257560E+02  0.92425159792E+01 -0.38940816589E+01  0.18726417590E+02  0.00000000000E+00 0. -1.
         11    1    3    3    0    0  0.61473464101E+01 -0.16463321101E+02 -0.46225428046E+01  0.18171370664E+02  0.51100000000E-03 0. -1.
        -11    1    3    3    0    0  0.72582643264E+01  0.43173773431E+01 -0.14635280285E+02  0.16897147020E+02  0.51100000000E-03 0.  1.
         12    1    3    3    0    0 -0.29219868296E+02  0.29034277789E+01  0.23151904748E+02  0.37393064726E+02  0.00000000000E+00 0. -1.
</event>
<event>
 7    1  0.2153242E-013  0.7246162E+02  0.7816164E-02  0.1226708E+00
        -11   -1    0    0    0    0  0.00000000000E+00  0.00000000000E+00  0.45593999997E+02  0.45594000000E+02  0.51100000000E-03 0. -1.
         11   -1    0    0    0    0 -0.00000000000E+00 -0.00000000000E+00 -0.45593999997E+02  0.45594000000E+02  0.51100000000E-03 0.  1.
    9900012    2    1    2    0    0 -0.13860612150E+02 -0.62292762770E+01 -0.10943355854E+02  0.72461615153E+02  0.70000058436E+02 0.  0.
         12    1    1    2    0    0  0.13860612150E+02  0.62292762770E+01  0.10943355854E+02  0.18726384847E+02  0.00000000000E+00 0. -1.
         11    1    3    3    0    0 -0.15082500886E+01  0.13071487683E+02 -0.22680108095E+02  0.26220715323E+02  0.51100000000E-03 0. -1.
        -11    1    3    3    0    0  0.66635480870E+01  0.76282392199E+01  0.83015231172E+01  0.13096113661E+02  0.51100000000E-03 0.  1.
        -12    1    3    3    0    0 -0.19015910148E+02 -0.26929003180E+02  0.34352291242E+01  0.33144786169E+02  0.00000000000E+00 0.  1.
</event>
<event>
 7    1  0.2153242E-013  0.7246157E+02  0.7816164E-02  0.1226708E+00
        -11   -1    0    0    0    0  0.00000000000E+00  0.00000000000E+00  0.45593999997E+02  0.45594000000E+02  0.51100000000E-03 0.  1.
         11   -1    0    0    0    0 -0.00000000000E+00 -0.00000000000E+00 -0.45593999997E+02  0.45594000000E+02  0.51100000000E-03 0. -1.
    9900012    2    1    2    0    0 -0.18207933452E+02 -0.25653487290E+01  0.35453001555E+01  0.72461574610E+02  0.70000005622E+02 0.  0.
         12    1    1    2    0    0  0.18207933452E+02  0.25653487290E+01 -0.35453001555E+01  0.18726425390E+02  0.00000000000E+00 0. -1.
         11    1    3    3    0    0 -0.86093894926E+01  0.21690346244E+02 -0.18572766042E+02  0.29825162973E+02  0.51100000000E-03 0. -1.
        -11    1    3    3    0    0 -0.36389724067E+01 -0.45749060888E-01  0.16739065783E+02  0.17130106150E+02  0.51100000000E-03 0.  1.
        -12    1    3    3    0    0 -0.59595715527E+01 -0.24209945912E+02  0.53790004145E+01  0.25506305488E+02  0.00000000000E+00 0.  1.
</event>
<event>
 7    1  0.2153242E-013  0.7246162E+02  0.7816164E-02  0.1226708E+00
        -11   -1    0    0    0    0  0.00000000000E+00  0.00000000000E+00  0.45593999997E+02  0.45594000000E+02  0.51100000000E-03 0.  1.
         11   -1    0    0    0    0 -0.00000000000E+00 -0.00000000000E+00 -0.45593999997E+02  0.45594000000E+02  0.51100000000E-03 0. -1.
    9900012    2    1    2    0    0  0.58548825472E+01  0.16244413913E+02 -0.72468512685E+01  0.72461615236E+02  0.70000058545E+02 0.  0.
         12    1    1    2    0    0 -0.58548825472E+01 -0.16244413913E+02  0.72468512685E+01  0.18726384764E+02  0.00000000000E+00 0. -1.
         11    1    3    3    0    0 -0.21332530625E+01  0.82844351894E+01  0.77198977634E+01  0.11522996866E+02  0.51100000000E-03 0.  1.
        -11    1    3    3    0    0  0.25152555619E+02 -0.46234442321E+01  0.10590481288E+02  0.27680057530E+02  0.51100000000E-03 0. -1.
         12    1    3    3    0    0 -0.17164420009E+02  0.12583422956E+02 -0.25557230320E+02  0.33258560840E+02  0.00000000000E+00 0. -1.
</event>
<event>
 7    1  0.2153242E-013  0.7246155E+02  0.7816164E-02  0.1226708E+00
        -11   -1    0    0    0    0  0.00000000000E+00  0.00000000000E+00  0.45593999997E+02  0.45594000000E+02  0.51100000000E-03 0.  1.
         11   -1    0    0    0    0 -0.00000000000E+00 -0.00000000000E+00 -0.45593999997E+02  0.45594000000E+02  0.51100000000E-03 0. -1.
    9900012    2    1    2    0    0 -0.77842245055E+01  0.16021214596E+02  0.57798318257E+01  0.72461550144E+02  0.69999973750E+02 0.  0.
         12    1    1    2    0    0  0.77842245055E+01 -0.16021214596E+02 -0.57798318257E+01  0.18726449856E+02  0.00000000000E+00 0. -1.
         11    1    3    3    0    0 -0.57129099503E+01 -0.92538303005E+01 -0.10329646268E+02  0.14999076892E+02  0.51100000000E-03 0. -1.
        -11    1    3    3    0    0 -0.10122788458E+02 -0.12663569567E+02  0.27585387122E+01  0.16445253918E+02  0.51100000000E-03 0.  1.
        -12    1    3    3    0    0  0.80514739025E+01  0.37938614464E+02  0.13350939382E+02  0.41017219333E+02  0.00000000000E+00 0.  1.
</event>
<event>
 7    1  0.2153242E-013  0.7246148E+02  0.7816164E-02  0.1226708E+00
        -11   -1    0    0    0    0  0.00000000000E+00  0.00000000000E+00  0.45593999997E+02  0.45594000000E+02  0.51100000000E-03 0. -1.
         11   -1    0    0    0    0 -0.00000000000E+00 -0.00000000000E+00 -0.45593999997E+02  0.45594000000E+02  0.51100000000E-03 0.  1.
    9900012    2    1    2    0    0  0.82534017320E+01  0.12689581673E+02 -0.11024440787E+02  0.72461483563E+02  0.69999887016E+02 0.  0.
         12    1    1    2    0    0 -0.82534017320E+01 -0.12689581673E+02  0.11024440787E+02  0.18726516437E+02  0.00000000000E+00 0. -1.
         11    1    3    3    0    0 -0.43459702340E+01 -0.17077632252E+02  0.46891663313E+01  0.18235165526E+02  0.51100000000E-03 0. -1.
        -11    1    3    3    0    0  0.13262612291E+01  0.55979987150E+01 -0.25254960087E+02  0.25901922085E+02  0.51100000000E-03 0.  1.
        -12    1    3    3    0    0  0.11273110737E+02  0.24169215210E+02  0.95413529684E+01  0.28324395952E+02  0.00000000000E+00 0.  1.
</event>
<event>
 7    1  0.2153242E-013  0.7246150E+02  0.7816164E-02  0.1226708E+00
        -11   -1    0    0    0    0  0.00000000000E+00  0.00000000000E+00  0.45593999997E+02  0.45594000000E+02  0.51100000000E-03 0. -1.
         11   -1    0    0    0    0 -0.00000000000E+00 -0.00000000000E+00 -0.45593999997E+02  0.45594000000E+02  0.51100000000E-03 0.  1.
    9900012    2    1    2    0    0  0.14614982527E+02 -0.45007295779E+01 -0.10808679857E+02  0.72461498959E+02  0.69999907072E+02 0.  0.
         12    1    1    2    0    0 -0.14614982527E+02  0.45007295779E+01  0.10808679857E+02  0.18726501041E+02  0.00000000000E+00 0. -1.
         11    1    3    3    0    0 -0.13326646806E+02  0.54352365172E+01  0.12328153490E+02  0.18950585211E+02  0.51100000000E-03 0. -1.
        -11    1    3    3    0    0 -0.88774989812E+01  0.41258566480E+00 -0.14914087349E+00  0.88883327094E+01  0.51100000000E-03 0.  1.
        -12    1    3    3    0    0  0.36819128314E+02 -0.10348551760E+02 -0.22987692474E+02  0.44622581039E+02  0.00000000000E+00 0.  1.
</event>
<event>
 7    1  0.2153242E-013  0.7246157E+02  0.7816164E-02  0.1226708E+00
        -11   -1    0    0    0    0  0.00000000000E+00  0.00000000000E+00  0.45593999997E+02  0.45594000000E+02  0.51100000000E-03 0. -1.
         11   -1    0    0    0    0 -0.00000000000E+00 -0.00000000000E+00 -0.45593999997E+02  0.45594000000E+02  0.51100000000E-03 0.  1.
    9900012    2    1    2    0    0 -0.75635810028E+01  0.10861798416E+02 -0.13247372588E+02  0.72461566733E+02  0.69999995360E+02 0.  0.
         12    1    1    2    0    0  0.75635810028E+01 -0.10861798416E+02  0.13247372588E+02  0.18726433267E+02  0.00000000000E+00 0. -1.
         11    1    3    3    0    0  0.40130627037E+01  0.16805862230E+02 -0.15362631581E+02  0.23120383364E+02  0.51100000000E-03 0. -1.
        -11    1    3    3    0    0 -0.57481503250E+00  0.20555001659E+02 -0.10415532693E+00  0.20563301149E+02  0.51100000000E-03 0.  1.
         12    1    3    3    0    0 -0.11001828674E+02 -0.26499065473E+02  0.22194143194E+01  0.28777882220E+02  0.00000000000E+00 0. -1.
</event>
<event>
 7    1  0.2153242E-013  0.7246161E+02  0.7816164E-02  0.1226708E+00
        -11   -1    0    0    0    0  0.00000000000E+00  0.00000000000E+00  0.45593999997E+02  0.45594000000E+02  0.51100000000E-03 0. -1.
         11   -1    0    0    0    0 -0.00000000000E+00 -0.00000000000E+00 -0.45593999997E+02  0.45594000000E+02  0.51100000000E-03 0.  1.
    9900012    2    1    2    0    0  0.10665659584E+02  0.15288106601E+02  0.17875509983E+01  0.72461605889E+02  0.70000046369E+02 0.  0.
         12    1    1    2    0    0 -0.10665659584E+02 -0.15288106601E+02 -0.17875509983E+01  0.18726394111E+02  0.00000000000E+00 0. -1.
         11    1    3    3    0    0  0.97138291318E+01  0.10540570167E+01  0.12649791844E+02  0.15983952782E+02  0.51100000000E-03 0. -1.
        -11    1    3    3    0    0 -0.46996477463E+01 -0.17895162402E+02  0.63897892669E+01  0.19574292668E+02  0.51100000000E-03 0.  1.
         12    1    3    3    0    0  0.56514781983E+01  0.32129211986E+02 -0.17252030112E+02  0.36903360439E+02  0.00000000000E+00 0. -1.
</event>
<event>
 7    1  0.2153242E-013  0.7246156E+02  0.7816164E-02  0.1226708E+00
        -11   -1    0    0    0    0  0.00000000000E+00  0.00000000000E+00  0.45593999997E+02  0.45594000000E+02  0.51100000000E-03 0.  1.
         11   -1    0    0    0    0 -0.00000000000E+00 -0.00000000000E+00 -0.45593999997E+02  0.45594000000E+02  0.51100000000E-03 0. -1.
    9900012    2    1    2    0    0  0.15268055157E+02  0.56070834231E+00  0.10828282634E+02  0.72461558615E+02  0.69999984786E+02 0.  0.
         12    1    1    2    0    0 -0.15268055157E+02 -0.56070834231E+00 -0.10828282634E+02  0.18726441385E+02  0.00000000000E+00 0. -1.
         11    1    3    3    0    0  0.74855351465E+01  0.17569698024E+01 -0.10118855838E+02  0.12708714453E+02  0.51100000000E-03 0. -1.
        -11    1    3    3    0    0  0.13702950238E+02  0.22200616900E+02  0.23971450815E+02  0.35429771244E+02  0.51100000000E-03 0.  1.
         12    1    3    3    0    0 -0.59204302272E+01 -0.23396878360E+02 -0.30243123429E+01  0.24323072918E+02  0.00000000000E+00 0. -1.
</event>
<event>
 7    1  0.2153242E-013  0.7246161E+02  0.7816164E-02  0.1226708E+00
        -11   -1    0    0    0    0  0.00000000000E+00  0.00000000000E+00  0.45593999997E+02  0.45594000000E+02  0.51100000000E-03 0. -1.
         11   -1    0    0    0    0 -0.00000000000E+00 -0.00000000000E+00 -0.45593999997E+02  0.45594000000E+02  0.51100000000E-03 0.  1.
    9900012    2    1    2    0    0 -0.16807894868E+02 -0.81638826587E+01 -0.12342449218E+01  0.72461610319E+02  0.70000052139E+02 0.  0.
         12    1    1    2    0    0  0.16807894868E+02  0.81638826587E+01  0.12342449218E+01  0.18726389681E+02  0.00000000000E+00 0. -1.
         11    1    3    3    0    0 -0.90377823289E+01 -0.22910101450E+02 -0.11428413186E+02  0.27150743748E+02  0.51100000000E-03 0. -1.
        -11    1    3    3    0    0 -0.17267480156E+02  0.59692326282E+01 -0.10377839647E+02  0.21011833930E+02  0.51100000000E-03 0.  1.
         12    1    3    3    0    0  0.94973676164E+01  0.87769861631E+01  0.20572007911E+02  0.24299032640E+02  0.00000000000E+00 0. -1.
</event>
<event>
 7    1  0.2153242E-013  0.7246160E+02  0.7816164E-02  0.1226708E+00
        -11   -1    0    0    0    0  0.00000000000E+00  0.00000000000E+00  0.45593999997E+02  0.45594000000E+02  0.51100000000E-03 0.  1.
         11   -1    0    0    0    0 -0.00000000000E+00 -0.00000000000E+00 -0.45593999997E+02  0.45594000000E+02  0.51100000000E-03 0. -1.
    9900012    2    1    2    0    0  0.78016813528E+01 -0.16167088647E+02  0.53326591492E+01  0.72461595090E+02  0.70000032301E+02 0.  0.
         12    1    1    2    0    0 -0.78016813528E+01  0.16167088647E+02 -0.53326591492E+01  0.18726404910E+02  0.00000000000E+00 0. -1.
         11    1    3    3    0    0 -0.25029349101E+02 -0.87446282401E+01  0.96234723657E+01  0.28205461529E+02  0.51100000000E-03 0. -1.
        -11    1    3    3    0    0 -0.29435575073E+01 -0.15236978859E+01 -0.71550979044E+01  0.78855318355E+01  0.51100000000E-03 0.  1.
        -12    1    3    3    0    0  0.35774587961E+02 -0.58987625215E+01  0.28642846879E+01  0.36370601725E+02  0.00000000000E+00 0.  1.
</event>
<event>
 7    1  0.2153242E-013  0.7246155E+02  0.7816164E-02  0.1226708E+00
        -11   -1    0    0    0    0  0.00000000000E+00  0.00000000000E+00  0.45593999997E+02  0.45594000000E+02  0.51100000000E-03 0. -1.
         11   -1    0    0    0    0 -0.00000000000E+00 -0.00000000000E+00 -0.45593999997E+02  0.45594000000E+02  0.51100000000E-03 0.  1.
    9900012    2    1    2    0    0 -0.10359044642E+02 -0.11828722113E+02 -0.10171109578E+02  0.72461549648E+02  0.69999973105E+02 0.  0.
         12    1    1    2    0    0  0.10359044642E+02  0.11828722113E+02  0.10171109578E+02  0.18726450352E+02  0.00000000000E+00 0. -1.
         11    1    3    3    0    0 -0.22564764883E+02  0.85673427445E+01  0.72237084425E+01  0.25194244181E+02  0.51100000000E-03 0. -1.
        -11    1    3    3    0    0 -0.41980780628E+01 -0.13747987088E+01  0.94943140326E+01  0.10471672747E+02  0.51100000000E-03 0.  1.
        -12    1    3    3    0    0  0.16403798304E+02 -0.19021266149E+02 -0.26889132053E+02  0.36795632720E+02  0.00000000000E+00 0.  1.
</event>
<event>
 7    1  0.2153242E-013  0.7246158E+02  0.7816164E-02  0.1226708E+00
        -11   -1    0    0    0    0  0.00000000000E+00  0.00000000000E+00  0.45593999997E+02  0.45594000000E+02  0.51100000000E-03 0. -1.
         11   -1    0    0    0    0 -0.00000000000E+00 -0.00000000000E+00 -0.45593999997E+02  0.45594000000E+02  0.51100000000E-03 0.  1.
    9900012    2    1    2    0    0 -0.27645725749E+00 -0.15203477177E+02 -0.10929628145E+02  0.72461577002E+02  0.70000008738E+02 0.  0.
         12    1    1    2    0    0  0.27645725749E+00  0.15203477177E+02  0.10929628145E+02  0.18726422998E+02  0.00000000000E+00 0. -1.
         11    1    3    3    0    0 -0.17351379392E+02 -0.13364700988E+02  0.15750524975E+01  0.21958287500E+02  0.51100000000E-03 0. -1.
        -11    1    3    3    0    0 -0.13690190903E+02 -0.77193638283E+01 -0.10926364916E+02  0.19141456460E+02  0.51100000000E-03 0.  1.
         12    1    3    3    0    0  0.30765113038E+02  0.58805876390E+01 -0.15783157269E+01  0.31361833042E+02  0.00000000000E+00 0. -1.
</event>
<event>
 7    1  0.2153242E-013  0.7246156E+02  0.7816164E-02  0.1226708E+00
        -11   -1    0    0    0    0  0.00000000000E+00  0.00000000000E+00  0.45593999997E+02  0.45594000000E+02  0.51100000000E-03 0. -1.
         11   -1    0    0    0    0 -0.00000000000E+00 -0.00000000000E+00 -0.45593999997E+02  0.45594000000E+02  0.51100000000E-03 0.  1.
    9900012    2    1    2    0    0 -0.99666494338E+00  0.18551761674E+02  0.23491530975E+01  0.72461555530E+02  0.69999980767E+02 0.  0.
         12    1    1    2    0    0  0.99666494338E+00 -0.18551761674E+02 -0.23491530975E+01  0.18726444470E+02  0.00000000000E+00 0. -1.
         11    1    3    3    0    0 -0.47661749997E+01  0.14177865940E+02  0.17964613632E+02  0.23376390866E+02  0.51100000000E-03 0. -1.
        -11    1    3    3    0    0  0.42432002668E+01 -0.47259508150E+01  0.15453360093E+02  0.16707653876E+02  0.51100000000E-03 0.  1.
        -12    1    3    3    0    0 -0.47369021040E+00  0.90998465489E+01 -0.31068820627E+02  0.32377510788E+02  0.00000000000E+00 0.  1.
</event>
<event>
 7    1  0.2153242E-013  0.7246159E+02  0.7816164E-02  0.1226708E+00
        -11   -1    0    0    0    0  0.00000000000E+00  0.00000000000E+00  0.45593999997E+02  0.45594000000E+02  0.51100000000E-03 0.  1.
         11   -1    0    0    0    0 -0.00000000000E+00 -0.00000000000E+00 -0.45593999997E+02  0.45594000000E+02  0.51100000000E-03 0. -1.
    9900012    2    1    2    0    0  0.25794561518E+01  0.16723757819E+02 -0.80212591903E+01  0.72461594348E+02  0.70000031335E+02 0.  0.
         12    1    1    2    0    0 -0.25794561518E+01 -0.16723757819E+02  0.80212591903E+01  0.18726405652E+02  0.00000000000E+00 0. -1.
         11    1    3    3    0    0  0.12911210367E+01 -0.97141697751E+01  0.13967660234E+02  0.17062462326E+02  0.51100000000E-03 0. -1.
        -11    1    3    3    0    0  0.71922618338E+01 -0.72924433714E+01  0.53735772194E+01  0.11566490090E+02  0.51100000000E-03 0.  1.
         12    1    3    3    0    0 -0.59039267187E+01  0.33730370966E+02 -0.27362496644E+02  0.43832641932E+02  0.00000000000E+00 0. -1.
</event>
<event>
 7    1  0.2153242E-013  0.7246153E+02  0.7816164E-02  0.1226708E+00
        -11   -1    0    0    0    0  0.00000000000E+00  0.00000000000E+00  0.45593999997E+02  0.45594000000E+02  0.51100000000E-03 0.  1.
         11   -1    0    0    0    0 -0.00000000000E+00 -0.00000000000E+00 -0.45593999997E+02  0.45594000000E+02  0.51100000000E-03 0. -1.
    9900012    2    1    2    0    0  0.83393576191E+01  0.11751539182E+02  0.11959808584E+02  0.72461532634E+02  0.69999950940E+02 0.  0.
         12    1    1    2    0    0 -0.83393576191E+01 -0.11751539182E+02 -0.11959808584E+02  0.18726467366E+02  0.00000000000E+00 0. -1.
         11    1    3    3    0    0 -0.83641946029E+01 -0.11924154731E+02 -0.32605286937E+01  0.14925691442E+02  0.51100000000E-03 0. -1.
        -11    1    3    3    0    0  0.17145940201E+02 -0.11014475585E+02  0.90514189116E+01  0.22298657412E+02  0.51100000000E-03 0.  1.
        -12    1    3    3    0    0 -0.44238797912E+00  0.34690169498E+02  0.61689183663E+01  0.35237183780E+02  0.00000000000E+00 0.  1.
</event>
<event>
 7    1  0.2153242E-013  0.7246167E+02  0.7816164E-02  0.1226708E+00
        -11   -1    0    0    0    0  0.00000000000E+00  0.00000000000E+00  0.45593999997E+02  0.45594000000E+02  0.51100000000E-03 0.  1.
         11   -1    0    0    0    0 -0.00000000000E+00 -0.00000000000E+00 -0.45593999997E+02  0.45594000000E+02  0.51100000000E-03 0. -1.
    9900012    2    1    2    0    0  0.71706732523E+01 -0.32961038399E+01  0.16982120735E+02  0.72461674144E+02  0.70000135283E+02 0.  0.
         12    1    1    2    0    0 -0.71706732523E+01  0.32961038399E+01 -0.16982120735E+02  0.18726325856E+02  0.00000000000E+00 0. -1.
         11    1    3    3    0    0 -0.22080910374E+01 -0.94736720752E+00 -0.19378547496E+02  0.19526937137E+02  0.51100000000E-03 0. -1.
        -11    1    3    3    0    0 -0.92737633176E+01 -0.79349136122E+01  0.60367685605E+00  0.12220064080E+02  0.51100000000E-03 0.  1.
        -12    1    3    3    0    0  0.18652527607E+02  0.55861769799E+01  0.35756991375E+02  0.40714672927E+02  0.00000000000E+00 0.  1.
</event>
<event>
 7    1  0.2153242E-013  0.7246159E+02  0.7816164E-02  0.1226708E+00
        -11   -1    0    0    0    0  0.00000000000E+00  0.00000000000E+00  0.45593999997E+02  0.45594000000E+02  0.51100000000E-03 0.  1.
         11   -1    0    0    0    0 -0.00000000000E+00 -0.00000000000E+00 -0.45593999997E+02  0.45594000000E+02  0.51100000000E-03 0. -1.
    9900012    2    1    2    0    0  0.10978335337E+02  0.58836769651E+01  0.13983450598E+02  0.72461591053E+02  0.70000027042E+02 0.  0.
         12    1    1    2    0    0 -0.10978335337E+02 -0.58836769651E+01 -0.13983450598E+02  0.18726408947E+02  0.00000000000E+00 0. -1.
         11    1    3    3    0    0  0.36800992945E+01 -0.41223977484E+01  0.33484092550E+02  0.33937026213E+02  0.51100000000E-03 0. -1.
        -11    1    3    3    0    0 -0.11737688848E+02  0.77120753352E+01 -0.86157542173E+01  0.16476670369E+02  0.51100000000E-03 0.  1.
        -12    1    3    3    0    0  0.19035924891E+02  0.22939993783E+01 -0.10884887735E+02  0.22047894471E+02  0.00000000000E+00 0.  1.
</event>
<event>
 7    1  0.2153242E-013  0.7246160E+02  0.7816164E-02  0.1226708E+00
        -11   -1    0    0    0    0  0.00000000000E+00  0.00000000000E+00  0.45593999997E+02  0.45594000000E+02  0.51100000000E-03 0. -1.
         11   -1    0    0    0    0 -0.00000000000E+00 -0.00000000000E+00 -0.45593999997E+02  0.45594000000E+02  0.51100000000E-03 0.  1.
    9900012    2    1    2    0    0 -0.44898159381E+01  0.95689855403E+01 -0.15458136934E+02  0.72461603419E+02  0.70000043151E+02 0.  0.
         12    1    1    2    0    0  0.44898159381E+01 -0.95689855403E+01  0.15458136934E+02  0.18726396581E+02  0.00000000000E+00 0. -1.
         11    1    3    3    0    0 -0.16629796168E+02  0.28781763611E+01  0.15369343158E+02  0.22826535635E+02  0.51100000000E-03 0. -1.
        -11    1    3    3    0    0 -0.89791703689E+01 -0.69161249138E+01 -0.21972790220E+01  0.11544969454E+02  0.51100000000E-03 0.  1.
         12    1    3    3    0    0  0.21119150599E+02  0.13606934093E+02 -0.28630201070E+02  0.38090098329E+02  0.00000000000E+00 0. -1.
</event>
<event>
 7    1  0.2153242E-013  0.7246157E+02  0.7816164E-02  0.1226708E+00
        -11   -1    0    0    0    0  0.00000000000E+00  0.00000000000E+00  0.45593999997E+02  0.45594000000E+02  0.51100000000E-03 0.  1.
         11   -1    0    0    0    0 -0.00000000000E+00 -0.00000000000E+00 -0.45593999997E+02  0.45594000000E+02  0.51100000000E-03 0. -1.
    9900012    2    1    2    0    0  0.56002915550E+01 -0.17558570968E+02  0.33185318257E+01  0.72461565918E+02  0.69999994299E+02 0.  0.
         12    1    1    2    0    0 -0.56002915550E+01  0.17558570968E+02 -0.33185318257E+01  0.18726434082E+02  0.00000000000E+00 0. -1.
         11    1    3    3    0    0  0.29653460989E+00  0.10055810031E+01  0.83310337425E+01  0.83967404038E+01  0.51100000000E-03 0. -1.
        -11    1    3    3    0    0  0.32313200687E+02 -0.33152980665E+01  0.87337800648E+00  0.32494567689E+02  0.51100000000E-03 0.  1.
         12    1    3    3    0    0 -0.27009443742E+02 -0.15248853905E+02 -0.58858799233E+01  0.31570257825E+02  0.00000000000E+00 0. -1.
</event>
<event>
 7    1  0.2153242E-013  0.7246150E+02  0.7816164E-02  0.1226708E+00
        -11   -1    0    0    0    0  0.00000000000E+00  0.00000000000E+00  0.45593999997E+02  0.45594000000E+02  0.51100000000E-03 0.  1.
         11   -1    0    0    0    0 -0.00000000000E+00 -0.00000000000E+00 -0.45593999997E+02  0.45594000000E+02  0.51100000000E-03 0. -1.
    9900012    2    1    2    0    0  0.10398929288E+02 -0.37326293264E+01  0.15119908888E+02  0.72461497475E+02  0.69999905139E+02 0.  0.
         12    1    1    2    0    0 -0.10398929288E+02  0.37326293264E+01 -0.15119908888E+02  0.18726502525E+02  0.00000000000E+00 0. -1.
         11    1    3    3    0    0  0.11301945460E+02 -0.24827026764E+02 -0.11594176089E+02  0.29640177945E+02  0.51100000000E-03 0. -1.
        -11    1    3    3    0    0 -0.15243879183E+01 -0.60243698328E+01  0.64952313231E+01  0.89891501606E+01  0.51100000000E-03 0.  1.
        -12    1    3    3    0    0  0.62137174650E+00  0.27118767271E+02  0.20218853655E+02  0.33832169369E+02  0.00000000000E+00 0.  1.
</event>
<event>
 7    1  0.2153242E-013  0.7246183E+02  0.7816164E-02  0.1226707E+00
        -11   -1    0    0    0    0  0.00000000000E+00  0.00000000000E+00  0.45593999997E+02  0.45594000000E+02  0.51100000000E-03 0. -1.
         11   -1    0    0    0    0 -0.00000000000E+00 -0.00000000000E+00 -0.45593999997E+02  0.45594000000E+02  0.51100000000E-03 0.  1.
    9900012    2    1    2    0    0  0.93054517700E+01 -0.93350965400E+01 -0.13301649986E+02  0.72461832415E+02  0.70000341460E+02 0.  0.
         12    1    1    2    0    0 -0.93054517700E+01  0.93350965400E+01  0.13301649986E+02  0.18726167585E+02  0.00000000000E+00 0. -1.
         11    1    3    3    0    0 -0.24039664797E+00 -0.17563829783E+02 -0.11732909850E+02  0.21123614297E+02  0.51100000000E-03 0. -1.
        -11    1    3    3    0    0  0.17147561379E+01 -0.98337688463E+01 -0.21264168292E+02  0.23490599221E+02  0.51100000000E-03 0.  1.
         12    1    3    3    0    0  0.78310922801E+01  0.18062502089E+02  0.19695428156E+02  0.27847618897E+02  0.00000000000E+00 0. -1.
</event>
<event>
 7    1  0.2153242E-013  0.7246161E+02  0.7816164E-02  0.1226708E+00
        -11   -1    0    0    0    0  0.00000000000E+00  0.00000000000E+00  0.45593999997E+02  0.45594000000E+02  0.51100000000E-03 0. -1.
         11   -1    0    0    0    0 -0.00000000000E+00 -0.00000000000E+00 -0.45593999997E+02  0.45594000000E+02  0.51100000000E-03 0.  1.
    9900012    2    1    2    0    0 -0.10209620886E+02  0.10319465815E+02 -0.11830037564E+02  0.72461614280E+02  0.70000057300E+02 0.  0.
         12    1    1    2    0    0  0.10209620886E+02 -0.10319465815E+02  0.11830037564E+02  0.18726385720E+02  0.00000000000E+00 0. -1.
         11    1    3    3    0    0  0.66781878729E+01  0.32443278289E+01  0.98427390128E+01  0.12328964590E+02  0.51100000000E-03 0. -1.
        -11    1    3    3    0    0 -0.19442539252E+02 -0.50187750508E+01  0.12595429121E+02  0.23703275524E+02  0.51100000000E-03 0.  1.
        -12    1    3    3    0    0  0.25547304928E+01  0.12093913037E+02 -0.34268205698E+02  0.36429374167E+02  0.00000000000E+00 0.  1.
</event>
<event>
 7    1  0.2153242E-013  0.7246157E+02  0.7816164E-02  0.1226708E+00
        -11   -1    0    0    0    0  0.00000000000E+00  0.00000000000E+00  0.45593999997E+02  0.45594000000E+02  0.51100000000E-03 0. -1.
         11   -1    0    0    0    0 -0.00000000000E+00 -0.00000000000E+00 -0.45593999997E+02  0.45594000000E+02  0.51100000000E-03 0.  1.
    9900012    2    1    2    0    0 -0.17946399537E+02 -0.36613572835E+01 -0.38987439101E+01  0.72461574886E+02  0.70000005981E+02 0.  0.
         12    1    1    2    0    0  0.17946399537E+02  0.36613572835E+01  0.38987439101E+01  0.18726425114E+02  0.00000000000E+00 0. -1.
         11    1    3    3    0    0  0.27839872212E+01 -0.76152000273E+01  0.47995981318E+01  0.94222077451E+01  0.51100000000E-03 0. -1.
        -11    1    3    3    0    0  0.50829234081E+01  0.26828280824E+02 -0.83279294207E+01  0.28547279574E+02  0.51100000000E-03 0.  1.
         12    1    3    3    0    0 -0.25813310166E+02 -0.22874438080E+02 -0.37041262117E+00  0.34492087567E+02  0.00000000000E+00 0. -1.
</event>
<event>
 7    1  0.2153242E-013  0.7246165E+02  0.7816164E-02  0.1226708E+00
        -11   -1    0    0    0    0  0.00000000000E+00  0.00000000000E+00  0.45593999997E+02  0.45594000000E+02  0.51100000000E-03 0. -1.
         11   -1    0    0    0    0 -0.00000000000E+00 -0.00000000000E+00 -0.45593999997E+02  0.45594000000E+02  0.51100000000E-03 0.  1.
    9900012    2    1    2    0    0 -0.10451727111E+02  0.13120312759E+02 -0.83243626002E+01  0.72461649069E+02  0.70000102618E+02 0.  0.
         12    1    1    2    0    0  0.10451727111E+02 -0.13120312759E+02  0.83243626002E+01  0.18726350931E+02  0.00000000000E+00 0. -1.
         11    1    3    3    0    0 -0.80084132361E+00  0.23200528827E+01 -0.71273139014E+01  0.75380764068E+01  0.51100000000E-03 0. -1.
        -11    1    3    3    0    0 -0.33987026048E+02  0.60286262091E+01 -0.13716625176E+02  0.37143075802E+02  0.51100000000E-03 0.  1.
         12    1    3    3    0    0  0.24336140260E+02  0.47716336674E+01  0.12519576477E+02  0.27780496860E+02  0.00000000000E+00 0. -1.
</event>
<event>
 7    1  0.2153242E-013  0.7246157E+02  0.7816164E-02  0.1226708E+00
        -11   -1    0    0    0    0  0.00000000000E+00  0.00000000000E+00  0.45593999997E+02  0.45594000000E+02  0.51100000000E-03 0. -1.
         11   -1    0    0    0    0 -0.00000000000E+00 -0.00000000000E+00 -0.45593999997E+02  0.45594000000E+02  0.51100000000E-03 0.  1.
    9900012    2    1    2    0    0 -0.17882451010E+02 -0.26761397057E+01 -0.48719115633E+01  0.72461566807E+02  0.69999995457E+02 0.  0.
         12    1    1    2    0    0  0.17882451010E+02  0.26761397057E+01  0.48719115633E+01  0.18726433193E+02  0.00000000000E+00 0. -1.
         11    1    3    3    0    0  0.35079711221E+01  0.15386586911E+02 -0.10265836778E+02  0.18826585542E+02  0.51100000000E-03 0. -1.
        -11    1    3    3    0    0 -0.13362495522E+02  0.12608374375E+02  0.11037122205E+02  0.21432346064E+02  0.51100000000E-03 0.  1.
         12    1    3    3    0    0 -0.80279266095E+01 -0.30671100991E+02 -0.56431969901E+01  0.32202635202E+02  0.00000000000E+00 0. -1.
</event>
<event>
 7    1  0.2153242E-013  0.7246159E+02  0.7816164E-02  0.1226708E+00
        -11   -1    0    0    0    0  0.00000000000E+00  0.00000000000E+00  0.45593999997E+02  0.45594000000E+02  0.51100000000E-03 0.  1.
         11   -1    0    0    0    0 -0.00000000000E+00 -0.00000000000E+00 -0.45593999997E+02  0.45594000000E+02  0.51100000000E-03 0. -1.
    9900012    2    1    2    0    0  0.10998426627E+02  0.11828005696E+02  0.94768814072E+01  0.72461591155E+02  0.70000027175E+02 0.  0.
         12    1    1    2    0    0 -0.10998426627E+02 -0.11828005696E+02 -0.94768814072E+01  0.18726408845E+02  0.00000000000E+00 0. -1.
         11    1    3    3    0    0 -0.66150053279E+01  0.15381830217E+01 -0.23726504682E+02  0.24679370478E+02  0.51100000000E-03 0. -1.
        -11    1    3    3    0    0 -0.34152681649E+01  0.68246735874E+00 -0.31526594241E+01  0.46977739451E+01  0.51100000000E-03 0.  1.
        -12    1    3    3    0    0  0.21028700119E+02  0.96073553157E+01  0.36356045513E+02  0.43084446732E+02  0.00000000000E+00 0.  1.
</event>
<event>
 7    1  0.2153242E-013  0.7246155E+02  0.7816164E-02  0.1226708E+00
        -11   -1    0    0    0    0  0.00000000000E+00  0.00000000000E+00  0.45593999997E+02  0.45594000000E+02  0.51100000000E-03 0.  1.
         11   -1    0    0    0    0 -0.00000000000E+00 -0.00000000000E+00 -0.45593999997E+02  0.45594000000E+02  0.51100000000E-03 0. -1.
    9900012    2    1    2    0    0 -0.12659590188E+02 -0.10699035969E+01 -0.13757544772E+02  0.72461549306E+02  0.69999972659E+02 0.  0.
         12    1    1    2    0    0  0.12659590188E+02  0.10699035969E+01  0.13757544772E+02  0.18726450694E+02  0.00000000000E+00 0. -1.
         11    1    3    3    0    0 -0.24535063550E+02 -0.18301428248E+02 -0.30301594217E+01  0.30758632702E+02  0.51100000000E-03 0.  1.
        -11    1    3    3    0    0  0.32843591531E+01 -0.10478710939E+02 -0.68568921838E+00  0.11002752745E+02  0.51100000000E-03 0. -1.
         12    1    3    3    0    0  0.85911142089E+01  0.27710235590E+02 -0.10041696132E+02  0.30700163860E+02  0.00000000000E+00 0. -1.
</event>
<event>
 7    1  0.2153242E-013  0.7246162E+02  0.7816164E-02  0.1226708E+00
        -11   -1    0    0    0    0  0.00000000000E+00  0.00000000000E+00  0.45593999997E+02  0.45594000000E+02  0.51100000000E-03 0.  1.
         11   -1    0    0    0    0 -0.00000000000E+00 -0.00000000000E+00 -0.45593999997E+02  0.45594000000E+02  0.51100000000E-03 0. -1.
    9900012    2    1    2    0    0 -0.22196091587E+01 -0.13518900136E+02  0.12766754835E+02  0.72461618750E+02  0.70000063122E+02 0.  0.
         12    1    1    2    0    0  0.22196091587E+01  0.13518900136E+02 -0.12766754835E+02  0.18726381250E+02  0.00000000000E+00 0. -1.
         11    1    3    3    0    0  0.18006873077E+01 -0.59020058424E+01  0.31179025497E+02  0.31783765966E+02  0.51100000000E-03 0. -1.
        -11    1    3    3    0    0  0.17674815138E+01 -0.48197040502E+01  0.10164335722E+02  0.11387153242E+02  0.51100000000E-03 0.  1.
         12    1    3    3    0    0 -0.57877779803E+01 -0.27971902437E+01 -0.28576606384E+02  0.29290699542E+02  0.00000000000E+00 0. -1.
</event>
<event>
 7    1  0.2153242E-013  0.7246158E+02  0.7816164E-02  0.1226708E+00
        -11   -1    0    0    0    0  0.00000000000E+00  0.00000000000E+00  0.45593999997E+02  0.45594000000E+02  0.51100000000E-03 0. -1.
         11   -1    0    0    0    0 -0.00000000000E+00 -0.00000000000E+00 -0.45593999997E+02  0.45594000000E+02  0.51100000000E-03 0.  1.
    9900012    2    1    2    0    0 -0.63361800594E+01  0.11722788105E+02 -0.13157046473E+02  0.72461579878E+02  0.70000012485E+02 0.  0.
         12    1    1    2    0    0  0.63361800594E+01 -0.11722788105E+02  0.13157046473E+02  0.18726420122E+02  0.00000000000E+00 0. -1.
         11    1    3    3    0    0 -0.10939575873E+02 -0.16650307417E+02  0.96340178584E+01  0.22129648839E+02  0.51100000000E-03 0. -1.
        -11    1    3    3    0    0 -0.51099484896E+01 -0.66168773560E+01 -0.24603892148E+01  0.87148238571E+01  0.51100000000E-03 0.  1.
        -12    1    3    3    0    0  0.97133443030E+01  0.34989972878E+02 -0.20330675116E+02  0.41617107182E+02  0.00000000000E+00 0.  1.
</event>
<event>
 7    1  0.2153242E-013  0.7246148E+02  0.7816164E-02  0.1226708E+00
        -11   -1    0    0    0    0  0.00000000000E+00  0.00000000000E+00  0.45593999997E+02  0.45594000000E+02  0.51100000000E-03 0. -1.
         11   -1    0    0    0    0 -0.00000000000E+00 -0.00000000000E+00 -0.45593999997E+02  0.45594000000E+02  0.51100000000E-03 0.  1.
    9900012    2    1    2    0    0 -0.17663957758E+02  0.19030220903E+01  0.59199373652E+01  0.72461479897E+02  0.69999882241E+02 0.  0.
         12    1    1    2    0    0  0.17663957758E+02 -0.19030220903E+01 -0.59199373652E+01  0.18726520103E+02  0.00000000000E+00 0. -1.
         11    1    3    3    0    0 -0.21838967487E+02 -0.88562890686E+01  0.31663769436E+01  0.23778147535E+02  0.51100000000E-03 0.  1.
        -11    1    3    3    0    0 -0.46699171114E+01 -0.17577032686E+02 -0.30383691754E+01  0.18438869038E+02  0.51100000000E-03 0. -1.
         12    1    3    3    0    0  0.88449268408E+01  0.28336343845E+02  0.57919295970E+01  0.30244463325E+02  0.00000000000E+00 0. -1.
</event>
<event>
 7    1  0.2153242E-013  0.7246156E+02  0.7816164E-02  0.1226708E+00
        -11   -1    0    0    0    0  0.00000000000E+00  0.00000000000E+00  0.45593999997E+02  0.45594000000E+02  0.51100000000E-03 0. -1.
         11   -1    0    0    0    0 -0.00000000000E+00 -0.00000000000E+00 -0.45593999997E+02  0.45594000000E+02  0.51100000000E-03 0.  1.
    9900012    2    1    2    0    0  0.16010988127E+02 -0.85849442132E+01 -0.45416579604E+01  0.72461557066E+02  0.69999982767E+02 0.  0.
         12    1    1    2    0    0 -0.16010988127E+02  0.85849442132E+01  0.45416579604E+01  0.18726442934E+02  0.00000000000E+00 0. -1.
         11    1    3    3    0    0  0.16206229197E+01 -0.44710658322E+01  0.18073133560E+02  0.18688365505E+02  0.51100000000E-03 0. -1.
        -11    1    3    3    0    0  0.97638757088E+01 -0.20934811988E+02 -0.27248945672E+02  0.35722607160E+02  0.51100000000E-03 0.  1.
         12    1    3    3    0    0  0.46264894985E+01  0.16820933607E+02  0.46341541522E+01  0.18050584400E+02  0.00000000000E+00 0. -1.
</event>
<event>
 7    1  0.2153242E-013  0.7246158E+02  0.7816164E-02  0.1226708E+00
        -11   -1    0    0    0    0  0.00000000000E+00  0.00000000000E+00  0.45593999997E+02  0.45594000000E+02  0.51100000000E-03 0. -1.
         11   -1    0    0    0    0 -0.00000000000E+00 -0.00000000000E+00 -0.45593999997E+02  0.45594000000E+02  0.51100000000E-03 0.  1.
    9900012    2    1    2    0    0 -0.85114507306E+01 -0.38480206079E+01 -0.16230430286E+02  0.72461576866E+02  0.70000008561E+02 0.  0.
         12    1    1    2    0    0  0.85114507306E+01  0.38480206079E+01  0.16230430286E+02  0.18726423134E+02  0.00000000000E+00 0. -1.
         11    1    3    3    0    0 -0.37711522030E+01 -0.96287375468E+01 -0.60508128224E+01  0.11981089757E+02  0.51100000000E-03 0. -1.
        -11    1    3    3    0    0 -0.89857046526E+01 -0.22226872848E+02 -0.19239113576E+02  0.30739555237E+02  0.51100000000E-03 0.  1.
         12    1    3    3    0    0  0.42454061250E+01  0.28007589787E+02  0.90594961123E+01  0.29740931873E+02  0.00000000000E+00 0. -1.
</event>
<event>
 7    1  0.2153242E-013  0.7246159E+02  0.7816164E-02  0.1226708E+00
        -11   -1    0    0    0    0  0.00000000000E+00  0.00000000000E+00  0.45593999997E+02  0.45594000000E+02  0.51100000000E-03 0.  1.
         11   -1    0    0    0    0 -0.00000000000E+00 -0.00000000000E+00 -0.45593999997E+02  0.45594000000E+02  0.51100000000E-03 0. -1.
    9900012    2    1    2    0    0  0.47585234547E+01  0.83691317115E+01  0.16062144487E+02  0.72461590932E+02  0.70000026884E+02 0.  0.
         12    1    1    2    0    0 -0.47585234547E+01 -0.83691317115E+01 -0.16062144487E+02  0.18726409068E+02  0.00000000000E+00 0. -1.
         11    1    3    3    0    0 -0.21212208790E+02 -0.33305260450E+01  0.14918782539E+02  0.26146133141E+02  0.51100000000E-03 0. -1.
        -11    1    3    3    0    0 -0.64054454035E+01  0.18870145900E+01  0.93634055923E+01  0.11500605177E+02  0.51100000000E-03 0.  1.
         12    1    3    3    0    0  0.32376177649E+02  0.98126431665E+01 -0.82200436441E+01  0.34814852614E+02  0.00000000000E+00 0. -1.
</event>
<event>
 7    1  0.2153242E-013  0.7246152E+02  0.7816164E-02  0.1226708E+00
        -11   -1    0    0    0    0  0.00000000000E+00  0.00000000000E+00  0.45593999997E+02  0.45594000000E+02  0.51100000000E-03 0.  1.
         11   -1    0    0    0    0 -0.00000000000E+00 -0.00000000000E+00 -0.45593999997E+02  0.45594000000E+02  0.51100000000E-03 0. -1.
    9900012    2    1    2    0    0  0.22029451129E+01 -0.86613001307E+01  0.16456302669E+02  0.72461521830E+02  0.69999936866E+02 0.  0.
         12    1    1    2    0    0 -0.22029451129E+01  0.86613001307E+01 -0.16456302669E+02  0.18726478170E+02  0.00000000000E+00 0. -1.
         11    1    3    3    0    0  0.77213433564E+01 -0.28681633382E+01  0.13499507811E+02  0.15813987971E+02  0.51100000000E-03 0. -1.
        -11    1    3    3    0    0 -0.92589423469E+01 -0.21638094796E+02  0.21565783939E+02  0.31922064421E+02  0.51100000000E-03 0.  1.
         12    1    3    3    0    0  0.37405441034E+01  0.15844958003E+02 -0.18608989081E+02  0.24725469438E+02  0.00000000000E+00 0. -1.
</event>
<event>
 7    1  0.2153242E-013  0.7246155E+02  0.7816164E-02  0.1226708E+00
        -11   -1    0    0    0    0  0.00000000000E+00  0.00000000000E+00  0.45593999997E+02  0.45594000000E+02  0.51100000000E-03 0. -1.
         11   -1    0    0    0    0 -0.00000000000E+00 -0.00000000000E+00 -0.45593999997E+02  0.45594000000E+02  0.51100000000E-03 0.  1.
    9900012    2    1    2    0    0  0.34405339469E+01 -0.15108644606E+02 -0.10515297135E+02  0.72461551071E+02  0.69999974958E+02 0.  0.
         12    1    1    2    0    0 -0.34405339469E+01  0.15108644606E+02  0.10515297135E+02  0.18726448929E+02  0.00000000000E+00 0. -1.
         11    1    3    3    0    0  0.93766193463E+00  0.83384842503E+01  0.13234789154E+02  0.15670646882E+02  0.51100000000E-03 0. -1.
        -11    1    3    3    0    0  0.14609282059E+02  0.84888109176E+01 -0.11791776696E+02  0.20604296420E+02  0.51100000000E-03 0.  1.
         12    1    3    3    0    0 -0.12106410046E+02 -0.31935939774E+02 -0.11958309593E+02  0.36186607768E+02  0.00000000000E+00 0. -1.
</event>
<event>
 7    1  0.2153242E-013  0.7246131E+02  0.7816164E-02  0.1226709E+00
        -11   -1    0    0    0    0  0.00000000000E+00  0.00000000000E+00  0.45593999997E+02  0.45594000000E+02  0.51100000000E-03 0.  1.
         11   -1    0    0    0    0 -0.00000000000E+00 -0.00000000000E+00 -0.45593999997E+02  0.45594000000E+02  0.51100000000E-03 0. -1.
    9900012    2    1    2    0    0 -0.47024493105E+01  0.13840320940E+02  0.11705613398E+02  0.72461310536E+02  0.69999661616E+02 0.  0.
         12    1    1    2    0    0  0.47024493105E+01 -0.13840320940E+02 -0.11705613398E+02  0.18726689464E+02  0.00000000000E+00 0. -1.
         11    1    3    3    0    0  0.18800307377E+02 -0.15204085368E+02 -0.75697288381E+00  0.24190675426E+02  0.51100000000E-03 0. -1.
        -11    1    3    3    0    0 -0.12910891384E+02  0.68152317118E+01 -0.76452434929E+01  0.16479934706E+02  0.51100000000E-03 0.  1.
        -12    1    3    3    0    0 -0.10591865304E+02  0.22229174597E+02  0.20107829775E+02  0.31790700403E+02  0.00000000000E+00 0.  1.
</event>
<event>
 7    1  0.2153242E-013  0.7246162E+02  0.7816164E-02  0.1226708E+00
        -11   -1    0    0    0    0  0.00000000000E+00  0.00000000000E+00  0.45593999997E+02  0.45594000000E+02  0.51100000000E-03 0.  1.
         11   -1    0    0    0    0 -0.00000000000E+00 -0.00000000000E+00 -0.45593999997E+02  0.45594000000E+02  0.51100000000E-03 0. -1.
    9900012    2    1    2    0    0  0.54673027676E+01 -0.91207553580E+01  0.15414210990E+02  0.72461615451E+02  0.70000058824E+02 0.  0.
         12    1    1    2    0    0 -0.54673027676E+01  0.91207553580E+01 -0.15414210990E+02  0.18726384549E+02  0.00000000000E+00 0. -1.
         11    1    3    3    0    0 -0.17134581382E+02 -0.18227098755E+02 -0.69898359052E+01  0.25974580158E+02  0.51100000000E-03 0. -1.
        -11    1    3    3    0    0 -0.30252526076E+01 -0.81038450638E+01  0.55588932805E+00  0.86679565852E+01  0.51100000000E-03 0.  1.
         12    1    3    3    0    0  0.25627136757E+02  0.17210188460E+02  0.21848157567E+02  0.37819078707E+02  0.00000000000E+00 0. -1.
</event>
<event>
 7    1  0.2153242E-013  0.7246174E+02  0.7816164E-02  0.1226708E+00
        -11   -1    0    0    0    0  0.00000000000E+00  0.00000000000E+00  0.45593999997E+02  0.45594000000E+02  0.51100000000E-03 0.  1.
         11   -1    0    0    0    0 -0.00000000000E+00 -0.00000000000E+00 -0.45593999997E+02  0.45594000000E+02  0.51100000000E-03 0. -1.
    9900012    2    1    2    0    0  0.18130126908E+02  0.39730827764E+01  0.24871391008E+01  0.72461741715E+02  0.70000223307E+02 0.  0.
         12    1    1    2    0    0 -0.18130126908E+02 -0.39730827764E+01 -0.24871391008E+01  0.18726258285E+02  0.00000000000E+00 0. -1.
         11    1    3    3    0    0 -0.48606546139E+01 -0.55696866282E+01 -0.56811565906E+01  0.93232458339E+01  0.51100000000E-03 0. -1.
        -11    1    3    3    0    0 -0.17315939472E+02  0.11054906426E+02  0.98186190445E+01  0.22769672727E+02  0.51100000000E-03 0.  1.
        -12    1    3    3    0    0  0.40306720994E+02 -0.15121370217E+01 -0.16503233531E+01  0.40368823154E+02  0.00000000000E+00 0.  1.
</event>
<event>
 7    1  0.2153242E-013  0.7246156E+02  0.7816164E-02  0.1226708E+00
        -11   -1    0    0    0    0  0.00000000000E+00  0.00000000000E+00  0.45593999997E+02  0.45594000000E+02  0.51100000000E-03 0. -1.
         11   -1    0    0    0    0 -0.00000000000E+00 -0.00000000000E+00 -0.45593999997E+02  0.45594000000E+02  0.51100000000E-03 0.  1.
    9900012    2    1    2    0    0  0.17482891679E+02  0.36781218791E+01 -0.56124376192E+01  0.72461560454E+02  0.69999987181E+02 0.  0.
         12    1    1    2    0    0 -0.17482891679E+02 -0.36781218791E+01  0.56124376192E+01  0.18726439546E+02  0.00000000000E+00 0. -1.
         11    1    3    3    0    0  0.21484800750E+02 -0.18926964977E+02  0.12555183814E+02  0.31264345625E+02  0.51100000000E-03 0. -1.
        -11    1    3    3    0    0  0.19892978842E+01 -0.30219905231E+01 -0.14112093403E+02  0.14568490425E+02  0.51100000000E-03 0.  1.
         12    1    3    3    0    0 -0.59912069543E+01  0.25627077379E+02 -0.40555280306E+01  0.26628724404E+02  0.00000000000E+00 0. -1.
</event>
<event>
 7    1  0.2153242E-013  0.7246187E+02  0.7816164E-02  0.1226707E+00
        -11   -1    0    0    0    0  0.00000000000E+00  0.00000000000E+00  0.45593999997E+02  0.45594000000E+02  0.51100000000E-03 0. -1.
         11   -1    0    0    0    0 -0.00000000000E+00 -0.00000000000E+00 -0.45593999997E+02  0.45594000000E+02  0.51100000000E-03 0.  1.
    9900012    2    1    2    0    0  0.12932505771E+02  0.11787956676E+02 -0.66680205427E+01  0.72461865159E+02  0.70000384115E+02 0.  0.
         12    1    1    2    0    0 -0.12932505771E+02 -0.11787956676E+02  0.66680205427E+01  0.18726134841E+02  0.00000000000E+00 0. -1.
         11    1    3    3    0    0 -0.58964614408E+01 -0.15517963215E+02  0.29196205968E+01  0.16855255102E+02  0.51100000000E-03 0. -1.
        -11    1    3    3    0    0 -0.11366465261E+02  0.66685786679E+00 -0.10271075686E+02  0.15334152340E+02  0.51100000000E-03 0.  1.
         12    1    3    3    0    0  0.30195432473E+02  0.26639062025E+02  0.68343454694E+00  0.40272457717E+02  0.00000000000E+00 0. -1.
</event>
<event>
 7    1  0.2153242E-013  0.7246163E+02  0.7816164E-02  0.1226708E+00
        -11   -1    0    0    0    0  0.00000000000E+00  0.00000000000E+00  0.45593999997E+02  0.45594000000E+02  0.51100000000E-03 0. -1.
         11   -1    0    0    0    0 -0.00000000000E+00 -0.00000000000E+00 -0.45593999997E+02  0.45594000000E+02  0.51100000000E-03 0.  1.
    9900012    2    1    2    0    0 -0.79713689986E+01 -0.10223434627E+02 -0.13513533445E+02  0.72461630212E+02  0.70000078053E+02 0.  0.
         12    1    1    2    0    0  0.79713689986E+01  0.10223434627E+02  0.13513533445E+02  0.18726369788E+02  0.00000000000E+00 0. -1.
         11    1    3    3    0    0 -0.75557339826E+01 -0.91896850093E+01  0.56130052698E+01  0.13154666663E+02  0.51100000000E-03 0. -1.
        -11    1    3    3    0    0  0.14491097356E+02  0.86859501057E+01  0.13842658295E+02  0.21841630451E+02  0.51100000000E-03 0.  1.
        -12    1    3    3    0    0 -0.14906732372E+02 -0.97196997236E+01 -0.32969197010E+02  0.37465333098E+02  0.00000000000E+00 0.  1.
</event>
<event>
 7    1  0.2153242E-013  0.7246158E+02  0.7816164E-02  0.1226708E+00
        -11   -1    0    0    0    0  0.00000000000E+00  0.00000000000E+00  0.45593999997E+02  0.45594000000E+02  0.51100000000E-03 0.  1.
         11   -1    0    0    0    0 -0.00000000000E+00 -0.00000000000E+00 -0.45593999997E+02  0.45594000000E+02  0.51100000000E-03 0. -1.
    9900012    2    1    2    0    0  0.55908270140E+01  0.41314873751E+01  0.17388282732E+02  0.72461577197E+02  0.70000008992E+02 0.  0.
         12    1    1    2    0    0 -0.55908270140E+01 -0.41314873751E+01 -0.17388282732E+02  0.18726422803E+02  0.00000000000E+00 0. -1.
         11    1    3    3    0    0 -0.16104973893E+02  0.24838868050E+02  0.65533202168E+01  0.30319722232E+02  0.51100000000E-03 0. -1.
        -11    1    3    3    0    0  0.23063193038E+01 -0.14022503825E+01  0.14308596076E+02  0.14560952468E+02  0.51100000000E-03 0.  1.
         12    1    3    3    0    0  0.19389481603E+02 -0.19305130292E+02 -0.34736335606E+01  0.27580902497E+02  0.00000000000E+00 0. -1.
</event>
<event>
 7    1  0.2153242E-013  0.7246140E+02  0.7816164E-02  0.1226708E+00
        -11   -1    0    0    0    0  0.00000000000E+00  0.00000000000E+00  0.45593999997E+02  0.45594000000E+02  0.51100000000E-03 0.  1.
         11   -1    0    0    0    0 -0.00000000000E+00 -0.00000000000E+00 -0.45593999997E+02  0.45594000000E+02  0.51100000000E-03 0. -1.
    9900012    2    1    2    0    0 -0.63911482872E+01 -0.31959052657E+01  0.17309674049E+02  0.72461403871E+02  0.69999783203E+02 0.  0.
         12    1    1    2    0    0  0.63911482872E+01  0.31959052657E+01 -0.17309674049E+02  0.18726596129E+02  0.00000000000E+00 0. -1.
         11    1    3    3    0    0 -0.12872862929E+02  0.11516210898E+02 -0.13269612834E+01  0.17323236994E+02  0.51100000000E-03 0. -1.
        -11    1    3    3    0    0  0.91642784204E+01  0.17102801657E+02  0.11020271409E+02  0.22314484212E+02  0.51100000000E-03 0.  1.
         12    1    3    3    0    0 -0.26825637788E+01 -0.31814917820E+02  0.76163639230E+01  0.32823682666E+02  0.00000000000E+00 0. -1.
</event>
<event>
 7    1  0.2153242E-013  0.7246156E+02  0.7816164E-02  0.1226708E+00
        -11   -1    0    0    0    0  0.00000000000E+00  0.00000000000E+00  0.45593999997E+02  0.45594000000E+02  0.51100000000E-03 0.  1.
         11   -1    0    0    0    0 -0.00000000000E+00 -0.00000000000E+00 -0.45593999997E+02  0.45594000000E+02  0.51100000000E-03 0. -1.
    9900012    2    1    2    0    0  0.18548952401E+02 -0.23532385662E+01  0.10384339637E+01  0.72461555809E+02  0.69999981131E+02 0.  0.
         12    1    1    2    0    0 -0.18548952401E+02  0.23532385662E+01 -0.10384339637E+01  0.18726444191E+02  0.00000000000E+00 0. -1.
         11    1    3    3    0    0 -0.11122935505E+02  0.10692651633E+02  0.17068287759E+02  0.23008236362E+02  0.51100000000E-03 0.  1.
        -11    1    3    3    0    0  0.41974915504E+00 -0.12358568117E+02  0.50847118920E+01  0.13370291341E+02  0.51100000000E-03 0. -1.
        -12    1    3    3    0    0  0.29252138751E+02 -0.68732208161E+00 -0.21114565687E+02  0.36083028106E+02  0.00000000000E+00 0.  1.
</event>
<event>
 7    1  0.2153242E-013  0.7246157E+02  0.7816164E-02  0.1226708E+00
        -11   -1    0    0    0    0  0.00000000000E+00  0.00000000000E+00  0.45593999997E+02  0.45594000000E+02  0.51100000000E-03 0.  1.
         11   -1    0    0    0    0 -0.00000000000E+00 -0.00000000000E+00 -0.45593999997E+02  0.45594000000E+02  0.51100000000E-03 0. -1.
    9900012    2    1    2    0    0  0.15401353411E+02  0.48680742694E+01  0.94751903673E+01  0.72461573046E+02  0.70000003584E+02 0.  0.
         12    1    1    2    0    0 -0.15401353411E+02 -0.48680742694E+01 -0.94751903673E+01  0.18726426954E+02  0.00000000000E+00 0. -1.
         11    1    3    3    0    0 -0.79382886443E+01  0.14189244042E+01 -0.67296341833E+01  0.10503225674E+02  0.51100000000E-03 0. -1.
        -11    1    3    3    0    0  0.29237336306E+02  0.24171928936E+02  0.72309038749E+01  0.38618518276E+02  0.51100000000E-03 0.  1.
         12    1    3    3    0    0 -0.58976942503E+01 -0.20722779071E+02  0.89739206757E+01  0.23339829095E+02  0.00000000000E+00 0. -1.
</event>
<event>
 7    1  0.2153242E-013  0.7246153E+02  0.7816164E-02  0.1226708E+00
        -11   -1    0    0    0    0  0.00000000000E+00  0.00000000000E+00  0.45593999997E+02  0.45594000000E+02  0.51100000000E-03 0.  1.
         11   -1    0    0    0    0 -0.00000000000E+00 -0.00000000000E+00 -0.45593999997E+02  0.45594000000E+02  0.51100000000E-03 0. -1.
    9900012    2    1    2    0    0 -0.18406094194E+02 -0.33313611905E+01 -0.89352389355E+00  0.72461530610E+02  0.69999948304E+02 0.  0.
         12    1    1    2    0    0  0.18406094194E+02  0.33313611905E+01  0.89352389355E+00  0.18726469390E+02  0.00000000000E+00 0. -1.
         11    1    3    3    0    0 -0.52361939091E+01  0.61639821271E+01 -0.88910330381E+00  0.81365168999E+01  0.51100000000E-03 0. -1.
        -11    1    3    3    0    0  0.15804394398E+02  0.16074378692E+02 -0.96102138714E+01  0.24505524756E+02  0.51100000000E-03 0.  1.
         12    1    3    3    0    0 -0.28974294683E+02 -0.25569722010E+02  0.96057932817E+01  0.39819488955E+02  0.00000000000E+00 0. -1.
</event>
<event>
 7    1  0.2153242E-013  0.7246160E+02  0.7816164E-02  0.1226708E+00
        -11   -1    0    0    0    0  0.00000000000E+00  0.00000000000E+00  0.45593999997E+02  0.45594000000E+02  0.51100000000E-03 0. -1.
         11   -1    0    0    0    0 -0.00000000000E+00 -0.00000000000E+00 -0.45593999997E+02  0.45594000000E+02  0.51100000000E-03 0.  1.
    9900012    2    1    2    0    0 -0.17343232041E+02 -0.13909751725E+01 -0.69249854090E+01  0.72461603324E+02  0.70000043027E+02 0.  0.
         12    1    1    2    0    0  0.17343232041E+02  0.13909751725E+01  0.69249854090E+01  0.18726396676E+02  0.00000000000E+00 0. -1.
         11    1    3    3    0    0 -0.33717068780E+01  0.14085805146E+02 -0.11464424941E+02  0.18471907139E+02  0.51100000000E-03 0. -1.
        -11    1    3    3    0    0 -0.22104122231E+02  0.11914582751E+02  0.36649441423E+00  0.25113419125E+02  0.51100000000E-03 0.  1.
         12    1    3    3    0    0  0.81325970680E+01 -0.27391363069E+02  0.41729451176E+01  0.28876277060E+02  0.00000000000E+00 0. -1.
</event>
<event>
 7    1  0.2153242E-013  0.7246156E+02  0.7816164E-02  0.1226708E+00
        -11   -1    0    0    0    0  0.00000000000E+00  0.00000000000E+00  0.45593999997E+02  0.45594000000E+02  0.51100000000E-03 0. -1.
         11   -1    0    0    0    0 -0.00000000000E+00 -0.00000000000E+00 -0.45593999997E+02  0.45594000000E+02  0.51100000000E-03 0.  1.
    9900012    2    1    2    0    0  0.67243504418E+00 -0.14349796084E+02 -0.12012940518E+02  0.72461559964E+02  0.69999986543E+02 0.  0.
         12    1    1    2    0    0 -0.67243504418E+00  0.14349796084E+02  0.12012940518E+02  0.18726440036E+02  0.00000000000E+00 0. -1.
         11    1    3    3    0    0 -0.12003484569E+02  0.14204310570E+02 -0.29881691726E+01  0.18835478115E+02  0.51100000000E-03 0. -1.
        -11    1    3    3    0    0  0.28258768246E+01  0.65607043515E+00 -0.20521649243E+02  0.20725686868E+02  0.51100000000E-03 0.  1.
         12    1    3    3    0    0  0.98500427886E+01 -0.29210177089E+02  0.11496877898E+02  0.32900394981E+02  0.00000000000E+00 0. -1.
</event>
<event>
 7    1  0.2153242E-013  0.7246165E+02  0.7816164E-02  0.1226708E+00
        -11   -1    0    0    0    0  0.00000000000E+00  0.00000000000E+00  0.45593999997E+02  0.45594000000E+02  0.51100000000E-03 0. -1.
         11   -1    0    0    0    0 -0.00000000000E+00 -0.00000000000E+00 -0.45593999997E+02  0.45594000000E+02  0.51100000000E-03 0.  1.
    9900012    2    1    2    0    0  0.90581160763E+01 -0.83736080735E+00 -0.16368426205E+02  0.72461654483E+02  0.70000109672E+02 0.  0.
         12    1    1    2    0    0 -0.90581160763E+01  0.83736080735E+00  0.16368426205E+02  0.18726345517E+02  0.00000000000E+00 0. -1.
         11    1    3    3    0    0 -0.27082243725E+01 -0.41302817521E+01  0.57026667266E+01  0.75441443954E+01  0.51100000000E-03 0. -1.
        -11    1    3    3    0    0  0.25287743789E+02 -0.16657622430E+02  0.26444196841E+01  0.30396370288E+02  0.51100000000E-03 0.  1.
         12    1    3    3    0    0 -0.13521403340E+02  0.19950543375E+02 -0.24715512616E+02  0.34521139800E+02  0.00000000000E+00 0. -1.
</event>
<event>
 7    1  0.2153242E-013  0.7246153E+02  0.7816164E-02  0.1226708E+00
        -11   -1    0    0    0    0  0.00000000000E+00  0.00000000000E+00  0.45593999997E+02  0.45594000000E+02  0.51100000000E-03 0.  1.
         11   -1    0    0    0    0 -0.00000000000E+00 -0.00000000000E+00 -0.45593999997E+02  0.45594000000E+02  0.51100000000E-03 0. -1.
    9900012    2    1    2    0    0  0.48113362703E+01 -0.17012060206E+02  0.61742679214E+01  0.72461528535E+02  0.69999945601E+02 0.  0.
         12    1    1    2    0    0 -0.48113362703E+01  0.17012060206E+02 -0.61742679214E+01  0.18726471465E+02  0.00000000000E+00 0. -1.
         11    1    3    3    0    0  0.50049071357E+01 -0.24468547113E+02  0.28469817916E+01  0.25136909095E+02  0.51100000000E-03 0. -1.
        -11    1    3    3    0    0  0.38936800295E+01 -0.15371089246E+02  0.14586551545E+02  0.21545268971E+02  0.51100000000E-03 0.  1.
        -12    1    3    3    0    0 -0.40872508948E+01  0.22827576154E+02 -0.11259265415E+02  0.25779350469E+02  0.00000000000E+00 0.  1.
</event>
<event>
 7    1  0.2153242E-013  0.7246160E+02  0.7816164E-02  0.1226708E+00
        -11   -1    0    0    0    0  0.00000000000E+00  0.00000000000E+00  0.45593999997E+02  0.45594000000E+02  0.51100000000E-03 0. -1.
         11   -1    0    0    0    0 -0.00000000000E+00 -0.00000000000E+00 -0.45593999997E+02  0.45594000000E+02  0.51100000000E-03 0.  1.
    9900012    2    1    2    0    0  0.55641571060E+01  0.80590000696E+01 -0.15961535457E+02  0.72461603108E+02  0.70000042746E+02 0.  0.
         12    1    1    2    0    0 -0.55641571060E+01 -0.80590000696E+01  0.15961535457E+02  0.18726396892E+02  0.00000000000E+00 0. -1.
         11    1    3    3    0    0 -0.16278086786E+02  0.13242002963E+02 -0.33331274336E+02  0.39386553555E+02  0.51100000000E-03 0. -1.
        -11    1    3    3    0    0  0.55232419913E+01  0.52420840694E+01  0.94927909953E+01  0.12169582106E+02  0.51100000000E-03 0.  1.
        -12    1    3    3    0    0  0.16319001900E+02 -0.10425086963E+02  0.78769478835E+01  0.20905467447E+02  0.00000000000E+00 0.  1.
</event>
<event>
 7    1  0.2153242E-013  0.7246147E+02  0.7816164E-02  0.1226708E+00
        -11   -1    0    0    0    0  0.00000000000E+00  0.00000000000E+00  0.45593999997E+02  0.45594000000E+02  0.51100000000E-03 0. -1.
         11   -1    0    0    0    0 -0.00000000000E+00 -0.00000000000E+00 -0.45593999997E+02  0.45594000000E+02  0.51100000000E-03 0.  1.
    9900012    2    1    2    0    0 -0.47636025043E+01  0.17812741484E+02  0.32706387237E+01  0.72461474811E+02  0.69999875615E+02 0.  0.
         12    1    1    2    0    0  0.47636025043E+01 -0.17812741484E+02 -0.32706387237E+01  0.18726525189E+02  0.00000000000E+00 0. -1.
         11    1    3    3    0    0  0.12417259077E+02 -0.15253700443E+02  0.14125818008E+02  0.24215747662E+02  0.51100000000E-03 0. -1.
        -11    1    3    3    0    0  0.45260788132E+01 -0.18430262407E+01  0.18404316789E+01  0.52220038465E+01  0.51100000000E-03 0.  1.
        -12    1    3    3    0    0 -0.21706940395E+02  0.34909468168E+02 -0.12695610963E+02  0.43023723302E+02  0.00000000000E+00 0.  1.
</event>
<event>
 7    1  0.2153242E-013  0.7246160E+02  0.7816164E-02  0.1226708E+00
        -11   -1    0    0    0    0  0.00000000000E+00  0.00000000000E+00  0.45593999997E+02  0.45594000000E+02  0.51100000000E-03 0.  1.
         11   -1    0    0    0    0 -0.00000000000E+00 -0.00000000000E+00 -0.45593999997E+02  0.45594000000E+02  0.51100000000E-03 0. -1.
    9900012    2    1    2    0    0  0.47175230376E+00 -0.12188737182E+02  0.14208808253E+02  0.72461598950E+02  0.70000037329E+02 0.  0.
         12    1    1    2    0    0 -0.47175230376E+00  0.12188737182E+02 -0.14208808253E+02  0.18726401050E+02  0.00000000000E+00 0. -1.
         11    1    3    3    0    0 -0.92060186415E+01 -0.13490459122E+02 -0.14404501787E+02  0.21776890010E+02  0.51100000000E-03 0. -1.
        -11    1    3    3    0    0 -0.15787997820E+02 -0.23654888710E+01  0.89437591620E+01  0.18298831683E+02  0.51100000000E-03 0.  1.
        -12    1    3    3    0    0  0.25465768765E+02  0.36672108106E+01  0.19669550878E+02  0.32385877256E+02  0.00000000000E+00 0.  1.
</event>
<event>
 7    1  0.2153242E-013  0.7246146E+02  0.7816164E-02  0.1226708E+00
        -11   -1    0    0    0    0  0.00000000000E+00  0.00000000000E+00  0.45593999997E+02  0.45594000000E+02  0.51100000000E-03 0. -1.
         11   -1    0    0    0    0 -0.00000000000E+00 -0.00000000000E+00 -0.45593999997E+02  0.45594000000E+02  0.51100000000E-03 0.  1.
    9900012    2    1    2    0    0  0.16155483717E+02  0.63371525727E+01  0.70373459442E+01  0.72461457479E+02  0.69999853036E+02 0.  0.
         12    1    1    2    0    0 -0.16155483717E+02 -0.63371525727E+01 -0.70373459442E+01  0.18726542521E+02  0.00000000000E+00 0. -1.
         11    1    3    3    0    0 -0.18838529113E+01  0.33224139953E+02  0.57570482082E+01  0.33771822304E+02  0.51100000000E-03 0. -1.
        -11    1    3    3    0    0 -0.28894448095E+01  0.16125132207E+01  0.38389058644E-01  0.33091636670E+01  0.51100000000E-03 0.  1.
        -12    1    3    3    0    0  0.20928781438E+02 -0.28499500601E+02  0.12419086774E+01  0.35380471508E+02  0.00000000000E+00 0.  1.
</event>
<event>
 7    1  0.2153242E-013  0.7246151E+02  0.7816164E-02  0.1226708E+00
        -11   -1    0    0    0    0  0.00000000000E+00  0.00000000000E+00  0.45593999997E+02  0.45594000000E+02  0.51100000000E-03 0. -1.
         11   -1    0    0    0    0 -0.00000000000E+00 -0.00000000000E+00 -0.45593999997E+02  0.45594000000E+02  0.51100000000E-03 0.  1.
    9900012    2    1    2    0    0  0.56492139899E+01  0.16869491962E+02 -0.58470570365E+01  0.72461509305E+02  0.69999920550E+02 0.  0.
         12    1    1    2    0    0 -0.56492139899E+01 -0.16869491962E+02  0.58470570365E+01  0.18726490695E+02  0.00000000000E+00 0. -1.
         11    1    3    3    0    0 -0.10814816946E+02  0.78660904530E+01  0.96644004526E+01  0.16499584267E+02  0.51100000000E-03 0. -1.
        -11    1    3    3    0    0 -0.15923353441E+02  0.10761226385E+02 -0.13457477564E+02  0.23461902752E+02  0.51100000000E-03 0.  1.
         12    1    3    3    0    0  0.32387384377E+02 -0.17578248759E+01 -0.20539799255E+01  0.32500022286E+02  0.00000000000E+00 0. -1.
</event>
<event>
 7    1  0.2153242E-013  0.7246166E+02  0.7816164E-02  0.1226708E+00
        -11   -1    0    0    0    0  0.00000000000E+00  0.00000000000E+00  0.45593999997E+02  0.45594000000E+02  0.51100000000E-03 0. -1.
         11   -1    0    0    0    0 -0.00000000000E+00 -0.00000000000E+00 -0.45593999997E+02  0.45594000000E+02  0.51100000000E-03 0.  1.
    9900012    2    1    2    0    0 -0.11144892162E+02 -0.76462118190E+01 -0.12961585875E+02  0.72461657995E+02  0.70000114247E+02 0.  0.
         12    1    1    2    0    0  0.11144892162E+02  0.76462118190E+01  0.12961585875E+02  0.18726342005E+02  0.00000000000E+00 0. -1.
         11    1    3    3    0    0  0.19475714033E+02  0.11191494248E+02  0.44950644000E+01  0.22907609758E+02  0.51100000000E-03 0. -1.
        -11    1    3    3    0    0  0.11935356028E+01  0.42857463739E+01  0.28578458451E+01  0.52876679502E+01  0.51100000000E-03 0.  1.
        -12    1    3    3    0    0 -0.31814141798E+02 -0.23123452441E+02 -0.20314496120E+02  0.44266380287E+02  0.00000000000E+00 0.  1.
</event>
<event>
 7    1  0.2153242E-013  0.7246157E+02  0.7816164E-02  0.1226708E+00
        -11   -1    0    0    0    0  0.00000000000E+00  0.00000000000E+00  0.45593999997E+02  0.45594000000E+02  0.51100000000E-03 0. -1.
         11   -1    0    0    0    0 -0.00000000000E+00 -0.00000000000E+00 -0.45593999997E+02  0.45594000000E+02  0.51100000000E-03 0.  1.
    9900012    2    1    2    0    0 -0.52273443502E+01  0.14474796853E+02 -0.10669321780E+02  0.72461566807E+02  0.69999995457E+02 0.  0.
         12    1    1    2    0    0  0.52273443502E+01 -0.14474796853E+02  0.10669321780E+02  0.18726433193E+02  0.00000000000E+00 0. -1.
         11    1    3    3    0    0 -0.14748494233E+02 -0.10218415718E+02 -0.20155122292E+00  0.17943654173E+02  0.51100000000E-03 0. -1.
        -11    1    3    3    0    0  0.16556148101E+02 -0.91377659927E+01 -0.27170340142E+01  0.19104635076E+02  0.51100000000E-03 0.  1.
        -12    1    3    3    0    0 -0.70349982187E+01  0.33830978563E+02 -0.77507365427E+01  0.35413277559E+02  0.00000000000E+00 0.  1.
</event>
<event>
 7    1  0.2153242E-013  0.7246159E+02  0.7816164E-02  0.1226708E+00
        -11   -1    0    0    0    0  0.00000000000E+00  0.00000000000E+00  0.45593999997E+02  0.45594000000E+02  0.51100000000E-03 0. -1.
         11   -1    0    0    0    0 -0.00000000000E+00 -0.00000000000E+00 -0.45593999997E+02  0.45594000000E+02  0.51100000000E-03 0.  1.
    9900012    2    1    2    0    0 -0.14390534263E+02  0.94179515617E+00 -0.11945882861E+02  0.72461586254E+02  0.70000020790E+02 0.  0.
         12    1    1    2    0    0  0.14390534263E+02 -0.94179515617E+00  0.11945882861E+02  0.18726413746E+02  0.00000000000E+00 0. -1.
         11    1    3    3    0    0  0.30713454524E+01 -0.18519611611E+02 -0.30616225735E+01  0.19020586483E+02  0.51100000000E-03 0. -1.
        -11    1    3    3    0    0  0.15251469935E+02  0.85104019449E+01 -0.72334063766E+01  0.18903873797E+02  0.51100000000E-03 0.  1.
        -12    1    3    3    0    0 -0.32713349650E+02  0.10951004822E+02 -0.16508539106E+01  0.34537125974E+02  0.00000000000E+00 0.  1.
</event>
<event>
 7    1  0.2153242E-013  0.7246160E+02  0.7816164E-02  0.1226708E+00
        -11   -1    0    0    0    0  0.00000000000E+00  0.00000000000E+00  0.45593999997E+02  0.45594000000E+02  0.51100000000E-03 0. -1.
         11   -1    0    0    0    0 -0.00000000000E+00 -0.00000000000E+00 -0.45593999997E+02  0.45594000000E+02  0.51100000000E-03 0.  1.
    9900012    2    1    2    0    0 -0.16596577153E+02 -0.83335052264E+01  0.24050524423E+01  0.72461602594E+02  0.70000042077E+02 0.  0.
         12    1    1    2    0    0  0.16596577153E+02  0.83335052264E+01 -0.24050524423E+01  0.18726397406E+02  0.00000000000E+00 0. -1.
         11    1    3    3    0    0  0.40636633210E+01  0.26679742203E+01 -0.79362690667E+01  0.93067616810E+01  0.51100000000E-03 0. -1.
        -11    1    3    3    0    0 -0.26767780971E+02 -0.22689914695E+02 -0.12106066341E+02  0.37120118123E+02  0.51100000000E-03 0.  1.
         12    1    3    3    0    0  0.61075404979E+01  0.11688435248E+02  0.22447387850E+02  0.26034722790E+02  0.00000000000E+00 0. -1.
</event>
<event>
 7    1  0.2153242E-013  0.7246158E+02  0.7816164E-02  0.1226708E+00
        -11   -1    0    0    0    0  0.00000000000E+00  0.00000000000E+00  0.45593999997E+02  0.45594000000E+02  0.51100000000E-03 0. -1.
         11   -1    0    0    0    0 -0.00000000000E+00 -0.00000000000E+00 -0.45593999997E+02  0.45594000000E+02  0.51100000000E-03 0.  1.
    9900012    2    1    2    0    0 -0.44445303418E+00  0.14691177399E+02 -0.11603902763E+02  0.72461580395E+02  0.70000013158E+02 0.  0.
         12    1    1    2    0    0  0.44445303418E+00 -0.14691177399E+02  0.11603902763E+02  0.18726419605E+02  0.00000000000E+00 0. -1.
         11    1    3    3    0    0 -0.48339488533E+01 -0.10518937509E+02  0.14597736561E+02  0.18630862052E+02  0.51100000000E-03 0. -1.
        -11    1    3    3    0    0  0.13933270935E+01 -0.34870615897E+01  0.81475440647E+01  0.89712559582E+01  0.51100000000E-03 0.  1.
        -12    1    3    3    0    0  0.29961687256E+01  0.28697176498E+02 -0.34349183389E+02  0.44859462385E+02  0.00000000000E+00 0.  1.
</event>
<event>
 7    1  0.2153242E-013  0.7246157E+02  0.7816164E-02  0.1226708E+00
        -11   -1    0    0    0    0  0.00000000000E+00  0.00000000000E+00  0.45593999997E+02  0.45594000000E+02  0.51100000000E-03 0.  1.
         11   -1    0    0    0    0 -0.00000000000E+00 -0.00000000000E+00 -0.45593999997E+02  0.45594000000E+02  0.51100000000E-03 0. -1.
    9900012    2    1    2    0    0 -0.41198758827E+01  0.35708684576E+01  0.17915210484E+02  0.72461568265E+02  0.69999997357E+02 0.  0.
         12    1    1    2    0    0  0.41198758827E+01 -0.35708684576E+01 -0.17915210484E+02  0.18726431735E+02  0.00000000000E+00 0. -1.
         11    1    3    3    0    0 -0.28721623762E+02 -0.32614270902E+01 -0.41499690395E+01  0.29202582445E+02  0.51100000000E-03 0. -1.
        -11    1    3    3    0    0 -0.49768239941E+01  0.27336557399E+01 -0.68432841482E+00  0.57192618766E+01  0.51100000000E-03 0.  1.
        -12    1    3    3    0    0  0.29578571873E+02  0.40986398079E+01  0.22749507938E+02  0.37539723944E+02  0.00000000000E+00 0.  1.
</event>
<event>
 7    1  0.2153242E-013  0.7246159E+02  0.7816164E-02  0.1226708E+00
        -11   -1    0    0    0    0  0.00000000000E+00  0.00000000000E+00  0.45593999997E+02  0.45594000000E+02  0.51100000000E-03 0.  1.
         11   -1    0    0    0    0 -0.00000000000E+00 -0.00000000000E+00 -0.45593999997E+02  0.45594000000E+02  0.51100000000E-03 0. -1.
    9900012    2    1    2    0    0 -0.14420301497E+02 -0.43951159665E+01  0.11109296735E+02  0.72461585139E+02  0.70000019337E+02 0.  0.
         12    1    1    2    0    0  0.14420301497E+02  0.43951159665E+01 -0.11109296735E+02  0.18726414861E+02  0.00000000000E+00 0. -1.
         11    1    3    3    0    0  0.11467188985E+02 -0.50519843788E+01  0.11833180458E+02  0.17234939205E+02  0.51100000000E-03 0. -1.
        -11    1    3    3    0    0  0.72652175214E+00  0.15002213411E+02 -0.15492783910E+02  0.21578243549E+02  0.51100000000E-03 0.  1.
         12    1    3    3    0    0 -0.26614012234E+02 -0.14345344999E+02  0.14768900188E+02  0.33648402385E+02  0.00000000000E+00 0. -1.
</event>
<event>
 7    1  0.2153242E-013  0.7246163E+02  0.7816164E-02  0.1226708E+00
        -11   -1    0    0    0    0  0.00000000000E+00  0.00000000000E+00  0.45593999997E+02  0.45594000000E+02  0.51100000000E-03 0.  1.
         11   -1    0    0    0    0 -0.00000000000E+00 -0.00000000000E+00 -0.45593999997E+02  0.45594000000E+02  0.51100000000E-03 0. -1.
    9900012    2    1    2    0    0  0.13637553522E+01  0.40016152100E+00  0.18672354097E+02  0.72461634484E+02  0.70000083619E+02 0.  0.
         12    1    1    2    0    0 -0.13637553522E+01 -0.40016152100E+00 -0.18672354097E+02  0.18726365516E+02  0.00000000000E+00 0. -1.
         11    1    3    3    0    0 -0.20546293460E+01  0.53130411162E+01 -0.61523521557E+01  0.83845897312E+01  0.51100000000E-03 0. -1.
        -11    1    3    3    0    0  0.72540483958E+01 -0.28367218897E+01 -0.18740169104E+02  0.20294387094E+02  0.51100000000E-03 0.  1.
        -12    1    3    3    0    0 -0.38356636976E+01 -0.20761577055E+01  0.43564875357E+02  0.43782657659E+02  0.00000000000E+00 0.  1.
</event>
<event>
 7    1  0.2153242E-013  0.7246154E+02  0.7816164E-02  0.1226708E+00
        -11   -1    0    0    0    0  0.00000000000E+00  0.00000000000E+00  0.45593999997E+02  0.45594000000E+02  0.51100000000E-03 0.  1.
         11   -1    0    0    0    0 -0.00000000000E+00 -0.00000000000E+00 -0.45593999997E+02  0.45594000000E+02  0.51100000000E-03 0. -1.
    9900012    2    1    2    0    0  0.16649217489E+02 -0.78772960826E+01 -0.33811284610E+01  0.72461541011E+02  0.69999961854E+02 0.  0.
         12    1    1    2    0    0 -0.16649217489E+02  0.78772960826E+01  0.33811284610E+01  0.18726458989E+02  0.00000000000E+00 0. -1.
         11    1    3    3    0    0  0.58313951155E+01  0.27445617186E+02 -0.81502067111E+01  0.29218024256E+02  0.51100000000E-03 0. -1.
        -11    1    3    3    0    0  0.47806712325E+01 -0.13595852703E+02  0.12830487478E+02  0.19295684423E+02  0.51100000000E-03 0.  1.
        -12    1    3    3    0    0  0.60371511414E+01 -0.21727060565E+02 -0.80614092278E+01  0.23947832333E+02  0.00000000000E+00 0.  1.
</event>
<event>
 7    1  0.2153242E-013  0.7246158E+02  0.7816164E-02  0.1226708E+00
        -11   -1    0    0    0    0  0.00000000000E+00  0.00000000000E+00  0.45593999997E+02  0.45594000000E+02  0.51100000000E-03 0.  1.
         11   -1    0    0    0    0 -0.00000000000E+00 -0.00000000000E+00 -0.45593999997E+02  0.45594000000E+02  0.51100000000E-03 0. -1.
    9900012    2    1    2    0    0  0.10304816182E+02 -0.12027549530E+02  0.99913828990E+01  0.72461577051E+02  0.70000008802E+02 0.  0.
         12    1    1    2    0    0 -0.10304816182E+02  0.12027549530E+02 -0.99913828990E+01  0.18726422949E+02  0.00000000000E+00 0. -1.
         11    1    3    3    0    0 -0.42023733280E+01 -0.31633748579E+02 -0.16058536845E+01  0.31952038387E+02  0.51100000000E-03 0. -1.
        -11    1    3    3    0    0  0.49683485769E+01 -0.79763880793E+01  0.47598041466E+01  0.10533897197E+02  0.51100000000E-03 0.  1.
         12    1    3    3    0    0  0.95388409328E+01  0.27582587129E+02  0.68374324369E+01  0.29975641467E+02  0.00000000000E+00 0. -1.
</event>
<event>
 7    1  0.2153242E-013  0.7246160E+02  0.7816164E-02  0.1226708E+00
        -11   -1    0    0    0    0  0.00000000000E+00  0.00000000000E+00  0.45593999997E+02  0.45594000000E+02  0.51100000000E-03 0. -1.
         11   -1    0    0    0    0 -0.00000000000E+00 -0.00000000000E+00 -0.45593999997E+02  0.45594000000E+02  0.51100000000E-03 0.  1.
    9900012    2    1    2    0    0  0.22777055085E+01  0.17452744896E+02 -0.63946772854E+01  0.72461597666E+02  0.70000035656E+02 0.  0.
         12    1    1    2    0    0 -0.22777055085E+01 -0.17452744896E+02  0.63946772854E+01  0.18726402334E+02  0.00000000000E+00 0. -1.
         11    1    3    3    0    0 -0.11513484941E+01 -0.15040117496E+01  0.13494091677E+01  0.23256311102E+01  0.51100000000E-03 0. -1.
        -11    1    3    3    0    0  0.33516051657E+01  0.13438683857E+02 -0.37446188974E+02  0.39925537566E+02  0.51100000000E-03 0.  1.
         12    1    3    3    0    0  0.77448836909E-01  0.55180727887E+01  0.29702102520E+02  0.30210428990E+02  0.00000000000E+00 0. -1.
</event>
<event>
 7    1  0.2153242E-013  0.7246154E+02  0.7816164E-02  0.1226708E+00
        -11   -1    0    0    0    0  0.00000000000E+00  0.00000000000E+00  0.45593999997E+02  0.45594000000E+02  0.51100000000E-03 0.  1.
         11   -1    0    0    0    0 -0.00000000000E+00 -0.00000000000E+00 -0.45593999997E+02  0.45594000000E+02  0.51100000000E-03 0. -1.
    9900012    2    1    2    0    0  0.39257324736E+01 -0.17937525503E+02  0.36761344460E+01  0.72461543819E+02  0.69999965511E+02 0.  0.
         12    1    1    2    0    0 -0.39257324736E+01  0.17937525503E+02 -0.36761344460E+01  0.18726456181E+02  0.00000000000E+00 0. -1.
         11    1    3    3    0    0 -0.10839369005E+02 -0.13234189612E+02 -0.15111754964E+02  0.22825442678E+02  0.51100000000E-03 0. -1.
        -11    1    3    3    0    0 -0.91454190285E+01  0.24129675237E+01  0.22506734045E+02  0.24413401629E+02  0.51100000000E-03 0.  1.
        -12    1    3    3    0    0  0.23910520507E+02 -0.71163034148E+01 -0.37188446351E+01  0.25222699511E+02  0.00000000000E+00 0.  1.
</event>
<event>
 7    1  0.2153242E-013  0.7246155E+02  0.7816164E-02  0.1226708E+00
        -11   -1    0    0    0    0  0.00000000000E+00  0.00000000000E+00  0.45593999997E+02  0.45594000000E+02  0.51100000000E-03 0. -1.
         11   -1    0    0    0    0 -0.00000000000E+00 -0.00000000000E+00 -0.45593999997E+02  0.45594000000E+02  0.51100000000E-03 0.  1.
    9900012    2    1    2    0    0  0.17631934240E+02 -0.63020215242E+01 -0.28138596541E+00  0.72461554572E+02  0.69999979518E+02 0.  0.
         12    1    1    2    0    0 -0.17631934240E+02  0.63020215242E+01  0.28138596541E+00  0.18726445428E+02  0.00000000000E+00 0. -1.
         11    1    3    3    0    0  0.61293889235E-01  0.86425612362E+01 -0.24471474480E+01  0.89825471085E+01  0.51100000000E-03 0. -1.
        -11    1    3    3    0    0  0.31862401660E+02 -0.27560745846E+01 -0.17356685761E+02  0.36387678237E+02  0.51100000000E-03 0.  1.
        -12    1    3    3    0    0 -0.14291761309E+02 -0.12188508176E+02  0.19522447243E+02  0.27091329226E+02  0.00000000000E+00 0.  1.
</event>
<event>
 7    1  0.2153242E-013  0.7246155E+02  0.7816164E-02  0.1226708E+00
        -11   -1    0    0    0    0  0.00000000000E+00  0.00000000000E+00  0.45593999997E+02  0.45594000000E+02  0.51100000000E-03 0. -1.
         11   -1    0    0    0    0 -0.00000000000E+00 -0.00000000000E+00 -0.45593999997E+02  0.45594000000E+02  0.51100000000E-03 0.  1.
    9900012    2    1    2    0    0 -0.14970632948E+02 -0.10743327168E+02  0.33378264190E+01  0.72461547728E+02  0.69999970603E+02 0.  0.
         12    1    1    2    0    0  0.14970632948E+02  0.10743327168E+02 -0.33378264190E+01  0.18726452272E+02  0.00000000000E+00 0. -1.
         11    1    3    3    0    0  0.13704667357E+01  0.15420191586E+02 -0.92701280849E+01  0.18044272293E+02  0.51100000000E-03 0. -1.
        -11    1    3    3    0    0  0.97917287029E+01  0.41444238085E+01  0.95332191300E+01  0.14280632582E+02  0.51100000000E-03 0.  1.
        -12    1    3    3    0    0 -0.26132828387E+02 -0.30307942562E+02  0.30747353738E+01  0.40136642853E+02  0.00000000000E+00 0.  1.
</event>
<event>
 7    1  0.2153242E-013  0.7246155E+02  0.7816164E-02  0.1226708E+00
        -11   -1    0    0    0    0  0.00000000000E+00  0.00000000000E+00  0.45593999997E+02  0.45594000000E+02  0.51100000000E-03 0.  1.
         11   -1    0    0    0    0 -0.00000000000E+00 -0.00000000000E+00 -0.45593999997E+02  0.45594000000E+02  0.51100000000E-03 0. -1.
    9900012    2    1    2    0    0 -0.99485758918E+01 -0.15497783772E+02 -0.33947671416E+01  0.72461550575E+02  0.69999974313E+02 0.  0.
         12    1    1    2    0    0  0.99485758918E+01  0.15497783772E+02  0.33947671416E+01  0.18726449425E+02  0.00000000000E+00 0. -1.
         11    1    3    3    0    0 -0.63833650483E+01 -0.53458034399E+01 -0.97221277863E+01  0.12800184870E+02  0.51100000000E-03 0. -1.
        -11    1    3    3    0    0  0.17464053903E+02  0.11735584583E+02 -0.11982487149E+02  0.24213573110E+02  0.51100000000E-03 0.  1.
        -12    1    3    3    0    0 -0.21029264746E+02 -0.21887564914E+02  0.18309847794E+02  0.35447792595E+02  0.00000000000E+00 0.  1.
</event>
<event>
 7    1  0.2153242E-013  0.7246158E+02  0.7816164E-02  0.1226708E+00
        -11   -1    0    0    0    0  0.00000000000E+00  0.00000000000E+00  0.45593999997E+02  0.45594000000E+02  0.51100000000E-03 0.  1.
         11   -1    0    0    0    0 -0.00000000000E+00 -0.00000000000E+00 -0.45593999997E+02  0.45594000000E+02  0.51100000000E-03 0. -1.
    9900012    2    1    2    0    0 -0.14751162043E+02 -0.61168836913E+01  0.97808832224E+01  0.72461582181E+02  0.70000015485E+02 0.  0.
         12    1    1    2    0    0  0.14751162043E+02  0.61168836913E+01 -0.97808832224E+01  0.18726417819E+02  0.00000000000E+00 0. -1.
         11    1    3    3    0    0 -0.23290925604E+02 -0.12290374484E+02 -0.23506674827E+02  0.35299919010E+02  0.51100000000E-03 0. -1.
        -11    1    3    3    0    0  0.67480238519E+01  0.18706941334E-01  0.56820809467E+01  0.88216903143E+01  0.51100000000E-03 0.  1.
        -12    1    3    3    0    0  0.17917397091E+01  0.61547838516E+01  0.27605477103E+02  0.28339972857E+02  0.00000000000E+00 0.  1.
</event>
<event>
 7    1  0.2153242E-013  0.7246154E+02  0.7816164E-02  0.1226708E+00
        -11   -1    0    0    0    0  0.00000000000E+00  0.00000000000E+00  0.45593999997E+02  0.45594000000E+02  0.51100000000E-03 0.  1.
         11   -1    0    0    0    0 -0.00000000000E+00 -0.00000000000E+00 -0.45593999997E+02  0.45594000000E+02  0.51100000000E-03 0. -1.
    9900012    2    1    2    0    0  0.13357543346E+02 -0.38041105476E+01  0.12561258303E+02  0.72461536600E+02  0.69999956107E+02 0.  0.
         12    1    1    2    0    0 -0.13357543346E+02  0.38041105476E+01 -0.12561258303E+02  0.18726463400E+02  0.00000000000E+00 0. -1.
         11    1    3    3    0    0 -0.36541504958E+01 -0.77047242872E+01 -0.90068545075E+01  0.12403185904E+02  0.51100000000E-03 0.  1.
        -11    1    3    3    0    0  0.23187133209E+02  0.19521230262E+02 -0.28245830797E+01  0.30441745140E+02  0.51100000000E-03 0. -1.
        -12    1    3    3    0    0 -0.61754393663E+01 -0.15620616522E+02  0.24392695890E+02  0.29616605556E+02  0.00000000000E+00 0.  1.
</event>
<event>
 7    1  0.2153242E-013  0.7246159E+02  0.7816164E-02  0.1226708E+00
        -11   -1    0    0    0    0  0.00000000000E+00  0.00000000000E+00  0.45593999997E+02  0.45594000000E+02  0.51100000000E-03 0.  1.
         11   -1    0    0    0    0 -0.00000000000E+00 -0.00000000000E+00 -0.45593999997E+02  0.45594000000E+02  0.51100000000E-03 0. -1.
    9900012    2    1    2    0    0  0.18244410021E+00  0.15685909202E+02 -0.10227288914E+02  0.72461588922E+02  0.70000024266E+02 0.  0.
         12    1    1    2    0    0 -0.18244410021E+00 -0.15685909202E+02  0.10227288914E+02  0.18726411078E+02  0.00000000000E+00 0. -1.
         11    1    3    3    0    0 -0.12148366151E+02 -0.13348674990E+02  0.18244822408E+01  0.18141076590E+02  0.51100000000E-03 0. -1.
        -11    1    3    3    0    0 -0.85408965473E+01 -0.47158933833E+01  0.51934166676E+01  0.11052517414E+02  0.51100000000E-03 0.  1.
         12    1    3    3    0    0  0.20871706798E+02  0.33750477575E+02 -0.17245187822E+02  0.43267994918E+02  0.00000000000E+00 0. -1.
</event>
<event>
 7    1  0.2153242E-013  0.7246159E+02  0.7816164E-02  0.1226708E+00
        -11   -1    0    0    0    0  0.00000000000E+00  0.00000000000E+00  0.45593999997E+02  0.45594000000E+02  0.51100000000E-03 0.  1.
         11   -1    0    0    0    0 -0.00000000000E+00 -0.00000000000E+00 -0.45593999997E+02  0.45594000000E+02  0.51100000000E-03 0. -1.
    9900012    2    1    2    0    0  0.12821821394E+02  0.12443450348E+02 -0.56071424219E+01  0.72461585326E+02  0.70000019581E+02 0.  0.
         12    1    1    2    0    0 -0.12821821394E+02 -0.12443450348E+02  0.56071424219E+01  0.18726414674E+02  0.00000000000E+00 0. -1.
         11    1    3    3    0    0  0.12741561875E+02  0.58485043186E+01 -0.30314381263E+02  0.33399313068E+02  0.51100000000E-03 0. -1.
        -11    1    3    3    0    0  0.32798774131E+01 -0.27805826391E+01 -0.56668342938E+01  0.71135256260E+01  0.51100000000E-03 0.  1.
        -12    1    3    3    0    0 -0.31996178945E+01  0.93755286683E+01  0.30374073135E+02  0.31948746631E+02  0.00000000000E+00 0.  1.
</event>
<event>
 7    1  0.2153242E-013  0.7246157E+02  0.7816164E-02  0.1226708E+00
        -11   -1    0    0    0    0  0.00000000000E+00  0.00000000000E+00  0.45593999997E+02  0.45594000000E+02  0.51100000000E-03 0.  1.
         11   -1    0    0    0    0 -0.00000000000E+00 -0.00000000000E+00 -0.45593999997E+02  0.45594000000E+02  0.51100000000E-03 0. -1.
    9900012    2    1    2    0    0  0.13824489535E+02  0.12462495674E+02 -0.20612488451E+01  0.72461573322E+02  0.70000003944E+02 0.  0.
         12    1    1    2    0    0 -0.13824489535E+02 -0.12462495674E+02  0.20612488451E+01  0.18726426678E+02  0.00000000000E+00 0. -1.
         11    1    3    3    0    0  0.49744979472E+01  0.13898214051E+02 -0.29779818481E+02  0.33237683022E+02  0.51100000000E-03 0. -1.
        -11    1    3    3    0    0 -0.75410264306E+01  0.23541631936E+01  0.14530810062E+01  0.80324721376E+01  0.51100000000E-03 0.  1.
        -12    1    3    3    0    0  0.16391018019E+02 -0.37898815711E+01  0.26265488630E+02  0.31191418162E+02  0.00000000000E+00 0.  1.
</event>
<event>
 7    1  0.2153242E-013  0.7246155E+02  0.7816164E-02  0.1226708E+00
        -11   -1    0    0    0    0  0.00000000000E+00  0.00000000000E+00  0.45593999997E+02  0.45594000000E+02  0.51100000000E-03 0.  1.
         11   -1    0    0    0    0 -0.00000000000E+00 -0.00000000000E+00 -0.45593999997E+02  0.45594000000E+02  0.51100000000E-03 0. -1.
    9900012    2    1    2    0    0 -0.15673268790E+02  0.89319903741E+01  0.50247669424E+01  0.72461545732E+02  0.69999968003E+02 0.  0.
         12    1    1    2    0    0  0.15673268790E+02 -0.89319903741E+01 -0.50247669424E+01  0.18726454268E+02  0.00000000000E+00 0. -1.
         11    1    3    3    0    0 -0.18282997700E+02  0.26116340011E+02 -0.10084377666E+02  0.33436894199E+02  0.51100000000E-03 0. -1.
        -11    1    3    3    0    0  0.44765465744E+01 -0.36802190269E+01 -0.93631461982E+01  0.11011448057E+02  0.51100000000E-03 0.  1.
        -12    1    3    3    0    0 -0.18668176644E+01 -0.13504130610E+02  0.24472290806E+02  0.28013203477E+02  0.00000000000E+00 0.  1.
</event>
<event>
 7    1  0.2153242E-013  0.7246153E+02  0.7816164E-02  0.1226708E+00
        -11   -1    0    0    0    0  0.00000000000E+00  0.00000000000E+00  0.45593999997E+02  0.45594000000E+02  0.51100000000E-03 0.  1.
         11   -1    0    0    0    0 -0.00000000000E+00 -0.00000000000E+00 -0.45593999997E+02  0.45594000000E+02  0.51100000000E-03 0. -1.
    9900012    2    1    2    0    0  0.72652992374E+01 -0.13704016645E+02  0.10492669000E+02  0.72461528149E+02  0.69999945098E+02 0.  0.
         12    1    1    2    0    0 -0.72652992374E+01  0.13704016645E+02 -0.10492669000E+02  0.18726471851E+02  0.00000000000E+00 0. -1.
         11    1    3    3    0    0  0.32079551991E+01 -0.22775618805E+01 -0.76770664310E+01  0.86264485117E+01  0.51100000000E-03 0. -1.
        -11    1    3    3    0    0  0.14893684188E+01  0.19862962110E+02  0.24738312794E+02  0.31760661237E+02  0.51100000000E-03 0.  1.
         12    1    3    3    0    0  0.25679756195E+01 -0.31289416875E+02 -0.65685773625E+01  0.32074418400E+02  0.00000000000E+00 0. -1.
</event>
<event>
 7    1  0.2455324E-013  0.7246152E+02  0.7816164E-02  0.1226708E+00
        -11   -1    0    0    0    0  0.00000000000E+00  0.00000000000E+00  0.45593999997E+02  0.45594000000E+02  0.51100000000E-03 0. -1.
         11   -1    0    0    0    0 -0.00000000000E+00 -0.00000000000E+00 -0.45593999997E+02  0.45594000000E+02  0.51100000000E-03 0.  1.
    9900012    2    1    2    0    0 -0.57898119894E+01 -0.13421128155E+02 -0.11706078059E+02  0.72461524962E+02  0.69999940946E+02 0.  0.
         12    1    1    2    0    0  0.57898119894E+01  0.13421128155E+02  0.11706078059E+02  0.18726475038E+02  0.00000000000E+00 0. -1.
         11    1    3    3    0    0  0.18336993788E+01  0.12757428905E+02 -0.73023551945E-01  0.12888746191E+02  0.51100000000E-03 0. -1.
        -11    1    3    3    0    0  0.65169630110E+01  0.17725786086E+01 -0.24718881664E+02  0.25624908835E+02  0.51100000000E-03 0.  1.
         12    1    3    3    0    0 -0.14140474379E+02 -0.27951135668E+02  0.13085827157E+02  0.33947869936E+02  0.00000000000E+00 0. -1.
</event>
<event>
 7    1  0.2153242E-013  0.7246142E+02  0.7816164E-02  0.1226708E+00
        -11   -1    0    0    0    0  0.00000000000E+00  0.00000000000E+00  0.45593999997E+02  0.45594000000E+02  0.51100000000E-03 0.  1.
         11   -1    0    0    0    0 -0.00000000000E+00 -0.00000000000E+00 -0.45593999997E+02  0.45594000000E+02  0.51100000000E-03 0. -1.
    9900012    2    1    2    0    0 -0.12189285305E+02 -0.14035154241E+02  0.22628542407E+01  0.72461421559E+02  0.69999806244E+02 0.  0.
         12    1    1    2    0    0  0.12189285305E+02  0.14035154241E+02 -0.22628542407E+01  0.18726578441E+02  0.00000000000E+00 0. -1.
         11    1    3    3    0    0 -0.15660127074E+02  0.34138916751E+00  0.20290727152E+02  0.25633371514E+02  0.51100000000E-03 0. -1.
        -11    1    3    3    0    0  0.69891550956E+01 -0.97790305819E+00  0.11908095926E+02  0.13842230029E+02  0.51100000000E-03 0.  1.
         12    1    3    3    0    0 -0.35183133263E+01 -0.13398640350E+02 -0.29935968837E+02  0.32985820016E+02  0.00000000000E+00 0. -1.
</event>
<event>
 7    1  0.2153242E-013  0.7246161E+02  0.7816164E-02  0.1226708E+00
        -11   -1    0    0    0    0  0.00000000000E+00  0.00000000000E+00  0.45593999997E+02  0.45594000000E+02  0.51100000000E-03 0. -1.
         11   -1    0    0    0    0 -0.00000000000E+00 -0.00000000000E+00 -0.45593999997E+02  0.45594000000E+02  0.51100000000E-03 0.  1.
    9900012    2    1    2    0    0 -0.67605833550E+01  0.11718273905E+02 -0.12948143580E+02  0.72461605452E+02  0.70000045800E+02 0.  0.
         12    1    1    2    0    0  0.67605833550E+01 -0.11718273905E+02  0.12948143580E+02  0.18726394548E+02  0.00000000000E+00 0. -1.
         11    1    3    3    0    0 -0.19704762797E+02 -0.16066855515E+02  0.20973330582E+01  0.25511180475E+02  0.51100000000E-03 0. -1.
        -11    1    3    3    0    0 -0.10957408330E+01  0.13629145672E+02  0.84982302012E+01  0.16098887431E+02  0.51100000000E-03 0.  1.
         12    1    3    3    0    0  0.14039920275E+02  0.14155983748E+02 -0.23543706839E+02  0.30851537546E+02  0.00000000000E+00 0. -1.
</event>
<event>
 7    1  0.2153242E-013  0.7246154E+02  0.7816164E-02  0.1226708E+00
        -11   -1    0    0    0    0  0.00000000000E+00  0.00000000000E+00  0.45593999997E+02  0.45594000000E+02  0.51100000000E-03 0. -1.
         11   -1    0    0    0    0 -0.00000000000E+00 -0.00000000000E+00 -0.45593999997E+02  0.45594000000E+02  0.51100000000E-03 0.  1.
    9900012    2    1    2    0    0  0.17119156873E+02  0.62579034543E+01 -0.42957252074E+01  0.72461544309E+02  0.69999966149E+02 0.  0.
         12    1    1    2    0    0 -0.17119156873E+02 -0.62579034543E+01  0.42957252074E+01  0.18726455691E+02  0.00000000000E+00 0. -1.
         11    1    3    3    0    0 -0.55183861480E+01  0.99803126720E+01 -0.10477227330E+02  0.15486494745E+02  0.51100000000E-03 0. -1.
        -11    1    3    3    0    0  0.31753712676E+02  0.10542936417E+02 -0.85501670899E+01  0.34533420545E+02  0.51100000000E-03 0.  1.
         12    1    3    3    0    0 -0.91161696551E+01 -0.14265345634E+02  0.14731669212E+02  0.22441629019E+02  0.00000000000E+00 0. -1.
</event>
<event>
 7    1  0.2153242E-013  0.7246151E+02  0.7816164E-02  0.1226708E+00
        -11   -1    0    0    0    0  0.00000000000E+00  0.00000000000E+00  0.45593999997E+02  0.45594000000E+02  0.51100000000E-03 0.  1.
         11   -1    0    0    0    0 -0.00000000000E+00 -0.00000000000E+00 -0.45593999997E+02  0.45594000000E+02  0.51100000000E-03 0. -1.
    9900012    2    1    2    0    0 -0.94833527076E+01  0.14460877009E+02 -0.71854287491E+01  0.72461512642E+02  0.69999924898E+02 0.  0.
         12    1    1    2    0    0  0.94833527076E+01 -0.14460877009E+02  0.71854287491E+01  0.18726487358E+02  0.00000000000E+00 0. -1.
         11    1    3    3    0    0  0.23723037920E+00  0.99317098527E+01  0.14922774058E+01  0.10045995768E+02  0.51100000000E-03 0. -1.
        -11    1    3    3    0    0 -0.52171006924E+01  0.31291200924E+02  0.48512338087E+01  0.32091928340E+02  0.51100000000E-03 0.  1.
         12    1    3    3    0    0 -0.45034823944E+01 -0.26762033767E+02 -0.13528939964E+02  0.30323588534E+02  0.00000000000E+00 0. -1.
</event>
<event>
 7    1  0.2153242E-013  0.7246134E+02  0.7816164E-02  0.1226709E+00
        -11   -1    0    0    0    0  0.00000000000E+00  0.00000000000E+00  0.45593999997E+02  0.45594000000E+02  0.51100000000E-03 0.  1.
         11   -1    0    0    0    0 -0.00000000000E+00 -0.00000000000E+00 -0.45593999997E+02  0.45594000000E+02  0.51100000000E-03 0. -1.
    9900012    2    1    2    0    0  0.45189146168E+01  0.19467350349E+01  0.18068683274E+02  0.72461343015E+02  0.69999703925E+02 0.  0.
         12    1    1    2    0    0 -0.45189146168E+01 -0.19467350349E+01 -0.18068683274E+02  0.18726656985E+02  0.00000000000E+00 0. -1.
         11    1    3    3    0    0 -0.37300231186E+01  0.47379319667E+01  0.21245357462E+02  0.22084525934E+02  0.51100000000E-03 0. -1.
        -11    1    3    3    0    0 -0.10118611478E+01  0.81976292767E+01  0.20824233965E+02  0.22402538009E+02  0.51100000000E-03 0.  1.
         12    1    3    3    0    0  0.92607988833E+01 -0.10988826208E+02 -0.24000908153E+02  0.27974279072E+02  0.00000000000E+00 0. -1.
</event>
<event>
 7    1  0.2153242E-013  0.7246158E+02  0.7816164E-02  0.1226708E+00
        -11   -1    0    0    0    0  0.00000000000E+00  0.00000000000E+00  0.45593999997E+02  0.45594000000E+02  0.51100000000E-03 0. -1.
         11   -1    0    0    0    0 -0.00000000000E+00 -0.00000000000E+00 -0.45593999997E+02  0.45594000000E+02  0.51100000000E-03 0.  1.
    9900012    2    1    2    0    0 -0.52749253008E+01 -0.75238799104E+01 -0.16317023028E+02  0.72461578924E+02  0.70000011242E+02 0.  0.
         12    1    1    2    0    0  0.52749253008E+01  0.75238799104E+01  0.16317023028E+02  0.18726421076E+02  0.00000000000E+00 0. -1.
         11    1    3    3    0    0 -0.74423345992E-01  0.12136041689E+02  0.19850136457E+01  0.12297533336E+02  0.51100000000E-03 0. -1.
        -11    1    3    3    0    0  0.16596506384E+02 -0.25360451834E+02  0.12484721409E+01  0.30334060466E+02  0.51100000000E-03 0.  1.
         12    1    3    3    0    0 -0.21797008339E+02  0.57005302350E+01 -0.19550508814E+02  0.29829985122E+02  0.00000000000E+00 0. -1.
</event>
<event>
 7    1  0.2153242E-013  0.7246151E+02  0.7816164E-02  0.1226708E+00
        -11   -1    0    0    0    0  0.00000000000E+00  0.00000000000E+00  0.45593999997E+02  0.45594000000E+02  0.51100000000E-03 0. -1.
         11   -1    0    0    0    0 -0.00000000000E+00 -0.00000000000E+00 -0.45593999997E+02  0.45594000000E+02  0.51100000000E-03 0.  1.
    9900012    2    1    2    0    0 -0.38764307791E+01  0.81437331265E+00 -0.18302776234E+02  0.72461507073E+02  0.69999917642E+02 0.  0.
         12    1    1    2    0    0  0.38764307791E+01 -0.81437331265E+00  0.18302776234E+02  0.18726492927E+02  0.00000000000E+00 0. -1.
         11    1    3    3    0    0  0.30617101296E+01 -0.27997957663E+02 -0.41035171066E+01  0.28462230326E+02  0.51100000000E-03 0. -1.
        -11    1    3    3    0    0  0.29687875719E+01  0.16967366667E+02 -0.20970625969E+02  0.27138024708E+02  0.51100000000E-03 0.  1.
         12    1    3    3    0    0 -0.99069284806E+01  0.11844964309E+02  0.67713668417E+01  0.16861252039E+02  0.00000000000E+00 0. -1.
</event>
<event>
 7    1  0.2153242E-013  0.7246158E+02  0.7816164E-02  0.1226708E+00
        -11   -1    0    0    0    0  0.00000000000E+00  0.00000000000E+00  0.45593999997E+02  0.45594000000E+02  0.51100000000E-03 0.  1.
         11   -1    0    0    0    0 -0.00000000000E+00 -0.00000000000E+00 -0.45593999997E+02  0.45594000000E+02  0.51100000000E-03 0. -1.
    9900012    2    1    2    0    0  0.36857438499E+00  0.16314632536E+02  0.91856344231E+01  0.72461575846E+02  0.70000007232E+02 0.  0.
         12    1    1    2    0    0 -0.36857438499E+00 -0.16314632536E+02 -0.91856344231E+01  0.18726424154E+02  0.00000000000E+00 0. -1.
         11    1    3    3    0    0 -0.22305464387E+01  0.30282781155E+02 -0.17390992763E+02  0.34992410626E+02  0.51100000000E-03 0. -1.
        -11    1    3    3    0    0 -0.23173637984E+01  0.28127900062E+01 -0.18559322523E+01  0.40897979632E+01  0.51100000000E-03 0.  1.
        -12    1    3    3    0    0  0.49164846221E+01 -0.16780938626E+02  0.28432559438E+02  0.33379367256E+02  0.00000000000E+00 0.  1.
</event>
<event>
 7    1  0.2886612E-013  0.7246155E+02  0.7816164E-02  0.1226708E+00
        -11   -1    0    0    0    0  0.00000000000E+00  0.00000000000E+00  0.45593999997E+02  0.45594000000E+02  0.51100000000E-03 0. -1.
         11   -1    0    0    0    0 -0.00000000000E+00 -0.00000000000E+00 -0.45593999997E+02  0.45594000000E+02  0.51100000000E-03 0.  1.
    9900012    2    1    2    0    0  0.10635426906E+02  0.37894267595E+00 -0.15408573270E+02  0.72461547233E+02  0.69999969959E+02 0.  0.
         12    1    1    2    0    0 -0.10635426906E+02 -0.37894267595E+00  0.15408573270E+02  0.18726452767E+02  0.00000000000E+00 0. -1.
         11    1    3    3    0    0  0.15171133605E+01  0.76961901452E+01 -0.10273573245E+02  0.12925915178E+02  0.51100000000E-03 0. -1.
        -11    1    3    3    0    0  0.14157682906E+02  0.23043619252E+02 -0.90320866576E+01  0.28513627674E+02  0.51100000000E-03 0.  1.
         12    1    3    3    0    0 -0.50393693604E+01 -0.30360866721E+02  0.38970866330E+01  0.31022004381E+02  0.00000000000E+00 0. -1.
</event>
<event>
 7    1  0.2153242E-013  0.7246158E+02  0.7816164E-02  0.1226708E+00
        -11   -1    0    0    0    0  0.00000000000E+00  0.00000000000E+00  0.45593999997E+02  0.45594000000E+02  0.51100000000E-03 0. -1.
         11   -1    0    0    0    0 -0.00000000000E+00 -0.00000000000E+00 -0.45593999997E+02  0.45594000000E+02  0.51100000000E-03 0.  1.
    9900012    2    1    2    0    0  0.20541451278E+01 -0.10940836482E+02 -0.15058460130E+02  0.72461584523E+02  0.70000018535E+02 0.  0.
         12    1    1    2    0    0 -0.20541451278E+01  0.10940836482E+02  0.15058460130E+02  0.18726415477E+02  0.00000000000E+00 0. -1.
         11    1    3    3    0    0  0.17557061318E+02 -0.20486626457E+02  0.72339647734E+01  0.27933537411E+02  0.51100000000E-03 0. -1.
        -11    1    3    3    0    0  0.52786298184E+00  0.14117168474E+02  0.28012115316E+01  0.14402078716E+02  0.51100000000E-03 0.  1.
        -12    1    3    3    0    0 -0.16030779172E+02 -0.45713784983E+01 -0.25093636435E+02  0.30125968396E+02  0.00000000000E+00 0.  1.
</event>
<event>
 7    1  0.2153242E-013  0.7246158E+02  0.7816164E-02  0.1226708E+00
        -11   -1    0    0    0    0  0.00000000000E+00  0.00000000000E+00  0.45593999997E+02  0.45594000000E+02  0.51100000000E-03 0.  1.
         11   -1    0    0    0    0 -0.00000000000E+00 -0.00000000000E+00 -0.45593999997E+02  0.45594000000E+02  0.51100000000E-03 0. -1.
    9900012    2    1    2    0    0  0.76626886677E+01 -0.12722962523E+02  0.11405630049E+02  0.72461575627E+02  0.70000006946E+02 0.  0.
         12    1    1    2    0    0 -0.76626886677E+01  0.12722962523E+02 -0.11405630049E+02  0.18726424373E+02  0.00000000000E+00 0. -1.
         11    1    3    3    0    0  0.38483146264E+01 -0.15108359827E+02  0.45066982769E+01  0.16229060100E+02  0.51100000000E-03 0. -1.
        -11    1    3    3    0    0 -0.15037560854E+02  0.11057995503E+02  0.23248465325E+02  0.29814403251E+02  0.51100000000E-03 0.  1.
         12    1    3    3    0    0  0.18851934895E+02 -0.86725981994E+01 -0.16349533553E+02  0.26418112276E+02  0.00000000000E+00 0. -1.
</event>
<event>
 7    1  0.2153242E-013  0.7246156E+02  0.7816164E-02  0.1226708E+00
        -11   -1    0    0    0    0  0.00000000000E+00  0.00000000000E+00  0.45593999997E+02  0.45594000000E+02  0.51100000000E-03 0. -1.
         11   -1    0    0    0    0 -0.00000000000E+00 -0.00000000000E+00 -0.45593999997E+02  0.45594000000E+02  0.51100000000E-03 0.  1.
    9900012    2    1    2    0    0  0.17909261865E+02  0.31623128749E+01 -0.44651677491E+01  0.72461558632E+02  0.69999984808E+02 0.  0.
         12    1    1    2    0    0 -0.17909261865E+02 -0.31623128749E+01  0.44651677491E+01  0.18726441368E+02  0.00000000000E+00 0. -1.
         11    1    3    3    0    0  0.68224282247E+01 -0.53753942717E-01 -0.37733687484E+00  0.68330666429E+01  0.51100000000E-03 0. -1.
        -11    1    3    3    0    0  0.93657997231E+01  0.31571205850E+02 -0.13659914759E+02  0.35651823442E+02  0.51100000000E-03 0.  1.
         12    1    3    3    0    0  0.17210339172E+01 -0.28355139032E+02  0.95720838850E+01  0.29976668547E+02  0.00000000000E+00 0. -1.
</event>
<event>
 7    1  0.2153242E-013  0.7246159E+02  0.7816164E-02  0.1226708E+00
        -11   -1    0    0    0    0  0.00000000000E+00  0.00000000000E+00  0.45593999997E+02  0.45594000000E+02  0.51100000000E-03 0.  1.
         11   -1    0    0    0    0 -0.00000000000E+00 -0.00000000000E+00 -0.45593999997E+02  0.45594000000E+02  0.51100000000E-03 0. -1.
    9900012    2    1    2    0    0  0.20609862486E+01  0.70329824395E+01  0.17232752300E+02  0.72461594629E+02  0.70000031700E+02 0.  0.
         12    1    1    2    0    0 -0.20609862486E+01 -0.70329824395E+01 -0.17232752300E+02  0.18726405371E+02  0.00000000000E+00 0. -1.
         11    1    3    3    0    0 -0.18536547552E+02 -0.59848542811E+01 -0.44579577346E+01  0.19982378821E+02  0.51100000000E-03 0. -1.
        -11    1    3    3    0    0  0.73961843042E+00 -0.12731871162E+02  0.14245754788E+02  0.19120384631E+02  0.51100000000E-03 0.  1.
         12    1    3    3    0    0  0.19857915370E+02  0.25749707883E+02  0.74449552467E+01  0.33358831177E+02  0.00000000000E+00 0. -1.
</event>
<event>
 7    1  0.2153242E-013  0.7246155E+02  0.7816164E-02  0.1226708E+00
        -11   -1    0    0    0    0  0.00000000000E+00  0.00000000000E+00  0.45593999997E+02  0.45594000000E+02  0.51100000000E-03 0. -1.
         11   -1    0    0    0    0 -0.00000000000E+00 -0.00000000000E+00 -0.45593999997E+02  0.45594000000E+02  0.51100000000E-03 0.  1.
    9900012    2    1    2    0    0 -0.14810839910E+01 -0.13976879447E+01 -0.18615395424E+02  0.72461545766E+02  0.69999968047E+02 0.  0.
         12    1    1    2    0    0  0.14810839910E+01  0.13976879447E+01  0.18615395424E+02  0.18726454234E+02  0.00000000000E+00 0. -1.
         11    1    3    3    0    0 -0.95648931617E+01 -0.28869807938E+01  0.17569630658E+02  0.20211723356E+02  0.51100000000E-03 0. -1.
        -11    1    3    3    0    0 -0.14139552004E+02 -0.43679059095E+00 -0.20790048826E+02  0.25146448007E+02  0.51100000000E-03 0.  1.
        -12    1    3    3    0    0  0.22223361175E+02  0.19260834400E+01 -0.15394977256E+02  0.27103374403E+02  0.00000000000E+00 0.  1.
</event>
<event>
 7    1  0.2153242E-013  0.7246154E+02  0.7816164E-02  0.1226708E+00
        -11   -1    0    0    0    0  0.00000000000E+00  0.00000000000E+00  0.45593999997E+02  0.45594000000E+02  0.51100000000E-03 0. -1.
         11   -1    0    0    0    0 -0.00000000000E+00 -0.00000000000E+00 -0.45593999997E+02  0.45594000000E+02  0.51100000000E-03 0.  1.
    9900012    2    1    2    0    0 -0.68184551282E+01  0.80548089636E+00 -0.17422403523E+02  0.72461540796E+02  0.69999961573E+02 0.  0.
         12    1    1    2    0    0  0.68184551282E+01 -0.80548089636E+00  0.17422403523E+02  0.18726459204E+02  0.00000000000E+00 0. -1.
         11    1    3    3    0    0  0.10944408031E+02 -0.54995029186E+01  0.86020173620E+01  0.14967274383E+02  0.51100000000E-03 0. -1.
        -11    1    3    3    0    0  0.14297360232E+02  0.11953320633E+02 -0.79664331616E+01  0.20267225793E+02  0.51100000000E-03 0.  1.
        -12    1    3    3    0    0 -0.32060223391E+02 -0.56483368179E+01 -0.18057987723E+02  0.37227040620E+02  0.00000000000E+00 0.  1.
</event>
<event>
 7    1  0.2153242E-013  0.7246139E+02  0.7816164E-02  0.1226709E+00
        -11   -1    0    0    0    0  0.00000000000E+00  0.00000000000E+00  0.45593999997E+02  0.45594000000E+02  0.51100000000E-03 0.  1.
         11   -1    0    0    0    0 -0.00000000000E+00 -0.00000000000E+00 -0.45593999997E+02  0.45594000000E+02  0.51100000000E-03 0. -1.
    9900012    2    1    2    0    0 -0.17843405321E+02  0.39204401330E+01 -0.41145032121E+01  0.72461385224E+02  0.69999758911E+02 0.  0.
         12    1    1    2    0    0  0.17843405321E+02 -0.39204401330E+01  0.41145032121E+01  0.18726614776E+02  0.00000000000E+00 0. -1.
         11    1    3    3    0    0  0.12386606317E+02  0.22204468438E+02 -0.79898732291E+01  0.26651538589E+02  0.51100000000E-03 0.  1.
        -11    1    3    3    0    0 -0.16256546479E+02 -0.21675678082E+01 -0.11050253328E+02  0.19775787026E+02  0.51100000000E-03 0. -1.
        -12    1    3    3    0    0 -0.13973465160E+02 -0.16116460497E+02  0.14925623345E+02  0.26034059609E+02  0.00000000000E+00 0.  1.
</event>
<event>
 7    1  0.2153242E-013  0.7246137E+02  0.7816164E-02  0.1226709E+00
        -11   -1    0    0    0    0  0.00000000000E+00  0.00000000000E+00  0.45593999997E+02  0.45594000000E+02  0.51100000000E-03 0.  1.
         11   -1    0    0    0    0 -0.00000000000E+00 -0.00000000000E+00 -0.45593999997E+02  0.45594000000E+02  0.51100000000E-03 0. -1.
    9900012    2    1    2    0    0 -0.16845535850E+02  0.49876532679E+01  0.64836730834E+01  0.72461367098E+02  0.69999735298E+02 0.  0.
         12    1    1    2    0    0  0.16845535850E+02 -0.49876532679E+01 -0.64836730834E+01  0.18726632902E+02  0.00000000000E+00 0. -1.
         11    1    3    3    0    0 -0.76731318227E+01 -0.48221387169E+01 -0.15693499059E+01  0.91974362277E+01  0.51100000000E-03 0. -1.
        -11    1    3    3    0    0 -0.28861549542E+02  0.19447755482E+02  0.18010932630E+02  0.39186706033E+02  0.51100000000E-03 0.  1.
         12    1    3    3    0    0  0.19689145514E+02 -0.96379634969E+01 -0.99579096411E+01  0.24077224837E+02  0.00000000000E+00 0. -1.
</event>
<event>
 7    1  0.2153242E-013  0.7246143E+02  0.7816164E-02  0.1226708E+00
        -11   -1    0    0    0    0  0.00000000000E+00  0.00000000000E+00  0.45593999997E+02  0.45594000000E+02  0.51100000000E-03 0.  1.
         11   -1    0    0    0    0 -0.00000000000E+00 -0.00000000000E+00 -0.45593999997E+02  0.45594000000E+02  0.51100000000E-03 0. -1.
    9900012    2    1    2    0    0  0.33892900071E+01 -0.10955902582E+02  0.14804234031E+02  0.72461429748E+02  0.69999816912E+02 0.  0.
         12    1    1    2    0    0 -0.33892900071E+01  0.10955902582E+02 -0.14804234031E+02  0.18726570252E+02  0.00000000000E+00 0. -1.
         11    1    3    3    0    0  0.15863304085E+02 -0.13574887159E+02  0.19050555616E+02  0.28263857618E+02  0.51100000000E-03 0. -1.
        -11    1    3    3    0    0  0.57578434549E+01  0.19391298416E+01  0.15897972030E+02  0.17019356648E+02  0.51100000000E-03 0.  1.
        -12    1    3    3    0    0 -0.18231857533E+02  0.67985473497E+00 -0.20144293615E+02  0.27178215482E+02  0.00000000000E+00 0.  1.
</event>
<event>
 7    1  0.2153242E-013  0.7246161E+02  0.7816164E-02  0.1226708E+00
        -11   -1    0    0    0    0  0.00000000000E+00  0.00000000000E+00  0.45593999997E+02  0.45594000000E+02  0.51100000000E-03 0. -1.
         11   -1    0    0    0    0 -0.00000000000E+00 -0.00000000000E+00 -0.45593999997E+02  0.45594000000E+02  0.51100000000E-03 0.  1.
    9900012    2    1    2    0    0  0.12837383476E+02 -0.30025275126E+01 -0.13299027740E+02  0.72461608868E+02  0.70000050250E+02 0.  0.
         12    1    1    2    0    0 -0.12837383476E+02  0.30025275126E+01  0.13299027740E+02  0.18726391132E+02  0.00000000000E+00 0. -1.
         11    1    3    3    0    0  0.43558500258E+01  0.76204507046E+01 -0.28416412798E+02  0.29741170369E+02  0.51100000000E-03 0. -1.
        -11    1    3    3    0    0  0.13227493004E+02  0.88057119755E+01  0.16198383191E+02  0.22691292445E+02  0.51100000000E-03 0.  1.
         12    1    3    3    0    0 -0.47459595534E+01 -0.19428690193E+02 -0.10809981334E+01  0.20029146054E+02  0.00000000000E+00 0. -1.
</event>
<event>
 7    1  0.2153242E-013  0.7246159E+02  0.7816164E-02  0.1226708E+00
        -11   -1    0    0    0    0  0.00000000000E+00  0.00000000000E+00  0.45593999997E+02  0.45594000000E+02  0.51100000000E-03 0.  1.
         11   -1    0    0    0    0 -0.00000000000E+00 -0.00000000000E+00 -0.45593999997E+02  0.45594000000E+02  0.51100000000E-03 0. -1.
    9900012    2    1    2    0    0  0.17757197307E+02 -0.56968698959E+01  0.17047416073E+01  0.72461587456E+02  0.70000022356E+02 0.  0.
         12    1    1    2    0    0 -0.17757197307E+02  0.56968698959E+01 -0.17047416073E+01  0.18726412544E+02  0.00000000000E+00 0. -1.
         11    1    3    3    0    0  0.16077754767E+02 -0.19607277066E+02 -0.17527001300E+02  0.30824264583E+02  0.51100000000E-03 0. -1.
        -11    1    3    3    0    0  0.12536971661E+02 -0.62157497239E+01  0.60795688876E+01  0.15256879143E+02  0.51100000000E-03 0.  1.
        -12    1    3    3    0    0 -0.10857529121E+02  0.20126156894E+02  0.13152174020E+02  0.26380443730E+02  0.00000000000E+00 0.  1.
</event>
<event>
 7    1  0.2153242E-013  0.7246160E+02  0.7816164E-02  0.1226708E+00
        -11   -1    0    0    0    0  0.00000000000E+00  0.00000000000E+00  0.45593999997E+02  0.45594000000E+02  0.51100000000E-03 0.  1.
         11   -1    0    0    0    0 -0.00000000000E+00 -0.00000000000E+00 -0.45593999997E+02  0.45594000000E+02  0.51100000000E-03 0. -1.
    9900012    2    1    2    0    0  0.98404092746E+01  0.11275742142E+02  0.11256208084E+02  0.72461595220E+02  0.70000032471E+02 0.  0.
         12    1    1    2    0    0 -0.98404092746E+01 -0.11275742142E+02 -0.11256208084E+02  0.18726404780E+02  0.00000000000E+00 0. -1.
         11    1    3    3    0    0 -0.22192687209E+01 -0.18439801452E+01 -0.44935875756E+01  0.53402009318E+01  0.51100000000E-03 0. -1.
        -11    1    3    3    0    0  0.68377320928E+01 -0.11819613164E+02 -0.19390128171E+02  0.23715710115E+02  0.51100000000E-03 0.  1.
        -12    1    3    3    0    0  0.52219459027E+01  0.24939335451E+02  0.35139923831E+02  0.43405684173E+02  0.00000000000E+00 0.  1.
</event>
<event>
 7    1  0.2153242E-013  0.7246205E+02  0.7816164E-02  0.1226707E+00
        -11   -1    0    0    0    0  0.00000000000E+00  0.00000000000E+00  0.45593999997E+02  0.45594000000E+02  0.51100000000E-03 0.  1.
         11   -1    0    0    0    0 -0.00000000000E+00 -0.00000000000E+00 -0.45593999997E+02  0.45594000000E+02  0.51100000000E-03 0. -1.
    9900012    2    1    2    0    0  0.46403736146E+01  0.40990885889E+01  0.17672734890E+02  0.72462051345E+02  0.70000626654E+02 0.  0.
         12    1    1    2    0    0 -0.46403736146E+01 -0.40990885889E+01 -0.17672734890E+02  0.18725948655E+02  0.00000000000E+00 0. -1.
         11    1    3    3    0    0 -0.41890113883E+00  0.39488293735E+01 -0.10941297395E+01  0.41189624584E+01  0.51100000000E-03 0. -1.
        -11    1    3    3    0    0  0.57904196626E+01  0.26833783604E+02 -0.98911108196E+01  0.29179016019E+02  0.51100000000E-03 0.  1.
         12    1    3    3    0    0 -0.73114490910E+00 -0.26683524388E+02  0.28657975449E+02  0.39164072867E+02  0.00000000000E+00 0. -1.
</event>
<event>
 7    1  0.2153242E-013  0.7246155E+02  0.7816164E-02  0.1226708E+00
        -11   -1    0    0    0    0  0.00000000000E+00  0.00000000000E+00  0.45593999997E+02  0.45594000000E+02  0.51100000000E-03 0. -1.
         11   -1    0    0    0    0 -0.00000000000E+00 -0.00000000000E+00 -0.45593999997E+02  0.45594000000E+02  0.51100000000E-03 0.  1.
    9900012    2    1    2    0    0  0.47337364600E+01 -0.17439999197E+02 -0.49110116387E+01  0.72461551640E+02  0.69999975699E+02 0.  0.
         12    1    1    2    0    0 -0.47337364600E+01  0.17439999197E+02  0.49110116387E+01  0.18726448360E+02  0.00000000000E+00 0. -1.
         11    1    3    3    0    0 -0.26249110067E+00  0.77264612598E+01  0.39378752781E+01  0.86760571197E+01  0.51100000000E-03 0. -1.
        -11    1    3    3    0    0  0.20976768394E+02  0.25478966036E+01  0.13215233864E+02  0.24923061523E+02  0.51100000000E-03 0.  1.
         12    1    3    3    0    0 -0.15980540833E+02 -0.27714357060E+02 -0.22064120781E+02  0.38862432997E+02  0.00000000000E+00 0. -1.
</event>
<event>
 7    1  0.2153242E-013  0.7246147E+02  0.7816164E-02  0.1226708E+00
        -11   -1    0    0    0    0  0.00000000000E+00  0.00000000000E+00  0.45593999997E+02  0.45594000000E+02  0.51100000000E-03 0.  1.
         11   -1    0    0    0    0 -0.00000000000E+00 -0.00000000000E+00 -0.45593999997E+02  0.45594000000E+02  0.51100000000E-03 0. -1.
    9900012    2    1    2    0    0 -0.17341373967E+02  0.43540670228E+01 -0.55679126355E+01  0.72461473311E+02  0.69999873662E+02 0.  0.
         12    1    1    2    0    0  0.17341373967E+02 -0.43540670228E+01  0.55679126355E+01  0.18726526689E+02  0.00000000000E+00 0. -1.
         11    1    3    3    0    0 -0.20876487011E+02 -0.80256978379E+01  0.10574923412E+02  0.24740019021E+02  0.51100000000E-03 0. -1.
        -11    1    3    3    0    0  0.13912884227E+02  0.41525365275E+01  0.10534073372E+02  0.17938188571E+02  0.51100000000E-03 0.  1.
        -12    1    3    3    0    0 -0.10377771183E+02  0.82272283331E+01 -0.26676909419E+02  0.29783265720E+02  0.00000000000E+00 0.  1.
</event>
<event>
 7    1  0.2153242E-013  0.7246140E+02  0.7816164E-02  0.1226708E+00
        -11   -1    0    0    0    0  0.00000000000E+00  0.00000000000E+00  0.45593999997E+02  0.45594000000E+02  0.51100000000E-03 0.  1.
         11   -1    0    0    0    0 -0.00000000000E+00 -0.00000000000E+00 -0.45593999997E+02  0.45594000000E+02  0.51100000000E-03 0. -1.
    9900012    2    1    2    0    0 -0.23933762242E+01  0.17635020901E+02  0.58278065575E+01  0.72461400170E+02  0.69999778381E+02 0.  0.
         12    1    1    2    0    0  0.23933762242E+01 -0.17635020901E+02 -0.58278065575E+01  0.18726599830E+02  0.00000000000E+00 0. -1.
         11    1    3    3    0    0  0.15236089837E+02  0.18299138761E+02 -0.50912442130E+01  0.24349901043E+02  0.51100000000E-03 0. -1.
        -11    1    3    3    0    0  0.10279088339E+02  0.74431394299E+01  0.13988598497E+02  0.18887585072E+02  0.51100000000E-03 0.  1.
         12    1    3    3    0    0 -0.27908554400E+02 -0.81072572897E+01 -0.30695477268E+01  0.29223914055E+02  0.00000000000E+00 0. -1.
</event>
<event>
 7    1  0.2153242E-013  0.7246140E+02  0.7816164E-02  0.1226708E+00
        -11   -1    0    0    0    0  0.00000000000E+00  0.00000000000E+00  0.45593999997E+02  0.45594000000E+02  0.51100000000E-03 0. -1.
         11   -1    0    0    0    0 -0.00000000000E+00 -0.00000000000E+00 -0.45593999997E+02  0.45594000000E+02  0.51100000000E-03 0.  1.
    9900012    2    1    2    0    0 -0.79757189191E+00 -0.16397388723E+02  0.90097221900E+01  0.72461399353E+02  0.69999777317E+02 0.  0.
         12    1    1    2    0    0  0.79757189191E+00  0.16397388723E+02 -0.90097221900E+01  0.18726600647E+02  0.00000000000E+00 0. -1.
         11    1    3    3    0    0 -0.64483658418E+01  0.26639208354E+01  0.77990287117E+01  0.10464355945E+02  0.51100000000E-03 0. -1.
        -11    1    3    3    0    0 -0.25643438955E+02 -0.15612772239E+01 -0.31274038559E+01  0.25880575789E+02  0.51100000000E-03 0.  1.
         12    1    3    3    0    0  0.31294232905E+02 -0.17500032334E+02  0.43380973342E+01  0.36116467619E+02  0.00000000000E+00 0. -1.
</event>
<event>
 7    1  0.2153242E-013  0.7246165E+02  0.7816164E-02  0.1226708E+00
        -11   -1    0    0    0    0  0.00000000000E+00  0.00000000000E+00  0.45593999997E+02  0.45594000000E+02  0.51100000000E-03 0.  1.
         11   -1    0    0    0    0 -0.00000000000E+00 -0.00000000000E+00 -0.45593999997E+02  0.45594000000E+02  0.51100000000E-03 0. -1.
    9900012    2    1    2    0    0 -0.45321887570E+01  0.37586670230E+01  0.17776611245E+02  0.72461649045E+02  0.70000102588E+02 0.  0.
         12    1    1    2    0    0  0.45321887570E+01 -0.37586670230E+01 -0.17776611245E+02  0.18726350955E+02  0.00000000000E+00 0. -1.
         11    1    3    3    0    0 -0.14400881760E+02 -0.26433361677E+02 -0.80176787972E+01  0.31151102365E+02  0.51100000000E-03 0. -1.
        -11    1    3    3    0    0  0.28210602265E+01  0.39209157490E+01  0.22190454850E+01  0.53156489949E+01  0.51100000000E-03 0.  1.
        -12    1    3    3    0    0  0.70476327767E+01  0.26271112951E+02  0.23575244557E+02  0.35994897685E+02  0.00000000000E+00 0.  1.
</event>
<event>
 7    1  0.2153242E-013  0.7246161E+02  0.7816164E-02  0.1226708E+00
        -11   -1    0    0    0    0  0.00000000000E+00  0.00000000000E+00  0.45593999997E+02  0.45594000000E+02  0.51100000000E-03 0.  1.
         11   -1    0    0    0    0 -0.00000000000E+00 -0.00000000000E+00 -0.45593999997E+02  0.45594000000E+02  0.51100000000E-03 0. -1.
    9900012    2    1    2    0    0  0.52250093323E+01  0.11910918360E+02 -0.13472456744E+02  0.72461607144E+02  0.70000048003E+02 0.  0.
         12    1    1    2    0    0 -0.52250093323E+01 -0.11910918360E+02  0.13472456744E+02  0.18726392856E+02  0.00000000000E+00 0. -1.
         11    1    3    3    0    0 -0.10499685812E+02  0.26000444912E+02 -0.28401245047E+02  0.39911116976E+02  0.51100000000E-03 0. -1.
        -11    1    3    3    0    0 -0.47181631598E+01 -0.19850590452E+01  0.33846407878E+01  0.61365557553E+01  0.51100000000E-03 0.  1.
        -12    1    3    3    0    0  0.20442858304E+02 -0.12104467507E+02  0.11544147516E+02  0.26413934412E+02  0.00000000000E+00 0.  1.
</event>
<event>
 7    1  0.2153242E-013  0.7246150E+02  0.7816164E-02  0.1226708E+00
        -11   -1    0    0    0    0  0.00000000000E+00  0.00000000000E+00  0.45593999997E+02  0.45594000000E+02  0.51100000000E-03 0. -1.
         11   -1    0    0    0    0 -0.00000000000E+00 -0.00000000000E+00 -0.45593999997E+02  0.45594000000E+02  0.51100000000E-03 0.  1.
    9900012    2    1    2    0    0  0.88846092851E+00 -0.12160558547E+02 -0.14213138396E+02  0.72461498724E+02  0.69999906766E+02 0.  0.
         12    1    1    2    0    0 -0.88846092851E+00  0.12160558547E+02  0.14213138396E+02  0.18726501276E+02  0.00000000000E+00 0. -1.
         11    1    3    3    0    0 -0.15757860439E+02  0.14301116127E+02 -0.10747322401E+02  0.23839820200E+02  0.51100000000E-03 0. -1.
        -11    1    3    3    0    0  0.11530750812E+02  0.55226670471E+01 -0.91683746007E+01  0.15732678052E+02  0.51100000000E-03 0.  1.
        -12    1    3    3    0    0  0.51155705558E+01 -0.31984341721E+02  0.57025586065E+01  0.32889000472E+02  0.00000000000E+00 0.  1.
</event>
<event>
 7    1  0.2153242E-013  0.7246156E+02  0.7816164E-02  0.1226708E+00
        -11   -1    0    0    0    0  0.00000000000E+00  0.00000000000E+00  0.45593999997E+02  0.45594000000E+02  0.51100000000E-03 0.  1.
         11   -1    0    0    0    0 -0.00000000000E+00 -0.00000000000E+00 -0.45593999997E+02  0.45594000000E+02  0.51100000000E-03 0. -1.
    9900012    2    1    2    0    0  0.80847041897E+01 -0.45406406540E+01  0.16269591189E+02  0.72461562623E+02  0.69999990007E+02 0.  0.
         12    1    1    2    0    0 -0.80847041897E+01  0.45406406540E+01 -0.16269591189E+02  0.18726437377E+02  0.00000000000E+00 0. -1.
         11    1    3    3    0    0 -0.77049989408E+01 -0.88464736688E+00 -0.10121722806E+02  0.12751426683E+02  0.51100000000E-03 0. -1.
        -11    1    3    3    0    0  0.61353272221E+01 -0.16507288987E+02 -0.97687246466E+01  0.20138540447E+02  0.51100000000E-03 0.  1.
        -12    1    3    3    0    0  0.96543759083E+01  0.12851295700E+02  0.36160038641E+02  0.39571595493E+02  0.00000000000E+00 0.  1.
</event>
<event>
 7    1  0.2153242E-013  0.7246161E+02  0.7816164E-02  0.1226708E+00
        -11   -1    0    0    0    0  0.00000000000E+00  0.00000000000E+00  0.45593999997E+02  0.45594000000E+02  0.51100000000E-03 0. -1.
         11   -1    0    0    0    0 -0.00000000000E+00 -0.00000000000E+00 -0.45593999997E+02  0.45594000000E+02  0.51100000000E-03 0.  1.
    9900012    2    1    2    0    0  0.23819734412E+01  0.61991453323E+01 -0.17509273613E+02  0.72461605185E+02  0.70000045451E+02 0.  0.
         12    1    1    2    0    0 -0.23819734412E+01 -0.61991453323E+01  0.17509273613E+02  0.18726394815E+02  0.00000000000E+00 0. -1.
         11    1    3    3    0    0  0.23807774749E+02  0.87082247252E+01 -0.25169838108E+01  0.25475056902E+02  0.51100000000E-03 0. -1.
        -11    1    3    3    0    0  0.51711827350E+01  0.11986975605E+02 -0.96356070995E+01  0.16225709213E+02  0.51100000000E-03 0.  1.
        -12    1    3    3    0    0 -0.26596984043E+02 -0.14496054998E+02 -0.53566827028E+01  0.30760839070E+02  0.00000000000E+00 0.  1.
</event>
<event>
 7    1  0.2153242E-013  0.7246147E+02  0.7816164E-02  0.1226708E+00
        -11   -1    0    0    0    0  0.00000000000E+00  0.00000000000E+00  0.45593999997E+02  0.45594000000E+02  0.51100000000E-03 0. -1.
         11   -1    0    0    0    0 -0.00000000000E+00 -0.00000000000E+00 -0.45593999997E+02  0.45594000000E+02  0.51100000000E-03 0.  1.
    9900012    2    1    2    0    0 -0.17232655939E+02  0.40196751825E+01 -0.61286903470E+01  0.72461466294E+02  0.69999864519E+02 0.  0.
         12    1    1    2    0    0  0.17232655939E+02 -0.40196751825E+01  0.61286903470E+01  0.18726533706E+02  0.00000000000E+00 0. -1.
         11    1    3    3    0    0 -0.14385954619E+02  0.29547314370E+02 -0.12005304609E+02  0.34987523716E+02  0.51100000000E-03 0. -1.
        -11    1    3    3    0    0 -0.32802951609E+01  0.27092660298E+01 -0.55641105420E+01  0.70042690659E+01  0.51100000000E-03 0.  1.
        -12    1    3    3    0    0  0.43359384110E+00 -0.28236905217E+02  0.11440724804E+02  0.30469673511E+02  0.00000000000E+00 0.  1.
</event>
<event>
 7    1  0.2153242E-013  0.7246157E+02  0.7816164E-02  0.1226708E+00
        -11   -1    0    0    0    0  0.00000000000E+00  0.00000000000E+00  0.45593999997E+02  0.45594000000E+02  0.51100000000E-03 0. -1.
         11   -1    0    0    0    0 -0.00000000000E+00 -0.00000000000E+00 -0.45593999997E+02  0.45594000000E+02  0.51100000000E-03 0.  1.
    9900012    2    1    2    0    0 -0.12774187105E+02 -0.52361544895E+01 -0.12652356176E+02  0.72461567162E+02  0.69999995919E+02 0.  0.
         12    1    1    2    0    0  0.12774187105E+02  0.52361544895E+01  0.12652356176E+02  0.18726432838E+02  0.00000000000E+00 0. -1.
         11    1    3    3    0    0 -0.21726467229E+01  0.52649334669E+01 -0.74696844447E+01  0.93934074839E+01  0.51100000000E-03 0. -1.
        -11    1    3    3    0    0 -0.27147971733E+01  0.23991119948E+02 -0.12114657973E+02  0.27013124553E+02  0.51100000000E-03 0.  1.
        -12    1    3    3    0    0 -0.78867432090E+01 -0.34492207905E+02  0.69319862418E+01  0.36055035125E+02  0.00000000000E+00 0.  1.
</event>
<event>
 7    1  0.2153242E-013  0.7246155E+02  0.7816164E-02  0.1226708E+00
        -11   -1    0    0    0    0  0.00000000000E+00  0.00000000000E+00  0.45593999997E+02  0.45594000000E+02  0.51100000000E-03 0.  1.
         11   -1    0    0    0    0 -0.00000000000E+00 -0.00000000000E+00 -0.45593999997E+02  0.45594000000E+02  0.51100000000E-03 0. -1.
    9900012    2    1    2    0    0 -0.16694478304E+02 -0.43086247834E+01  0.73082159621E+01  0.72461551487E+02  0.69999975500E+02 0.  0.
         12    1    1    2    0    0  0.16694478304E+02  0.43086247834E+01 -0.73082159621E+01  0.18726448513E+02  0.00000000000E+00 0. -1.
         11    1    3    3    0    0 -0.46019253870E+01 -0.25690182562E+01  0.46921368346E+01  0.70564665665E+01  0.51100000000E-03 0. -1.
        -11    1    3    3    0    0 -0.23647598419E+02  0.77032082026E+01  0.27068167322E+02  0.36759135056E+02  0.51100000000E-03 0.  1.
         12    1    3    3    0    0  0.11555045503E+02 -0.94428147299E+01 -0.24452088194E+02  0.28645949865E+02  0.00000000000E+00 0. -1.
</event>
<event>
 7    1  0.2153242E-013  0.7246161E+02  0.7816164E-02  0.1226708E+00
        -11   -1    0    0    0    0  0.00000000000E+00  0.00000000000E+00  0.45593999997E+02  0.45594000000E+02  0.51100000000E-03 0.  1.
         11   -1    0    0    0    0 -0.00000000000E+00 -0.00000000000E+00 -0.45593999997E+02  0.45594000000E+02  0.51100000000E-03 0. -1.
    9900012    2    1    2    0    0 -0.35034184585E+01 -0.18062827386E+01  0.18306857742E+02  0.72461611170E+02  0.70000053248E+02 0.  0.
         12    1    1    2    0    0  0.35034184585E+01  0.18062827386E+01 -0.18306857742E+02  0.18726388830E+02  0.00000000000E+00 0. -1.
         11    1    3    3    0    0  0.12732400754E+02  0.13579396304E+02 -0.16212811884E+01  0.18685357526E+02  0.51100000000E-03 0. -1.
        -11    1    3    3    0    0 -0.90753203238E+01  0.15426290599E+02  0.10578985647E+02  0.20790546366E+02  0.51100000000E-03 0.  1.
        -12    1    3    3    0    0 -0.71604988882E+01 -0.30811969641E+02  0.93491532832E+01  0.32985707278E+02  0.00000000000E+00 0.  1.
</event>
<event>
 7    1  0.2153242E-013  0.7246155E+02  0.7816164E-02  0.1226708E+00
        -11   -1    0    0    0    0  0.00000000000E+00  0.00000000000E+00  0.45593999997E+02  0.45594000000E+02  0.51100000000E-03 0.  1.
         11   -1    0    0    0    0 -0.00000000000E+00 -0.00000000000E+00 -0.45593999997E+02  0.45594000000E+02  0.51100000000E-03 0. -1.
    9900012    2    1    2    0    0 -0.11189622880E+02  0.85190832416E+01  0.12365171852E+02  0.72461550406E+02  0.69999974091E+02 0.  0.
         12    1    1    2    0    0  0.11189622880E+02 -0.85190832416E+01 -0.12365171852E+02  0.18726449594E+02  0.00000000000E+00 0. -1.
         11    1    3    3    0    0 -0.22197356554E+02 -0.51187090912E+01  0.12231318601E+02  0.25855927284E+02  0.51100000000E-03 0. -1.
        -11    1    3    3    0    0 -0.97640326469E+01  0.14182583381E+02  0.13516453021E+02  0.21890100672E+02  0.51100000000E-03 0.  1.
         12    1    3    3    0    0  0.20771766320E+02 -0.54479104796E+00 -0.13382599770E+02  0.24715522450E+02  0.00000000000E+00 0. -1.
</event>
<event>
 7    1  0.2153242E-013  0.7246154E+02  0.7816164E-02  0.1226708E+00
        -11   -1    0    0    0    0  0.00000000000E+00  0.00000000000E+00  0.45593999997E+02  0.45594000000E+02  0.51100000000E-03 0.  1.
         11   -1    0    0    0    0 -0.00000000000E+00 -0.00000000000E+00 -0.45593999997E+02  0.45594000000E+02  0.51100000000E-03 0. -1.
    9900012    2    1    2    0    0 -0.10305104383E+02 -0.13733873291E+02  0.74743345209E+01  0.72461544691E+02  0.69999966647E+02 0.  0.
         12    1    1    2    0    0  0.10305104383E+02  0.13733873291E+02 -0.74743345209E+01  0.18726455309E+02  0.00000000000E+00 0. -1.
         11    1    3    3    0    0 -0.87639771876E+01  0.85504676962E+01  0.20684134712E+02  0.24036456125E+02  0.51100000000E-03 0. -1.
        -11    1    3    3    0    0 -0.12973422797E+01  0.45232603239E+01  0.11212571957E+02  0.12159965094E+02  0.51100000000E-03 0.  1.
         12    1    3    3    0    0 -0.24378491531E+00 -0.26807601311E+02 -0.24422372148E+02  0.36265123472E+02  0.00000000000E+00 0. -1.
</event>
<event>
 7    1  0.2153242E-013  0.7246155E+02  0.7816164E-02  0.1226708E+00
        -11   -1    0    0    0    0  0.00000000000E+00  0.00000000000E+00  0.45593999997E+02  0.45594000000E+02  0.51100000000E-03 0.  1.
         11   -1    0    0    0    0 -0.00000000000E+00 -0.00000000000E+00 -0.45593999997E+02  0.45594000000E+02  0.51100000000E-03 0. -1.
    9900012    2    1    2    0    0  0.15355191493E+02 -0.80128484851E+00  0.10689060333E+02  0.72461548815E+02  0.69999972019E+02 0.  0.
         12    1    1    2    0    0 -0.15355191493E+02  0.80128484851E+00 -0.10689060333E+02  0.18726451185E+02  0.00000000000E+00 0. -1.
         11    1    3    3    0    0 -0.40380341719E+01 -0.11546462387E+02  0.21365817710E+02  0.24619599515E+02  0.51100000000E-03 0. -1.
        -11    1    3    3    0    0  0.10591357939E+02  0.81667463830E+01  0.15283540282E+02  0.20309091887E+02  0.51100000000E-03 0.  1.
        -12    1    3    3    0    0  0.88018677263E+01  0.25784311553E+01 -0.25960297659E+02  0.27532857412E+02  0.00000000000E+00 0.  1.
</event>
<event>
 7    1  0.2153242E-013  0.7246153E+02  0.7816164E-02  0.1226708E+00
        -11   -1    0    0    0    0  0.00000000000E+00  0.00000000000E+00  0.45593999997E+02  0.45594000000E+02  0.51100000000E-03 0.  1.
         11   -1    0    0    0    0 -0.00000000000E+00 -0.00000000000E+00 -0.45593999997E+02  0.45594000000E+02  0.51100000000E-03 0. -1.
    9900012    2    1    2    0    0 -0.15217895742E+02  0.87360008405E+01 -0.65405424323E+01  0.72461527913E+02  0.69999944791E+02 0.  0.
         12    1    1    2    0    0  0.15217895742E+02 -0.87360008405E+01  0.65405424323E+01  0.18726472087E+02  0.00000000000E+00 0. -1.
         11    1    3    3    0    0 -0.21987591278E+02 -0.42335095141E+01 -0.74995082453E+01  0.23613966147E+02  0.51100000000E-03 0. -1.
        -11    1    3    3    0    0 -0.86059759874E+01  0.13550143612E+02 -0.18204886571E+02  0.24271116784E+02  0.51100000000E-03 0.  1.
        -12    1    3    3    0    0  0.15375671523E+02 -0.58063325751E+00  0.19163852384E+02  0.24576444982E+02  0.00000000000E+00 0.  1.
</event>
<event>
 7    1  0.2153242E-013  0.7246158E+02  0.7816164E-02  0.1226708E+00
        -11   -1    0    0    0    0  0.00000000000E+00  0.00000000000E+00  0.45593999997E+02  0.45594000000E+02  0.51100000000E-03 0. -1.
         11   -1    0    0    0    0 -0.00000000000E+00 -0.00000000000E+00 -0.45593999997E+02  0.45594000000E+02  0.51100000000E-03 0.  1.
    9900012    2    1    2    0    0  0.14523943466E+02 -0.11820331697E+02 -0.11726295268E+00  0.72461576801E+02  0.70000008476E+02 0.  0.
         12    1    1    2    0    0 -0.14523943466E+02  0.11820331697E+02  0.11726295268E+00  0.18726423199E+02  0.00000000000E+00 0. -1.
         11    1    3    3    0    0  0.21105797160E+01 -0.26413364248E+02 -0.14986824392E+02  0.30442162591E+02  0.51100000000E-03 0. -1.
        -11    1    3    3    0    0  0.39691128809E+01 -0.79936058226E+01  0.15513286478E+02  0.17897308421E+02  0.51100000000E-03 0.  1.
        -12    1    3    3    0    0  0.84442508694E+01  0.22586638373E+02 -0.64372503816E+00  0.24122105788E+02  0.00000000000E+00 0.  1.
</event>
<event>
 7    1  0.3072414E-013  0.7246158E+02  0.7816164E-02  0.1226708E+00
        -11   -1    0    0    0    0  0.00000000000E+00  0.00000000000E+00  0.45593999997E+02  0.45594000000E+02  0.51100000000E-03 0. -1.
         11   -1    0    0    0    0 -0.00000000000E+00 -0.00000000000E+00 -0.45593999997E+02  0.45594000000E+02  0.51100000000E-03 0.  1.
    9900012    2    1    2    0    0  0.96896841055E+01 -0.48549455654E+01 -0.15271482627E+02  0.72461584002E+02  0.70000017857E+02 0.  0.
         12    1    1    2    0    0 -0.96896841055E+01  0.48549455654E+01  0.15271482627E+02  0.18726415998E+02  0.00000000000E+00 0. -1.
         11    1    3    3    0    0 -0.57029917356E+01 -0.50349495133E+01 -0.47496436813E+01  0.89684974605E+01  0.51100000000E-03 0. -1.
        -11    1    3    3    0    0 -0.32804429012E+01 -0.21892986731E+02 -0.23071999258E+02  0.31974698179E+02  0.51100000000E-03 0.  1.
         12    1    3    3    0    0  0.18673118742E+02  0.22072990679E+02  0.12550160313E+02  0.31518388362E+02  0.00000000000E+00 0. -1.
</event>
<event>
 7    1  0.2153242E-013  0.7246156E+02  0.7816164E-02  0.1226708E+00
        -11   -1    0    0    0    0  0.00000000000E+00  0.00000000000E+00  0.45593999997E+02  0.45594000000E+02  0.51100000000E-03 0. -1.
         11   -1    0    0    0    0 -0.00000000000E+00 -0.00000000000E+00 -0.45593999997E+02  0.45594000000E+02  0.51100000000E-03 0.  1.
    9900012    2    1    2    0    0  0.53158954430E+01 -0.16999843029E+02 -0.57815498482E+01  0.72461555435E+02  0.69999980644E+02 0.  0.
         12    1    1    2    0    0 -0.53158954430E+01  0.16999843029E+02  0.57815498482E+01  0.18726444565E+02  0.00000000000E+00 0. -1.
         11    1    3    3    0    0 -0.22197394343E+02 -0.28348839597E+02  0.28688578058E+01  0.36119404307E+02  0.51100000000E-03 0. -1.
        -11    1    3    3    0    0  0.27261372467E+00  0.12124387785E+01  0.43336904439E+01  0.45083477194E+01  0.51100000000E-03 0.  1.
        -12    1    3    3    0    0  0.27240676061E+02  0.10136557789E+02 -0.12984098098E+02  0.31833803409E+02  0.00000000000E+00 0.  1.
</event>
<event>
 7    1  0.2153242E-013  0.7246164E+02  0.7816164E-02  0.1226708E+00
        -11   -1    0    0    0    0  0.00000000000E+00  0.00000000000E+00  0.45593999997E+02  0.45594000000E+02  0.51100000000E-03 0.  1.
         11   -1    0    0    0    0 -0.00000000000E+00 -0.00000000000E+00 -0.45593999997E+02  0.45594000000E+02  0.51100000000E-03 0. -1.
    9900012    2    1    2    0    0 -0.12156877408E+02 -0.73529275898E+01  0.12199234292E+02  0.72461640777E+02  0.70000091817E+02 0.  0.
         12    1    1    2    0    0  0.12156877408E+02  0.73529275898E+01 -0.12199234292E+02  0.18726359223E+02  0.00000000000E+00 0. -1.
         11    1    3    3    0    0  0.13816951785E+00  0.64138232261E+01 -0.63463867757E+01  0.90240148803E+01  0.51100000000E-03 0. -1.
        -11    1    3    3    0    0  0.20842429539E+02  0.46169391891E+00 -0.35446164960E+01  0.21146733477E+02  0.51100000000E-03 0.  1.
         12    1    3    3    0    0 -0.33137476465E+02 -0.14228444735E+02  0.22090237563E+02  0.42290892420E+02  0.00000000000E+00 0. -1.
</event>
<event>
 7    1  0.2153242E-013  0.7246158E+02  0.7816164E-02  0.1226708E+00
        -11   -1    0    0    0    0  0.00000000000E+00  0.00000000000E+00  0.45593999997E+02  0.45594000000E+02  0.51100000000E-03 0.  1.
         11   -1    0    0    0    0 -0.00000000000E+00 -0.00000000000E+00 -0.45593999997E+02  0.45594000000E+02  0.51100000000E-03 0. -1.
    9900012    2    1    2    0    0  0.31444262059E+01  0.11150082959E+02 -0.14712813474E+02  0.72461584260E+02  0.70000018192E+02 0.  0.
         12    1    1    2    0    0 -0.31444262059E+01 -0.11150082959E+02  0.14712813474E+02  0.18726415740E+02  0.00000000000E+00 0. -1.
         11    1    3    3    0    0  0.23233747525E+01 -0.73566449360E+01 -0.86795699223E+01  0.11612632314E+02  0.51100000000E-03 0. -1.
        -11    1    3    3    0    0  0.22376992152E+02  0.24613459793E+02 -0.15286368054E+02  0.36609086704E+02  0.51100000000E-03 0.  1.
         12    1    3    3    0    0 -0.21555940699E+02 -0.61067318984E+01  0.92531245023E+01  0.24239865242E+02  0.00000000000E+00 0. -1.
</event>
<event>
 7    1  0.2153242E-013  0.7246159E+02  0.7816164E-02  0.1226708E+00
        -11   -1    0    0    0    0  0.00000000000E+00  0.00000000000E+00  0.45593999997E+02  0.45594000000E+02  0.51100000000E-03 0. -1.
         11   -1    0    0    0    0 -0.00000000000E+00 -0.00000000000E+00 -0.45593999997E+02  0.45594000000E+02  0.51100000000E-03 0.  1.
    9900012    2    1    2    0    0 -0.67988169007E+01 -0.19367496894E+01 -0.17340800751E+02  0.72461594010E+02  0.70000030895E+02 0.  0.
         12    1    1    2    0    0  0.67988169007E+01  0.19367496894E+01  0.17340800751E+02  0.18726405990E+02  0.00000000000E+00 0. -1.
         11    1    3    3    0    0 -0.12615667822E+01  0.72165407802E+00  0.98647370289E+01  0.99712272196E+01  0.51100000000E-03 0. -1.
        -11    1    3    3    0    0 -0.94953257885E+01  0.20669318311E+02  0.42393626157E+01  0.23137720867E+02  0.51100000000E-03 0.  1.
        -12    1    3    3    0    0  0.39580756700E+01 -0.23327722078E+02 -0.31444900395E+02  0.39352645924E+02  0.00000000000E+00 0.  1.
</event>
<event>
 7    1  0.2153242E-013  0.7246154E+02  0.7816164E-02  0.1226708E+00
        -11   -1    0    0    0    0  0.00000000000E+00  0.00000000000E+00  0.45593999997E+02  0.45594000000E+02  0.51100000000E-03 0.  1.
         11   -1    0    0    0    0 -0.00000000000E+00 -0.00000000000E+00 -0.45593999997E+02  0.45594000000E+02  0.51100000000E-03 0. -1.
    9900012    2    1    2    0    0  0.12512070438E+02 -0.24339320644E+00  0.13930871559E+02  0.72461539329E+02  0.69999959661E+02 0.  0.
         12    1    1    2    0    0 -0.12512070438E+02  0.24339320644E+00 -0.13930871559E+02  0.18726460671E+02  0.00000000000E+00 0. -1.
         11    1    3    3    0    0 -0.59123966732E+01 -0.37830971356E+01 -0.10304451888E+02  0.12467958427E+02  0.51100000000E-03 0. -1.
        -11    1    3    3    0    0  0.88755991873E+01 -0.23750495923E+02  0.15803452607E+02  0.29876603423E+02  0.51100000000E-03 0.  1.
         12    1    3    3    0    0  0.95488679238E+01  0.27290199852E+02  0.84318708404E+01  0.30116977479E+02  0.00000000000E+00 0. -1.
</event>
<event>
 7    1  0.2153242E-013  0.7246163E+02  0.7816164E-02  0.1226708E+00
        -11   -1    0    0    0    0  0.00000000000E+00  0.00000000000E+00  0.45593999997E+02  0.45594000000E+02  0.51100000000E-03 0.  1.
         11   -1    0    0    0    0 -0.00000000000E+00 -0.00000000000E+00 -0.45593999997E+02  0.45594000000E+02  0.51100000000E-03 0. -1.
    9900012    2    1    2    0    0  0.38339245992E+01 -0.13580479980E+02  0.12310509819E+02  0.72461626450E+02  0.70000073154E+02 0.  0.
         12    1    1    2    0    0 -0.38339245992E+01  0.13580479980E+02 -0.12310509819E+02  0.18726373550E+02  0.00000000000E+00 0. -1.
         11    1    3    3    0    0  0.20599926037E+02  0.23721233819E+01  0.14015887877E+00  0.20736527357E+02  0.51100000000E-03 0. -1.
        -11    1    3    3    0    0  0.89854436024E+01  0.98351399823E+01  0.65695257825E+01  0.14853512866E+02  0.51100000000E-03 0.  1.
        -12    1    3    3    0    0 -0.25751445040E+02 -0.25787743344E+02  0.56008251573E+01  0.36871586227E+02  0.00000000000E+00 0.  1.
</event>
<event>
 7    1  0.2153242E-013  0.7246157E+02  0.7816164E-02  0.1226708E+00
        -11   -1    0    0    0    0  0.00000000000E+00  0.00000000000E+00  0.45593999997E+02  0.45594000000E+02  0.51100000000E-03 0.  1.
         11   -1    0    0    0    0 -0.00000000000E+00 -0.00000000000E+00 -0.45593999997E+02  0.45594000000E+02  0.51100000000E-03 0. -1.
    9900012    2    1    2    0    0 -0.15955530555E+02 -0.93800332792E+01 -0.28487055601E+01  0.72461572071E+02  0.70000002315E+02 0.  0.
         12    1    1    2    0    0  0.15955530555E+02  0.93800332792E+01  0.28487055601E+01  0.18726427929E+02  0.00000000000E+00 0. -1.
         11    1    3    3    0    0 -0.29064070036E+02 -0.86722275885E+01  0.15408354006E+00  0.30330701285E+02  0.51100000000E-03 0. -1.
        -11    1    3    3    0    0 -0.43035296664E+01 -0.15878712125E+02  0.57591829210E+01  0.17430492090E+02  0.51100000000E-03 0.  1.
        -12    1    3    3    0    0  0.17412069148E+02  0.15170906434E+02 -0.87619720211E+01  0.24700378696E+02  0.00000000000E+00 0.  1.
</event>
<event>
 7    1  0.2153242E-013  0.7246146E+02  0.7816164E-02  0.1226708E+00
        -11   -1    0    0    0    0  0.00000000000E+00  0.00000000000E+00  0.45593999997E+02  0.45594000000E+02  0.51100000000E-03 0.  1.
         11   -1    0    0    0    0 -0.00000000000E+00 -0.00000000000E+00 -0.45593999997E+02  0.45594000000E+02  0.51100000000E-03 0. -1.
    9900012    2    1    2    0    0  0.46366516950E+01  0.16950755011E+02 -0.64696768820E+01  0.72461458585E+02  0.69999854478E+02 0.  0.
         12    1    1    2    0    0 -0.46366516950E+01 -0.16950755011E+02  0.64696768820E+01  0.18726541415E+02  0.00000000000E+00 0. -1.
         11    1    3    3    0    0  0.54112668784E+01  0.15139219284E+02  0.97457678198E+01  0.18800472345E+02  0.51100000000E-03 0. -1.
        -11    1    3    3    0    0  0.29515557508E+01 -0.15557947827E+02  0.12309182823E+02  0.20056854289E+02  0.51100000000E-03 0.  1.
         12    1    3    3    0    0 -0.37261709342E+01  0.17369483555E+02 -0.28524627524E+02  0.33604131951E+02  0.00000000000E+00 0. -1.
</event>
<event>
 7    1  0.2153242E-013  0.7246155E+02  0.7816164E-02  0.1226708E+00
        -11   -1    0    0    0    0  0.00000000000E+00  0.00000000000E+00  0.45593999997E+02  0.45594000000E+02  0.51100000000E-03 0. -1.
         11   -1    0    0    0    0 -0.00000000000E+00 -0.00000000000E+00 -0.45593999997E+02  0.45594000000E+02  0.51100000000E-03 0.  1.
    9900012    2    1    2    0    0  0.67551102783E+00  0.15259736834E+02  0.10833467016E+02  0.72461551031E+02  0.69999974906E+02 0.  0.
         12    1    1    2    0    0 -0.67551102783E+00 -0.15259736834E+02 -0.10833467016E+02  0.18726448969E+02  0.00000000000E+00 0. -1.
         11    1    3    3    0    0  0.92204104705E+01  0.14019597313E+02 -0.21532802171E+02  0.27298839676E+02  0.51100000000E-03 0. -1.
        -11    1    3    3    0    0  0.74959953394E+01 -0.13651469322E+00 -0.15168067492E+01  0.76491362496E+01  0.51100000000E-03 0.  1.
         12    1    3    3    0    0 -0.16040894782E+02  0.13766542145E+01  0.33883075937E+02  0.37513575105E+02  0.00000000000E+00 0. -1.
</event>
<event>
 7    1  0.2153242E-013  0.7246142E+02  0.7816164E-02  0.1226708E+00
        -11   -1    0    0    0    0  0.00000000000E+00  0.00000000000E+00  0.45593999997E+02  0.45594000000E+02  0.51100000000E-03 0. -1.
         11   -1    0    0    0    0 -0.00000000000E+00 -0.00000000000E+00 -0.45593999997E+02  0.45594000000E+02  0.51100000000E-03 0.  1.
    9900012    2    1    2    0    0  0.52968230988E+01 -0.16702826054E+02 -0.66063577452E+01  0.72461422742E+02  0.69999807786E+02 0.  0.
         12    1    1    2    0    0 -0.52968230988E+01  0.16702826054E+02  0.66063577452E+01  0.18726577258E+02  0.00000000000E+00 0. -1.
         11    1    3    3    0    0 -0.76680165759E+01 -0.15594532219E+01  0.19656493463E+02  0.21156750886E+02  0.51100000000E-03 0. -1.
        -11    1    3    3    0    0  0.46745759562E+00  0.13138893011E+02 -0.74683234841E+01  0.15120346626E+02  0.51100000000E-03 0.  1.
        -12    1    3    3    0    0  0.12497382079E+02 -0.28282265843E+02 -0.18794527724E+02  0.36184325231E+02  0.00000000000E+00 0.  1.
</event>
<event>
 7    1  0.2153242E-013  0.7246162E+02  0.7816164E-02  0.1226708E+00
        -11   -1    0    0    0    0  0.00000000000E+00  0.00000000000E+00  0.45593999997E+02  0.45594000000E+02  0.51100000000E-03 0. -1.
         11   -1    0    0    0    0 -0.00000000000E+00 -0.00000000000E+00 -0.45593999997E+02  0.45594000000E+02  0.51100000000E-03 0.  1.
    9900012    2    1    2    0    0  0.49507361835E+01 -0.85725425324E+01 -0.15895875505E+02  0.72461624689E+02  0.70000070859E+02 0.  0.
         12    1    1    2    0    0 -0.49507361835E+01  0.85725425324E+01  0.15895875505E+02  0.18726375311E+02  0.00000000000E+00 0. -1.
         11    1    3    3    0    0 -0.77360277375E+01 -0.31542756866E+01  0.53698592485E+00  0.83716148028E+01  0.51100000000E-03 0. -1.
        -11    1    3    3    0    0  0.27953467709E+02 -0.24548120426E+02 -0.69707437660E+01  0.37849674270E+02  0.51100000000E-03 0.  1.
         12    1    3    3    0    0 -0.15266703788E+02  0.19129853581E+02 -0.94621176640E+01  0.26240335616E+02  0.00000000000E+00 0. -1.
</event>
<event>
 7    1  0.2153242E-013  0.7246124E+02  0.7816164E-02  0.1226709E+00
        -11   -1    0    0    0    0  0.00000000000E+00  0.00000000000E+00  0.45593999997E+02  0.45594000000E+02  0.51100000000E-03 0.  1.
         11   -1    0    0    0    0 -0.00000000000E+00 -0.00000000000E+00 -0.45593999997E+02  0.45594000000E+02  0.51100000000E-03 0. -1.
    9900012    2    1    2    0    0  0.12773721874E+02  0.95186391287E+01  0.98447507421E+01  0.72461238973E+02  0.69999568392E+02 0.  0.
         12    1    1    2    0    0 -0.12773721874E+02 -0.95186391287E+01 -0.98447507421E+01  0.18726761027E+02  0.00000000000E+00 0. -1.
         11    1    3    3    0    0  0.12545171821E+02 -0.92143054704E+01 -0.23954865080E+02  0.28567819703E+02  0.51100000000E-03 0. -1.
        -11    1    3    3    0    0 -0.62231287949E+01 -0.16289350769E+01  0.56816491861E+01  0.85826510600E+01  0.51100000000E-03 0.  1.
        -12    1    3    3    0    0  0.64516788475E+01  0.20361879676E+02  0.28117966636E+02  0.35310768211E+02  0.00000000000E+00 0.  1.
</event>
<event>
 7    1  0.2153242E-013  0.7246150E+02  0.7816164E-02  0.1226708E+00
        -11   -1    0    0    0    0  0.00000000000E+00  0.00000000000E+00  0.45593999997E+02  0.45594000000E+02  0.51100000000E-03 0. -1.
         11   -1    0    0    0    0 -0.00000000000E+00 -0.00000000000E+00 -0.45593999997E+02  0.45594000000E+02  0.51100000000E-03 0.  1.
    9900012    2    1    2    0    0  0.13307566364E+02  0.10374260030E+02 -0.81218896831E+01  0.72461503111E+02  0.69999912482E+02 0.  0.
         12    1    1    2    0    0 -0.13307566364E+02 -0.10374260030E+02  0.81218896831E+01  0.18726496889E+02  0.00000000000E+00 0. -1.
         11    1    3    3    0    0  0.70388806128E+01  0.30973953098E+01  0.50187833656E+01  0.91830215462E+01  0.51100000000E-03 0. -1.
        -11    1    3    3    0    0  0.18464911639E+02 -0.22686495730E+02 -0.31489206618E+01  0.29420158938E+02  0.51100000000E-03 0.  1.
         12    1    3    3    0    0 -0.12196225888E+02  0.29963360450E+02 -0.99917523869E+01  0.33858322627E+02  0.00000000000E+00 0. -1.
</event>
<event>
 7    1  0.2153242E-013  0.7246153E+02  0.7816164E-02  0.1226708E+00
        -11   -1    0    0    0    0  0.00000000000E+00  0.00000000000E+00  0.45593999997E+02  0.45594000000E+02  0.51100000000E-03 0.  1.
         11   -1    0    0    0    0 -0.00000000000E+00 -0.00000000000E+00 -0.45593999997E+02  0.45594000000E+02  0.51100000000E-03 0. -1.
    9900012    2    1    2    0    0  0.43652090016E+01 -0.53752978746E+01  0.17399187104E+02  0.72461532400E+02  0.69999950636E+02 0.  0.
         12    1    1    2    0    0 -0.43652090016E+01  0.53752978746E+01 -0.17399187104E+02  0.18726467600E+02  0.00000000000E+00 0. -1.
         11    1    3    3    0    0  0.16298773622E+02 -0.83053402029E+01 -0.14442959452E+02  0.23307247274E+02  0.51100000000E-03 0.  1.
        -11    1    3    3    0    0 -0.57916704723E+00  0.15007967910E+02  0.21830964821E+01  0.15176970902E+02  0.51100000000E-03 0. -1.
        -12    1    3    3    0    0 -0.11354397574E+02 -0.12077925582E+02  0.29659050074E+02  0.33977314225E+02  0.00000000000E+00 0.  1.
</event>
<event>
 7    1  0.2153242E-013  0.7246159E+02  0.7816164E-02  0.1226708E+00
        -11   -1    0    0    0    0  0.00000000000E+00  0.00000000000E+00  0.45593999997E+02  0.45594000000E+02  0.51100000000E-03 0. -1.
         11   -1    0    0    0    0 -0.00000000000E+00 -0.00000000000E+00 -0.45593999997E+02  0.45594000000E+02  0.51100000000E-03 0.  1.
    9900012    2    1    2    0    0  0.99068038850E+01 -0.10204089303E+02 -0.12182376935E+02  0.72461587917E+02  0.70000022957E+02 0.  0.
         12    1    1    2    0    0 -0.99068038850E+01  0.10204089303E+02  0.12182376935E+02  0.18726412083E+02  0.00000000000E+00 0. -1.
         11    1    3    3    0    0 -0.95421151590E+01  0.25615998303E+01 -0.14120916196E+02  0.17234094983E+02  0.51100000000E-03 0. -1.
        -11    1    3    3    0    0 -0.72767078741E+01  0.10891976301E+02 -0.11159080614E+02  0.17207867550E+02  0.51100000000E-03 0.  1.
         12    1    3    3    0    0  0.26725626918E+02 -0.23657665434E+02  0.13097619874E+02  0.38019625384E+02  0.00000000000E+00 0. -1.
</event>
<event>
 7    1  0.2153242E-013  0.7246160E+02  0.7816164E-02  0.1226708E+00
        -11   -1    0    0    0    0  0.00000000000E+00  0.00000000000E+00  0.45593999997E+02  0.45594000000E+02  0.51100000000E-03 0. -1.
         11   -1    0    0    0    0 -0.00000000000E+00 -0.00000000000E+00 -0.45593999997E+02  0.45594000000E+02  0.51100000000E-03 0.  1.
    9900012    2    1    2    0    0 -0.76548543839E+00 -0.15898318867E+02 -0.98658864111E+01  0.72461595502E+02  0.70000032838E+02 0.  0.
         12    1    1    2    0    0  0.76548543839E+00  0.15898318867E+02  0.98658864111E+01  0.18726404498E+02  0.00000000000E+00 0. -1.
         11    1    3    3    0    0  0.16025680621E+02 -0.20825833581E+02  0.48680263335E+01  0.26725184084E+02  0.51100000000E-03 0. -1.
        -11    1    3    3    0    0  0.19121077743E+01 -0.12735762958E+02  0.44714576039E+01  0.13632672065E+02  0.51100000000E-03 0.  1.
        -12    1    3    3    0    0 -0.18703273833E+02  0.17663277672E+02 -0.19205370349E+02  0.32103739353E+02  0.00000000000E+00 0.  1.
</event>
<event>
 7    1  0.2153242E-013  0.7246157E+02  0.7816164E-02  0.1226708E+00
        -11   -1    0    0    0    0  0.00000000000E+00  0.00000000000E+00  0.45593999997E+02  0.45594000000E+02  0.51100000000E-03 0.  1.
         11   -1    0    0    0    0 -0.00000000000E+00 -0.00000000000E+00 -0.45593999997E+02  0.45594000000E+02  0.51100000000E-03 0. -1.
    9900012    2    1    2    0    0  0.18612209368E+02  0.19901264417E+01 -0.55162008121E+00  0.72461568799E+02  0.69999998052E+02 0.  0.
         12    1    1    2    0    0 -0.18612209368E+02 -0.19901264417E+01  0.55162008121E+00  0.18726431201E+02  0.00000000000E+00 0. -1.
         11    1    3    3    0    0  0.53753341644E+01  0.39684887085E+01  0.38263398912E+01  0.76996102000E+01  0.51100000000E-03 0. -1.
        -11    1    3    3    0    0  0.14531647970E+02 -0.78162146477E+01  0.27639915347E+02  0.32190478791E+02  0.51100000000E-03 0.  1.
         12    1    3    3    0    0 -0.12947727667E+01  0.58378523810E+01 -0.32017875319E+02  0.32571479808E+02  0.00000000000E+00 0. -1.
</event>
<event>
 7    1  0.2153242E-013  0.7246144E+02  0.7816164E-02  0.1226708E+00
        -11   -1    0    0    0    0  0.00000000000E+00  0.00000000000E+00  0.45593999997E+02  0.45594000000E+02  0.51100000000E-03 0.  1.
         11   -1    0    0    0    0 -0.00000000000E+00 -0.00000000000E+00 -0.45593999997E+02  0.45594000000E+02  0.51100000000E-03 0. -1.
    9900012    2    1    2    0    0  0.49021244878E+01 -0.10921557039E+02  0.14400439719E+02  0.72461444077E+02  0.69999835578E+02 0.  0.
         12    1    1    2    0    0 -0.49021244878E+01  0.10921557039E+02 -0.14400439719E+02  0.18726555923E+02  0.00000000000E+00 0. -1.
         11    1    3    3    0    0 -0.85137449695E+01  0.48096855368E+01 -0.13665129323E+01  0.98734130990E+01  0.51100000000E-03 0. -1.
        -11    1    3    3    0    0  0.23147188538E+02  0.60497605092E+01 -0.11341984770E+02  0.26477019436E+02  0.51100000000E-03 0.  1.
        -12    1    3    3    0    0 -0.97313190810E+01 -0.21781003085E+02  0.27108937421E+02  0.36111011542E+02  0.00000000000E+00 0.  1.
</event>
<event>
 7    1  0.2153242E-013  0.7246158E+02  0.7816164E-02  0.1226708E+00
        -11   -1    0    0    0    0  0.00000000000E+00  0.00000000000E+00  0.45593999997E+02  0.45594000000E+02  0.51100000000E-03 0.  1.
         11   -1    0    0    0    0 -0.00000000000E+00 -0.00000000000E+00 -0.45593999997E+02  0.45594000000E+02  0.51100000000E-03 0. -1.
    9900012    2    1    2    0    0  0.10547098041E+02 -0.15272075883E+02 -0.24902508030E+01  0.72461576745E+02  0.70000008404E+02 0.  0.
         12    1    1    2    0    0 -0.10547098041E+02  0.15272075883E+02  0.24902508030E+01  0.18726423255E+02  0.00000000000E+00 0. -1.
         11    1    3    3    0    0  0.26316660192E+01  0.17308506582E+02 -0.12362025098E+02  0.21431979165E+02  0.51100000000E-03 0. -1.
        -11    1    3    3    0    0 -0.17720530027E+01 -0.66688459165E+01 -0.13273969650E+02  0.14960345859E+02  0.51100000000E-03 0.  1.
        -12    1    3    3    0    0  0.96874850244E+01 -0.25911736548E+02  0.23145743945E+02  0.36069251722E+02  0.00000000000E+00 0.  1.
</event>
<event>
 7    1  0.2153242E-013  0.7246149E+02  0.7816164E-02  0.1226708E+00
        -11   -1    0    0    0    0  0.00000000000E+00  0.00000000000E+00  0.45593999997E+02  0.45594000000E+02  0.51100000000E-03 0. -1.
         11   -1    0    0    0    0 -0.00000000000E+00 -0.00000000000E+00 -0.45593999997E+02  0.45594000000E+02  0.51100000000E-03 0.  1.
    9900012    2    1    2    0    0 -0.13638944891E+02 -0.12645529261E+02  0.21799147552E+01  0.72461487875E+02  0.69999892634E+02 0.  0.
         12    1    1    2    0    0  0.13638944891E+02  0.12645529261E+02 -0.21799147552E+01  0.18726512125E+02  0.00000000000E+00 0. -1.
         11    1    3    3    0    0  0.53330287098E+01  0.12315666244E+02  0.16682494970E+01  0.13524048465E+02  0.51100000000E-03 0. -1.
        -11    1    3    3    0    0 -0.28369790125E+02  0.27778654396E+01  0.60249927181E+01  0.29135237526E+02  0.51100000000E-03 0.  1.
        -12    1    3    3    0    0  0.93978165245E+01 -0.27739060944E+02 -0.55133274599E+01  0.29802201884E+02  0.00000000000E+00 0.  1.
</event>
<event>
 7    1  0.2153242E-013  0.7246158E+02  0.7816164E-02  0.1226708E+00
        -11   -1    0    0    0    0  0.00000000000E+00  0.00000000000E+00  0.45593999997E+02  0.45594000000E+02  0.51100000000E-03 0.  1.
         11   -1    0    0    0    0 -0.00000000000E+00 -0.00000000000E+00 -0.45593999997E+02  0.45594000000E+02  0.51100000000E-03 0. -1.
    9900012    2    1    2    0    0 -0.74823874487E+01  0.11260907788E+02  0.12957028670E+02  0.72461581279E+02  0.70000014310E+02 0.  0.
         12    1    1    2    0    0  0.74823874487E+01 -0.11260907788E+02 -0.12957028670E+02  0.18726418721E+02  0.00000000000E+00 0. -1.
         11    1    3    3    0    0 -0.88056121942E+01  0.40712118206E+01 -0.95493765819E+01  0.13612647250E+02  0.51100000000E-03 0. -1.
        -11    1    3    3    0    0 -0.65469532659E+01 -0.13524584875E+02  0.31526686221E+02  0.34924331597E+02  0.51100000000E-03 0.  1.
         12    1    3    3    0    0  0.78701780114E+01  0.20714280843E+02 -0.90202809696E+01  0.23924602432E+02  0.00000000000E+00 0. -1.
</event>
<event>
 7    1  0.2153242E-013  0.7246155E+02  0.7816164E-02  0.1226708E+00
        -11   -1    0    0    0    0  0.00000000000E+00  0.00000000000E+00  0.45593999997E+02  0.45594000000E+02  0.51100000000E-03 0.  1.
         11   -1    0    0    0    0 -0.00000000000E+00 -0.00000000000E+00 -0.45593999997E+02  0.45594000000E+02  0.51100000000E-03 0. -1.
    9900012    2    1    2    0    0 -0.16945271310E+02  0.70198418008E+01  0.37761642063E+01  0.72461553066E+02  0.69999977556E+02 0.  0.
         12    1    1    2    0    0  0.16945271310E+02 -0.70198418008E+01 -0.37761642063E+01  0.18726446934E+02  0.00000000000E+00 0. -1.
         11    1    3    3    0    0  0.13357596520E+02 -0.12244780818E+01  0.31358882726E+01  0.13775286817E+02  0.51100000000E-03 0. -1.
        -11    1    3    3    0    0 -0.15421484379E+02 -0.91452295454E+01  0.21308193526E+02  0.27847738068E+02  0.51100000000E-03 0.  1.
         12    1    3    3    0    0 -0.14881383451E+02  0.17389549428E+02 -0.20667917592E+02  0.30838528180E+02  0.00000000000E+00 0. -1.
</event>
<event>
 7    1  0.2153242E-013  0.7246158E+02  0.7816164E-02  0.1226708E+00
        -11   -1    0    0    0    0  0.00000000000E+00  0.00000000000E+00  0.45593999997E+02  0.45594000000E+02  0.51100000000E-03 0. -1.
         11   -1    0    0    0    0 -0.00000000000E+00 -0.00000000000E+00 -0.45593999997E+02  0.45594000000E+02  0.51100000000E-03 0.  1.
    9900012    2    1    2    0    0  0.12642689686E+02 -0.13117858631E+02  0.43316212751E+01  0.72461581218E+02  0.70000014229E+02 0.  0.
         12    1    1    2    0    0 -0.12642689686E+02  0.13117858631E+02 -0.43316212751E+01  0.18726418782E+02  0.00000000000E+00 0. -1.
         11    1    3    3    0    0  0.10470684265E+02 -0.78494495874E+01 -0.12100529552E+01  0.13142043837E+02  0.51100000000E-03 0. -1.
        -11    1    3    3    0    0 -0.62023568052E+01  0.17705023845E+02 -0.17548475943E+02  0.25688248431E+02  0.51100000000E-03 0.  1.
         12    1    3    3    0    0  0.83743622259E+01 -0.22973432888E+02  0.23090150173E+02  0.33631288949E+02  0.00000000000E+00 0. -1.
</event>
<event>
 7    1  0.2153242E-013  0.7246157E+02  0.7816164E-02  0.1226708E+00
        -11   -1    0    0    0    0  0.00000000000E+00  0.00000000000E+00  0.45593999997E+02  0.45594000000E+02  0.51100000000E-03 0. -1.
         11   -1    0    0    0    0 -0.00000000000E+00 -0.00000000000E+00 -0.45593999997E+02  0.45594000000E+02  0.51100000000E-03 0.  1.
    9900012    2    1    2    0    0 -0.16037366633E+02 -0.30671588269E+01 -0.91692180175E+01  0.72461570793E+02  0.70000000650E+02 0.  0.
         12    1    1    2    0    0  0.16037366633E+02  0.30671588269E+01  0.91692180175E+01  0.18726429207E+02  0.00000000000E+00 0. -1.
         11    1    3    3    0    0  0.48883256624E+01  0.16301875215E+01 -0.18482844952E+02  0.19187725163E+02  0.51100000000E-03 0. -1.
        -11    1    3    3    0    0 -0.22361275300E+02  0.38571788105E+00 -0.15946406419E+02  0.27467495141E+02  0.51100000000E-03 0.  1.
         12    1    3    3    0    0  0.14355830051E+01 -0.50830642294E+01  0.25260033354E+02  0.25806350490E+02  0.00000000000E+00 0. -1.
</event>
<event>
 7    1  0.2153242E-013  0.7246159E+02  0.7816164E-02  0.1226708E+00
        -11   -1    0    0    0    0  0.00000000000E+00  0.00000000000E+00  0.45593999997E+02  0.45594000000E+02  0.51100000000E-03 0.  1.
         11   -1    0    0    0    0 -0.00000000000E+00 -0.00000000000E+00 -0.45593999997E+02  0.45594000000E+02  0.51100000000E-03 0. -1.
    9900012    2    1    2    0    0  0.41432446014E+01  0.43751411552E+01  0.17730489092E+02  0.72461586050E+02  0.70000020525E+02 0.  0.
         12    1    1    2    0    0 -0.41432446014E+01 -0.43751411552E+01 -0.17730489092E+02  0.18726413950E+02  0.00000000000E+00 0. -1.
         11    1    3    3    0    0  0.31410554061E+01  0.10969711386E+02  0.18819499518E+02  0.22008506522E+02  0.51100000000E-03 0. -1.
        -11    1    3    3    0    0  0.10973368057E+02 -0.25948063251E+02  0.28917831652E+01  0.28321002862E+02  0.51100000000E-03 0.  1.
         12    1    3    3    0    0 -0.99711788614E+01  0.19353493020E+02 -0.39807935910E+01  0.22132076667E+02  0.00000000000E+00 0. -1.
</event>
<event>
 7    1  0.2153242E-013  0.7246140E+02  0.7816164E-02  0.1226708E+00
        -11   -1    0    0    0    0  0.00000000000E+00  0.00000000000E+00  0.45593999997E+02  0.45594000000E+02  0.51100000000E-03 0.  1.
         11   -1    0    0    0    0 -0.00000000000E+00 -0.00000000000E+00 -0.45593999997E+02  0.45594000000E+02  0.51100000000E-03 0. -1.
    9900012    2    1    2    0    0  0.10711399293E+02 -0.65912983200E+00 -0.15346558440E+02  0.72461404396E+02  0.69999783886E+02 0.  0.
         12    1    1    2    0    0 -0.10711399293E+02  0.65912983200E+00  0.15346558440E+02  0.18726595604E+02  0.00000000000E+00 0. -1.
         11    1    3    3    0    0  0.11730381924E+01 -0.36515796206E+01  0.56102412350E+01  0.67959443275E+01  0.51100000000E-03 0. -1.
        -11    1    3    3    0    0 -0.15023599617E+02  0.18447553738E+02  0.75758424962E+01  0.24968263339E+02  0.51100000000E-03 0.  1.
         12    1    3    3    0    0  0.24561960718E+02 -0.15455103949E+02 -0.28532642171E+02  0.40697196730E+02  0.00000000000E+00 0. -1.
</event>
<event>
 7    1  0.2153242E-013  0.7246160E+02  0.7816164E-02  0.1226708E+00
        -11   -1    0    0    0    0  0.00000000000E+00  0.00000000000E+00  0.45593999997E+02  0.45594000000E+02  0.51100000000E-03 0.  1.
         11   -1    0    0    0    0 -0.00000000000E+00 -0.00000000000E+00 -0.45593999997E+02  0.45594000000E+02  0.51100000000E-03 0. -1.
    9900012    2    1    2    0    0  0.14699516166E+02  0.11492050415E+02  0.15922221290E+01  0.72461596993E+02  0.70000034780E+02 0.  0.
         12    1    1    2    0    0 -0.14699516166E+02 -0.11492050415E+02 -0.15922221290E+01  0.18726403007E+02  0.00000000000E+00 0. -1.
         11    1    3    3    0    0  0.29787026625E+02  0.17517580481E+02 -0.14876198940E+02  0.37622252408E+02  0.51100000000E-03 0. -1.
        -11    1    3    3    0    0  0.39037757599E+01 -0.72860300607E+01  0.13130700759E+02  0.15515830687E+02  0.51100000000E-03 0.  1.
        -12    1    3    3    0    0 -0.18991286219E+02  0.12604999955E+01  0.33377203104E+01  0.19323513898E+02  0.00000000000E+00 0.  1.
</event>
<event>
 7    1  0.2153242E-013  0.7246149E+02  0.7816164E-02  0.1226708E+00
        -11   -1    0    0    0    0  0.00000000000E+00  0.00000000000E+00  0.45593999997E+02  0.45594000000E+02  0.51100000000E-03 0.  1.
         11   -1    0    0    0    0 -0.00000000000E+00 -0.00000000000E+00 -0.45593999997E+02  0.45594000000E+02  0.51100000000E-03 0. -1.
    9900012    2    1    2    0    0  0.42811755594E+01 -0.18210425957E+02 -0.85688141832E+00  0.72461486083E+02  0.69999890299E+02 0.  0.
         12    1    1    2    0    0 -0.42811755594E+01  0.18210425957E+02  0.85688141832E+00  0.18726513917E+02  0.00000000000E+00 0. -1.
         11    1    3    3    0    0  0.11135933331E+02 -0.99846089952E+01  0.14944943776E+01  0.15031132414E+02  0.51100000000E-03 0. -1.
        -11    1    3    3    0    0 -0.41818101191E+01 -0.17710787510E+02  0.23524477786E+02  0.29741563265E+02  0.51100000000E-03 0.  1.
         12    1    3    3    0    0 -0.26729476527E+01  0.94849705480E+01 -0.25875853582E+02  0.27688790404E+02  0.00000000000E+00 0. -1.
</event>
<event>
 7    1  0.2153242E-013  0.7246162E+02  0.7816164E-02  0.1226708E+00
        -11   -1    0    0    0    0  0.00000000000E+00  0.00000000000E+00  0.45593999997E+02  0.45594000000E+02  0.51100000000E-03 0.  1.
         11   -1    0    0    0    0 -0.00000000000E+00 -0.00000000000E+00 -0.45593999997E+02  0.45594000000E+02  0.51100000000E-03 0. -1.
    9900012    2    1    2    0    0  0.15175870023E+01  0.17667141366E+02 -0.60204982325E+01  0.72461618787E+02  0.70000063171E+02 0.  0.
         12    1    1    2    0    0 -0.15175870023E+01 -0.17667141366E+02  0.60204982325E+01  0.18726381213E+02  0.00000000000E+00 0. -1.
         11    1    3    3    0    0  0.38479391990E+01  0.24479089172E+02  0.22172527693E+01  0.24878678680E+02  0.51100000000E-03 0.  1.
        -11    1    3    3    0    0 -0.37115442075E+00  0.19831478514E+02 -0.62384405793E+01  0.20792869854E+02  0.51100000000E-03 0. -1.
        -12    1    3    3    0    0 -0.19591977759E+01 -0.26643426320E+02 -0.19993104225E+01  0.26790070253E+02  0.00000000000E+00 0.  1.
</event>
<event>
 7    1  0.2153242E-013  0.7246155E+02  0.7816164E-02  0.1226708E+00
        -11   -1    0    0    0    0  0.00000000000E+00  0.00000000000E+00  0.45593999997E+02  0.45594000000E+02  0.51100000000E-03 0.  1.
         11   -1    0    0    0    0 -0.00000000000E+00 -0.00000000000E+00 -0.45593999997E+02  0.45594000000E+02  0.51100000000E-03 0. -1.
    9900012    2    1    2    0    0 -0.32970571108E+01  0.84444766688E+01  0.16385975715E+02  0.72461548870E+02  0.69999972090E+02 0.  0.
         12    1    1    2    0    0  0.32970571108E+01 -0.84444766688E+01 -0.16385975715E+02  0.18726451130E+02  0.00000000000E+00 0. -1.
         11    1    3    3    0    0  0.14242130746E+02  0.11790357533E+01  0.17495280664E+01  0.14397543617E+02  0.51100000000E-03 0. -1.
        -11    1    3    3    0    0  0.46185148494E+01 -0.16986581981E+02  0.17834328901E+02  0.25058689798E+02  0.51100000000E-03 0.  1.
         12    1    3    3    0    0 -0.22157702706E+02  0.24252022896E+02 -0.31978812518E+01  0.33005315455E+02  0.00000000000E+00 0. -1.
</event>
<event>
 7    1  0.2153242E-013  0.7246156E+02  0.7816164E-02  0.1226708E+00
        -11   -1    0    0    0    0  0.00000000000E+00  0.00000000000E+00  0.45593999997E+02  0.45594000000E+02  0.51100000000E-03 0.  1.
         11   -1    0    0    0    0 -0.00000000000E+00 -0.00000000000E+00 -0.45593999997E+02  0.45594000000E+02  0.51100000000E-03 0. -1.
    9900012    2    1    2    0    0  0.10692717005E+02  0.14464876159E+02  0.52069793439E+01  0.72461562187E+02  0.69999989439E+02 0.  0.
         12    1    1    2    0    0 -0.10692717005E+02 -0.14464876159E+02 -0.52069793439E+01  0.18726437813E+02  0.00000000000E+00 0. -1.
         11    1    3    3    0    0 -0.65747370767E+01  0.23865227067E+02  0.22014888212E+02  0.33127504189E+02  0.51100000000E-03 0. -1.
        -11    1    3    3    0    0  0.12317506909E+02  0.66373785570E+01 -0.17656502456E+02  0.22528378766E+02  0.51100000000E-03 0.  1.
        -12    1    3    3    0    0  0.49499471726E+01 -0.16037729464E+02  0.84859358844E+00  0.16805679232E+02  0.00000000000E+00 0.  1.
</event>
<event>
 7    1  0.2153242E-013  0.7246159E+02  0.7816164E-02  0.1226708E+00
        -11   -1    0    0    0    0  0.00000000000E+00  0.00000000000E+00  0.45593999997E+02  0.45594000000E+02  0.51100000000E-03 0.  1.
         11   -1    0    0    0    0 -0.00000000000E+00 -0.00000000000E+00 -0.45593999997E+02  0.45594000000E+02  0.51100000000E-03 0. -1.
    9900012    2    1    2    0    0  0.68010647560E+01  0.14528356865E+02  0.96618175967E+01  0.72461592062E+02  0.70000028356E+02 0.  0.
         12    1    1    2    0    0 -0.68010647560E+01 -0.14528356865E+02 -0.96618175967E+01  0.18726407938E+02  0.00000000000E+00 0. -1.
         11    1    3    3    0    0  0.33700646601E+00 -0.12450008167E+02  0.62668766275E+01  0.13942382137E+02  0.51100000000E-03 0. -1.
        -11    1    3    3    0    0  0.15563716536E+02  0.30822092931E+02  0.19478827332E+02  0.39644109266E+02  0.51100000000E-03 0.  1.
         12    1    3    3    0    0 -0.90996582461E+01 -0.38437278986E+01 -0.16083886362E+02  0.18875100659E+02  0.00000000000E+00 0. -1.
</event>
<event>
 7    1  0.2153242E-013  0.7246157E+02  0.7816164E-02  0.1226708E+00
        -11   -1    0    0    0    0  0.00000000000E+00  0.00000000000E+00  0.45593999997E+02  0.45594000000E+02  0.51100000000E-03 0.  1.
         11   -1    0    0    0    0 -0.00000000000E+00 -0.00000000000E+00 -0.45593999997E+02  0.45594000000E+02  0.51100000000E-03 0. -1.
    9900012    2    1    2    0    0 -0.13568590733E+02 -0.84043177549E+01  0.97949026210E+01  0.72461566043E+02  0.69999994462E+02 0.  0.
         12    1    1    2    0    0  0.13568590733E+02  0.84043177549E+01 -0.97949026210E+01  0.18726433957E+02  0.00000000000E+00 0. -1.
         11    1    3    3    0    0  0.22715696021E+02  0.43118466700E+01  0.49275559132E+01  0.23640551495E+02  0.51100000000E-03 0. -1.
        -11    1    3    3    0    0  0.38555202067E+01 -0.17835298937E+00  0.55535669769E+01  0.67630579090E+01  0.51100000000E-03 0.  1.
        -12    1    3    3    0    0 -0.40139806960E+02 -0.12537811436E+02 -0.68622026909E+00  0.42057956639E+02  0.00000000000E+00 0.  1.
</event>
<event>
 7    1  0.2153242E-013  0.7246155E+02  0.7816164E-02  0.1226708E+00
        -11   -1    0    0    0    0  0.00000000000E+00  0.00000000000E+00  0.45593999997E+02  0.45594000000E+02  0.51100000000E-03 0.  1.
         11   -1    0    0    0    0 -0.00000000000E+00 -0.00000000000E+00 -0.45593999997E+02  0.45594000000E+02  0.51100000000E-03 0. -1.
    9900012    2    1    2    0    0 -0.92488534662E+01  0.54856608871E+01  0.15331216984E+02  0.72461548654E+02  0.69999971809E+02 0.  0.
         12    1    1    2    0    0  0.92488534662E+01 -0.54856608871E+01 -0.15331216984E+02  0.18726451346E+02  0.00000000000E+00 0. -1.
         11    1    3    3    0    0 -0.44050614783E+01  0.70095368187E+01 -0.23263244779E+02  0.24692442790E+02  0.51100000000E-03 0. -1.
        -11    1    3    3    0    0 -0.78319320496E+01  0.11148935369E+02  0.11989653984E+02  0.18149097013E+02  0.51100000000E-03 0.  1.
        -12    1    3    3    0    0  0.29881400617E+01 -0.12672811300E+02  0.26604807780E+02  0.29620008850E+02  0.00000000000E+00 0.  1.
</event>
<event>
 7    1  0.2153242E-013  0.7246156E+02  0.7816164E-02  0.1226708E+00
        -11   -1    0    0    0    0  0.00000000000E+00  0.00000000000E+00  0.45593999997E+02  0.45594000000E+02  0.51100000000E-03 0.  1.
         11   -1    0    0    0    0 -0.00000000000E+00 -0.00000000000E+00 -0.45593999997E+02  0.45594000000E+02  0.51100000000E-03 0. -1.
    9900012    2    1    2    0    0 -0.15033956119E+02  0.29970154901E+01 -0.10755344636E+02  0.72461564764E+02  0.69999992796E+02 0.  0.
         12    1    1    2    0    0  0.15033956119E+02 -0.29970154901E+01  0.10755344636E+02  0.18726435236E+02  0.00000000000E+00 0. -1.
         11    1    3    3    0    0 -0.11521555135E+02  0.12720976326E+02 -0.79580532468E+01  0.18918247359E+02  0.51100000000E-03 0.  1.
        -11    1    3    3    0    0  0.22561096898E+02 -0.22843350504E+01  0.84354058551E+01  0.24194572781E+02  0.51100000000E-03 0. -1.
         12    1    3    3    0    0 -0.26073497882E+02 -0.74396257855E+01 -0.11232697244E+02  0.29348744624E+02  0.00000000000E+00 0. -1.
</event>
<event>
 7    1  0.2153242E-013  0.7246160E+02  0.7816164E-02  0.1226708E+00
        -11   -1    0    0    0    0  0.00000000000E+00  0.00000000000E+00  0.45593999997E+02  0.45594000000E+02  0.51100000000E-03 0. -1.
         11   -1    0    0    0    0 -0.00000000000E+00 -0.00000000000E+00 -0.45593999997E+02  0.45594000000E+02  0.51100000000E-03 0.  1.
    9900012    2    1    2    0    0 -0.13776452424E+02 -0.90592556775E+01 -0.88779105912E+01  0.72461600152E+02  0.70000038895E+02 0.  0.
         12    1    1    2    0    0  0.13776452424E+02  0.90592556775E+01  0.88779105912E+01  0.18726399848E+02  0.00000000000E+00 0. -1.
         11    1    3    3    0    0 -0.11863357750E+01 -0.25806081276E+02 -0.68890218056E+01  0.26736114997E+02  0.51100000000E-03 0. -1.
        -11    1    3    3    0    0 -0.21498844781E+02 -0.43876196869E+01  0.32985423375E+01  0.22188553699E+02  0.51100000000E-03 0.  1.
        -12    1    3    3    0    0  0.89087281326E+01  0.21134445286E+02 -0.52874311231E+01  0.23536931456E+02  0.00000000000E+00 0.  1.
</event>
<event>
 7    1  0.2153242E-013  0.7246161E+02  0.7816164E-02  0.1226708E+00
        -11   -1    0    0    0    0  0.00000000000E+00  0.00000000000E+00  0.45593999997E+02  0.45594000000E+02  0.51100000000E-03 0.  1.
         11   -1    0    0    0    0 -0.00000000000E+00 -0.00000000000E+00 -0.45593999997E+02  0.45594000000E+02  0.51100000000E-03 0. -1.
    9900012    2    1    2    0    0 -0.14602712414E+02 -0.11723285029E+02  0.54474269806E-01  0.72461612491E+02  0.70000054969E+02 0.  0.
         12    1    1    2    0    0  0.14602712414E+02  0.11723285029E+02 -0.54474269806E-01  0.18726387509E+02  0.00000000000E+00 0. -1.
         11    1    3    3    0    0 -0.23756471647E+02  0.44214125766E+01  0.18108607830E+02  0.30196697039E+02  0.51100000000E-03 0. -1.
        -11    1    3    3    0    0  0.25763221294E+01 -0.15978387422E+01  0.97461135091E+01  0.10206725878E+02  0.51100000000E-03 0.  1.
         12    1    3    3    0    0  0.65774371039E+01 -0.14546858863E+02 -0.27800247069E+02  0.32058189573E+02  0.00000000000E+00 0. -1.
</event>
<event>
 7    1  0.2153242E-013  0.7246153E+02  0.7816164E-02  0.1226708E+00
        -11   -1    0    0    0    0  0.00000000000E+00  0.00000000000E+00  0.45593999997E+02  0.45594000000E+02  0.51100000000E-03 0. -1.
         11   -1    0    0    0    0 -0.00000000000E+00 -0.00000000000E+00 -0.45593999997E+02  0.45594000000E+02  0.51100000000E-03 0.  1.
    9900012    2    1    2    0    0  0.10754968793E+02  0.17787525872E+01 -0.15226536433E+02  0.72461528729E+02  0.69999945854E+02 0.  0.
         12    1    1    2    0    0 -0.10754968793E+02 -0.17787525872E+01  0.15226536433E+02  0.18726471271E+02  0.00000000000E+00 0. -1.
         11    1    3    3    0    0  0.34859808838E+00  0.16454997758E+02 -0.33873783349E+02  0.37660611658E+02  0.51100000000E-03 0.  1.
        -11    1    3    3    0    0  0.16687185545E+02 -0.82477211374E+01  0.65552525927E+01  0.19734700458E+02  0.51100000000E-03 0. -1.
        -12    1    3    3    0    0 -0.62808148406E+01 -0.64285240331E+01  0.12091994323E+02  0.15066216613E+02  0.00000000000E+00 0.  1.
</event>
<event>
 7    1  0.2153242E-013  0.7246161E+02  0.7816164E-02  0.1226708E+00
        -11   -1    0    0    0    0  0.00000000000E+00  0.00000000000E+00  0.45593999997E+02  0.45594000000E+02  0.51100000000E-03 0. -1.
         11   -1    0    0    0    0 -0.00000000000E+00 -0.00000000000E+00 -0.45593999997E+02  0.45594000000E+02  0.51100000000E-03 0.  1.
    9900012    2    1    2    0    0 -0.11661211180E+02 -0.10103963352E+02 -0.10611490545E+02  0.72461610781E+02  0.70000052741E+02 0.  0.
         12    1    1    2    0    0  0.11661211180E+02  0.10103963352E+02  0.10611490545E+02  0.18726389219E+02  0.00000000000E+00 0. -1.
         11    1    3    3    0    0  0.21787910276E+02 -0.53029707123E+01 -0.13544660259E+02  0.26197182183E+02  0.51100000000E-03 0. -1.
        -11    1    3    3    0    0 -0.48390754002E+01 -0.46507920032E+00  0.14354416026E+02  0.15155270010E+02  0.51100000000E-03 0.  1.
        -12    1    3    3    0    0 -0.28610046056E+02 -0.43359134398E+01 -0.11421246312E+02  0.31109158587E+02  0.00000000000E+00 0.  1.
</event>
<event>
 7    1  0.2153242E-013  0.7246157E+02  0.7816164E-02  0.1226708E+00
        -11   -1    0    0    0    0  0.00000000000E+00  0.00000000000E+00  0.45593999997E+02  0.45594000000E+02  0.51100000000E-03 0.  1.
         11   -1    0    0    0    0 -0.00000000000E+00 -0.00000000000E+00 -0.45593999997E+02  0.45594000000E+02  0.51100000000E-03 0. -1.
    9900012    2    1    2    0    0  0.57458914505E+00  0.18096680124E+02  0.47811191082E+01  0.72461572574E+02  0.70000002970E+02 0.  0.
         12    1    1    2    0    0 -0.57458914505E+00 -0.18096680124E+02 -0.47811191082E+01  0.18726427426E+02  0.00000000000E+00 0. -1.
         11    1    3    3    0    0  0.19537833379E+02  0.22139583061E+02 -0.15228096132E+02  0.33223229574E+02  0.51100000000E-03 0. -1.
        -11    1    3    3    0    0  0.26819253831E+01  0.35613244778E+01 -0.40291397742E+01  0.60091366583E+01  0.51100000000E-03 0.  1.
        -12    1    3    3    0    0 -0.21645169617E+02 -0.76042274140E+01  0.24038355015E+02  0.33229206342E+02  0.00000000000E+00 0.  1.
</event>
<event>
 7    1  0.2153242E-013  0.7246151E+02  0.7816164E-02  0.1226708E+00
        -11   -1    0    0    0    0  0.00000000000E+00  0.00000000000E+00  0.45593999997E+02  0.45594000000E+02  0.51100000000E-03 0. -1.
         11   -1    0    0    0    0 -0.00000000000E+00 -0.00000000000E+00 -0.45593999997E+02  0.45594000000E+02  0.51100000000E-03 0.  1.
    9900012    2    1    2    0    0  0.57143430413E+01  0.17825981788E+02  0.51182437016E+00  0.72461513216E+02  0.69999925645E+02 0.  0.
         12    1    1    2    0    0 -0.57143430413E+01 -0.17825981788E+02 -0.51182437016E+00  0.18726486784E+02  0.00000000000E+00 0. -1.
         11    1    3    3    0    0  0.24625341719E+02  0.16975956534E+02  0.15460837060E+02  0.33669393191E+02  0.51100000000E-03 0. -1.
        -11    1    3    3    0    0 -0.11780349458E+02  0.15520152163E+02 -0.81739026584E+01  0.21129705191E+02  0.51100000000E-03 0.  1.
        -12    1    3    3    0    0 -0.71306492194E+01 -0.14670126909E+02 -0.67751100317E+01  0.17662414834E+02  0.00000000000E+00 0.  1.
</event>
<event>
 7    1  0.2153242E-013  0.7246156E+02  0.7816164E-02  0.1226708E+00
        -11   -1    0    0    0    0  0.00000000000E+00  0.00000000000E+00  0.45593999997E+02  0.45594000000E+02  0.51100000000E-03 0.  1.
         11   -1    0    0    0    0 -0.00000000000E+00 -0.00000000000E+00 -0.45593999997E+02  0.45594000000E+02  0.51100000000E-03 0. -1.
    9900012    2    1    2    0    0  0.18444713599E+02 -0.31208617294E+01  0.85569504605E+00  0.72461562760E+02  0.69999990185E+02 0.  0.
         12    1    1    2    0    0 -0.18444713599E+02  0.31208617294E+01 -0.85569504605E+00  0.18726437240E+02  0.00000000000E+00 0. -1.
         11    1    3    3    0    0  0.17453916987E+01 -0.38917888341E+01  0.28933948468E+01  0.51540417646E+01  0.51100000000E-03 0. -1.
        -11    1    3    3    0    0  0.20510352218E+02 -0.29957537973E+02 -0.15744945167E+01  0.36340165970E+02  0.51100000000E-03 0.  1.
         12    1    3    3    0    0 -0.38110303174E+01  0.30728465078E+02 -0.46320528398E+00  0.30967355025E+02  0.00000000000E+00 0. -1.
</event>
<event>
 7    1  0.2153242E-013  0.7246157E+02  0.7816164E-02  0.1226708E+00
        -11   -1    0    0    0    0  0.00000000000E+00  0.00000000000E+00  0.45593999997E+02  0.45594000000E+02  0.51100000000E-03 0.  1.
         11   -1    0    0    0    0 -0.00000000000E+00 -0.00000000000E+00 -0.45593999997E+02  0.45594000000E+02  0.51100000000E-03 0. -1.
    9900012    2    1    2    0    0 -0.13911948673E+02  0.10902660452E+02  0.61861730795E+01  0.72461573267E+02  0.70000003873E+02 0.  0.
         12    1    1    2    0    0  0.13911948673E+02 -0.10902660452E+02 -0.61861730795E+01  0.18726426733E+02  0.00000000000E+00 0. -1.
         11    1    3    3    0    0  0.11608627768E+01  0.14143072318E+02  0.20897146274E+02  0.25259944965E+02  0.51100000000E-03 0. -1.
        -11    1    3    3    0    0  0.10036152130E+02 -0.10424512316E+02  0.40716639975E+01  0.15032406813E+02  0.51100000000E-03 0.  1.
         12    1    3    3    0    0 -0.25108963580E+02  0.71841004495E+01 -0.18782637192E+02  0.32169221489E+02  0.00000000000E+00 0. -1.
</event>
<event>
 7    1  0.2153242E-013  0.7246145E+02  0.7816164E-02  0.1226708E+00
        -11   -1    0    0    0    0  0.00000000000E+00  0.00000000000E+00  0.45593999997E+02  0.45594000000E+02  0.51100000000E-03 0.  1.
         11   -1    0    0    0    0 -0.00000000000E+00 -0.00000000000E+00 -0.45593999997E+02  0.45594000000E+02  0.51100000000E-03 0. -1.
    9900012    2    1    2    0    0  0.11470152282E+02 -0.38681499982E+01  0.14288338492E+02  0.72461452142E+02  0.69999846085E+02 0.  0.
         12    1    1    2    0    0 -0.11470152282E+02  0.38681499982E+01 -0.14288338492E+02  0.18726547858E+02  0.00000000000E+00 0. -1.
         11    1    3    3    0    0  0.79381900275E+01 -0.80486291767E+01 -0.20883380258E+02  0.23746807444E+02  0.51100000000E-03 0. -1.
        -11    1    3    3    0    0  0.18887042133E+01 -0.54457973578E+01 -0.48411500588E+01  0.75273266583E+01  0.51100000000E-03 0.  1.
        -12    1    3    3    0    0  0.16432580417E+01  0.96262765364E+01  0.40012868809E+02  0.41187318040E+02  0.00000000000E+00 0.  1.
</event>
<event>
 7    1  0.2153242E-013  0.7246159E+02  0.7816164E-02  0.1226708E+00
        -11   -1    0    0    0    0  0.00000000000E+00  0.00000000000E+00  0.45593999997E+02  0.45594000000E+02  0.51100000000E-03 0. -1.
         11   -1    0    0    0    0 -0.00000000000E+00 -0.00000000000E+00 -0.45593999997E+02  0.45594000000E+02  0.51100000000E-03 0.  1.
    9900012    2    1    2    0    0  0.17057832735E+02 -0.20874943494E+01 -0.74398424768E+01  0.72461586933E+02  0.70000021675E+02 0.  0.
         12    1    1    2    0    0 -0.17057832735E+02  0.20874943494E+01  0.74398424768E+01  0.18726413067E+02  0.00000000000E+00 0. -1.
         11    1    3    3    0    0  0.10880228501E+02  0.23044497839E+01 -0.34820985037E+01  0.11653963759E+02  0.51100000000E-03 0. -1.
        -11    1    3    3    0    0  0.31638863026E+02 -0.46196223937E+00 -0.11965474149E+02  0.33829035377E+02  0.51100000000E-03 0.  1.
         12    1    3    3    0    0 -0.25461258791E+02 -0.39299818940E+01  0.80077301761E+01  0.26978587797E+02  0.00000000000E+00 0. -1.
</event>
<event>
 7    1  0.2153242E-013  0.7246159E+02  0.7816164E-02  0.1226708E+00
        -11   -1    0    0    0    0  0.00000000000E+00  0.00000000000E+00  0.45593999997E+02  0.45594000000E+02  0.51100000000E-03 0.  1.
         11   -1    0    0    0    0 -0.00000000000E+00 -0.00000000000E+00 -0.45593999997E+02  0.45594000000E+02  0.51100000000E-03 0. -1.
    9900012    2    1    2    0    0 -0.15337560080E+02  0.64347650852E+01  0.86041470311E+01  0.72461593590E+02  0.70000030347E+02 0.  0.
         12    1    1    2    0    0  0.15337560080E+02 -0.64347650852E+01 -0.86041470311E+01  0.18726406410E+02  0.00000000000E+00 0. -1.
         11    1    3    3    0    0 -0.14564872444E+02 -0.17732241088E+02 -0.43706799528E+01  0.23359596033E+02  0.51100000000E-03 0. -1.
        -11    1    3    3    0    0 -0.18519200129E+02  0.15715784905E+01  0.41183513251E+01  0.19036581895E+02  0.51100000000E-03 0.  1.
        -12    1    3    3    0    0  0.17746512493E+02  0.22595427683E+02  0.88564756587E+01  0.30065415662E+02  0.00000000000E+00 0.  1.
</event>
<event>
 7    1  0.2153242E-013  0.7246159E+02  0.7816164E-02  0.1226708E+00
        -11   -1    0    0    0    0  0.00000000000E+00  0.00000000000E+00  0.45593999997E+02  0.45594000000E+02  0.51100000000E-03 0. -1.
         11   -1    0    0    0    0 -0.00000000000E+00 -0.00000000000E+00 -0.45593999997E+02  0.45594000000E+02  0.51100000000E-03 0.  1.
    9900012    2    1    2    0    0  0.24102346855E+01 -0.97354031306E+01 -0.15814275356E+02  0.72461585223E+02  0.70000019448E+02 0.  0.
         12    1    1    2    0    0 -0.24102346855E+01  0.97354031306E+01  0.15814275356E+02  0.18726414777E+02  0.00000000000E+00 0. -1.
         11    1    3    3    0    0  0.11006843119E+02 -0.92617914219E+01 -0.29703999492E+02  0.33003923432E+02  0.51100000000E-03 0. -1.
        -11    1    3    3    0    0  0.23466958786E+01 -0.56868818291E+01 -0.10529710945E+02  0.12195180168E+02  0.51100000000E-03 0.  1.
         12    1    3    3    0    0 -0.10943304312E+02  0.52132701204E+01  0.24419435081E+02  0.27262481624E+02  0.00000000000E+00 0. -1.
</event>
<event>
 7    1  0.2153242E-013  0.7246158E+02  0.7816164E-02  0.1226708E+00
        -11   -1    0    0    0    0  0.00000000000E+00  0.00000000000E+00  0.45593999997E+02  0.45594000000E+02  0.51100000000E-03 0.  1.
         11   -1    0    0    0    0 -0.00000000000E+00 -0.00000000000E+00 -0.45593999997E+02  0.45594000000E+02  0.51100000000E-03 0. -1.
    9900012    2    1    2    0    0 -0.18697563789E+02  0.87338175537E+00  0.56311387712E+00  0.72461580573E+02  0.70000013389E+02 0.  0.
         12    1    1    2    0    0  0.18697563789E+02 -0.87338175537E+00 -0.56311387712E+00  0.18726419427E+02  0.00000000000E+00 0. -1.
         11    1    3    3    0    0 -0.63250435451E+01 -0.31861650526E+01  0.19077751973E+02  0.20349900348E+02  0.51100000000E-03 0. -1.
        -11    1    3    3    0    0 -0.14046712166E+02 -0.15041933496E+01  0.13520177649E+02  0.19554230341E+02  0.51100000000E-03 0.  1.
         12    1    3    3    0    0  0.16741919217E+01  0.55637401575E+01 -0.32034815745E+02  0.32557449884E+02  0.00000000000E+00 0. -1.
</event>
<event>
 7    1  0.2153242E-013  0.7246159E+02  0.7816164E-02  0.1226708E+00
        -11   -1    0    0    0    0  0.00000000000E+00  0.00000000000E+00  0.45593999997E+02  0.45594000000E+02  0.51100000000E-03 0. -1.
         11   -1    0    0    0    0 -0.00000000000E+00 -0.00000000000E+00 -0.45593999997E+02  0.45594000000E+02  0.51100000000E-03 0.  1.
    9900012    2    1    2    0    0 -0.10536742643E+02  0.95513872893E+01 -0.12183037317E+02  0.72461592364E+02  0.70000028750E+02 0.  0.
         12    1    1    2    0    0  0.10536742643E+02 -0.95513872893E+01  0.12183037317E+02  0.18726407636E+02  0.00000000000E+00 0. -1.
         11    1    3    3    0    0  0.42339074547E+01 -0.45151352554E+01 -0.46052007562E+01  0.77149395963E+01  0.51100000000E-03 0. -1.
        -11    1    3    3    0    0 -0.15473137063E+02 -0.19609686972E+02 -0.16456280861E+02  0.29912655746E+02  0.51100000000E-03 0.  1.
         12    1    3    3    0    0  0.70248696500E+00  0.33676209517E+02  0.88784443006E+01  0.34833997022E+02  0.00000000000E+00 0. -1.
</event>
<event>
 7    1  0.2153242E-013  0.7246154E+02  0.7816164E-02  0.1226708E+00
        -11   -1    0    0    0    0  0.00000000000E+00  0.00000000000E+00  0.45593999997E+02  0.45594000000E+02  0.51100000000E-03 0. -1.
         11   -1    0    0    0    0 -0.00000000000E+00 -0.00000000000E+00 -0.45593999997E+02  0.45594000000E+02  0.51100000000E-03 0.  1.
    9900012    2    1    2    0    0  0.10532323986E+02 -0.13835510783E+02  0.69519114597E+01  0.72461540641E+02  0.69999961371E+02 0.  0.
         12    1    1    2    0    0 -0.10532323986E+02  0.13835510783E+02 -0.69519114597E+01  0.18726459359E+02  0.00000000000E+00 0. -1.
         11    1    3    3    0    0  0.95552054515E+00 -0.65716007536E+01  0.33078181757E+02  0.33738184074E+02  0.51100000000E-03 0. -1.
        -11    1    3    3    0    0 -0.60548834370E+01 -0.42545608243E+01  0.80018662447E+00  0.74433325963E+01  0.51100000000E-03 0.  1.
         12    1    3    3    0    0  0.15631686878E+02 -0.30093492048E+01 -0.26926456922E+02  0.31280023971E+02  0.00000000000E+00 0. -1.
</event>
<event>
 7    1  0.2153242E-013  0.7246152E+02  0.7816164E-02  0.1226708E+00
        -11   -1    0    0    0    0  0.00000000000E+00  0.00000000000E+00  0.45593999997E+02  0.45594000000E+02  0.51100000000E-03 0. -1.
         11   -1    0    0    0    0 -0.00000000000E+00 -0.00000000000E+00 -0.45593999997E+02  0.45594000000E+02  0.51100000000E-03 0.  1.
    9900012    2    1    2    0    0 -0.35584321661E+01  0.50484865373E+00 -0.18378352406E+02  0.72461517447E+02  0.69999931156E+02 0.  0.
         12    1    1    2    0    0  0.35584321661E+01 -0.50484865373E+00  0.18378352406E+02  0.18726482553E+02  0.00000000000E+00 0. -1.
         11    1    3    3    0    0 -0.13762099115E+02  0.11922387954E+02  0.13490065527E+02  0.22660992360E+02  0.51100000000E-03 0. -1.
        -11    1    3    3    0    0 -0.36077987598E+01  0.61770853623E+00  0.64002569527E+01  0.73729956632E+01  0.51100000000E-03 0.  1.
        -12    1    3    3    0    0  0.13811465708E+02 -0.12035247837E+02 -0.38268674885E+02  0.42427529424E+02  0.00000000000E+00 0.  1.
</event>
<event>
 7    1  0.2153242E-013  0.7246157E+02  0.7816164E-02  0.1226708E+00
        -11   -1    0    0    0    0  0.00000000000E+00  0.00000000000E+00  0.45593999997E+02  0.45594000000E+02  0.51100000000E-03 0.  1.
         11   -1    0    0    0    0 -0.00000000000E+00 -0.00000000000E+00 -0.45593999997E+02  0.45594000000E+02  0.51100000000E-03 0. -1.
    9900012    2    1    2    0    0 -0.55656782285E+01  0.17384010386E+02  0.41831477068E+01  0.72461566384E+02  0.69999994905E+02 0.  0.
         12    1    1    2    0    0  0.55656782285E+01 -0.17384010386E+02 -0.41831477068E+01  0.18726433616E+02  0.00000000000E+00 0. -1.
         11    1    3    3    0    0  0.65204525098E+01  0.12535187888E+02 -0.55219848628E+00  0.14140444114E+02  0.51100000000E-03 0. -1.
        -11    1    3    3    0    0 -0.13661318696E+01  0.59184515622E+00  0.30267712331E+02  0.30304306740E+02  0.51100000000E-03 0.  1.
         12    1    3    3    0    0 -0.10719998869E+02  0.42569773425E+01 -0.25532366138E+02  0.28016815530E+02  0.00000000000E+00 0. -1.
</event>
<event>
 7    1  0.2153242E-013  0.7246148E+02  0.7816164E-02  0.1226708E+00
        -11   -1    0    0    0    0  0.00000000000E+00  0.00000000000E+00  0.45593999997E+02  0.45594000000E+02  0.51100000000E-03 0.  1.
         11   -1    0    0    0    0 -0.00000000000E+00 -0.00000000000E+00 -0.45593999997E+02  0.45594000000E+02  0.51100000000E-03 0. -1.
    9900012    2    1    2    0    0 -0.12050224118E+01  0.59646399959E+01  0.17710262193E+02  0.72461484140E+02  0.69999887768E+02 0.  0.
         12    1    1    2    0    0  0.12050224118E+01 -0.59646399959E+01 -0.17710262193E+02  0.18726515860E+02  0.00000000000E+00 0. -1.
         11    1    3    3    0    0  0.38411178913E+01  0.47176239156E+00 -0.12694276280E+02  0.13271073692E+02  0.51100000000E-03 0. -1.
        -11    1    3    3    0    0  0.21271214598E+02 -0.59490266121E+01  0.13188117099E+02  0.25725122371E+02  0.51100000000E-03 0.  1.
         12    1    3    3    0    0 -0.26317354902E+02  0.11441904216E+02  0.17216421374E+02  0.33465288077E+02  0.00000000000E+00 0. -1.
</event>
<event>
 7    1  0.2153242E-013  0.7246155E+02  0.7816164E-02  0.1226708E+00
        -11   -1    0    0    0    0  0.00000000000E+00  0.00000000000E+00  0.45593999997E+02  0.45594000000E+02  0.51100000000E-03 0.  1.
         11   -1    0    0    0    0 -0.00000000000E+00 -0.00000000000E+00 -0.45593999997E+02  0.45594000000E+02  0.51100000000E-03 0. -1.
    9900012    2    1    2    0    0 -0.14685604436E+02  0.52875519651E+01  0.10346725208E+02  0.72461550631E+02  0.69999974385E+02 0.  0.
         12    1    1    2    0    0  0.14685604436E+02 -0.52875519651E+01 -0.10346725208E+02  0.18726449369E+02  0.00000000000E+00 0. -1.
         11    1    3    3    0    0  0.29138270092E+01  0.18181007269E+02  0.14161696984E+02  0.23229142793E+02  0.51100000000E-03 0. -1.
        -11    1    3    3    0    0 -0.99363149361E+01 -0.26505720802E+02  0.82611443710E+01  0.29487795718E+02  0.51100000000E-03 0.  1.
         12    1    3    3    0    0 -0.76631165093E+01  0.13612265497E+02 -0.12076116147E+02  0.19744612121E+02  0.00000000000E+00 0. -1.
</event>
<event>
 7    1  0.2153242E-013  0.7246158E+02  0.7816164E-02  0.1226708E+00
        -11   -1    0    0    0    0  0.00000000000E+00  0.00000000000E+00  0.45593999997E+02  0.45594000000E+02  0.51100000000E-03 0. -1.
         11   -1    0    0    0    0 -0.00000000000E+00 -0.00000000000E+00 -0.45593999997E+02  0.45594000000E+02  0.51100000000E-03 0.  1.
    9900012    2    1    2    0    0  0.18721403598E+02  0.22894905046E+00  0.36815387687E+00  0.72461577287E+02  0.70000009109E+02 0.  0.
         12    1    1    2    0    0 -0.18721403598E+02 -0.22894905046E+00 -0.36815387687E+00  0.18726422713E+02  0.00000000000E+00 0. -1.
         11    1    3    3    0    0  0.59663499385E+01 -0.22762248591E+02  0.15313259000E+02  0.28075134799E+02  0.51100000000E-03 0. -1.
        -11    1    3    3    0    0  0.17002252333E+02  0.94718361048E-01 -0.55422396450E+00  0.17011546679E+02  0.51100000000E-03 0.  1.
         12    1    3    3    0    0 -0.42471986729E+01  0.22896479280E+02 -0.14390881158E+02  0.27374895808E+02  0.00000000000E+00 0. -1.
</event>
<event>
 7    1  0.2153242E-013  0.7246156E+02  0.7816164E-02  0.1226708E+00
        -11   -1    0    0    0    0  0.00000000000E+00  0.00000000000E+00  0.45593999997E+02  0.45594000000E+02  0.51100000000E-03 0.  1.
         11   -1    0    0    0    0 -0.00000000000E+00 -0.00000000000E+00 -0.45593999997E+02  0.45594000000E+02  0.51100000000E-03 0. -1.
    9900012    2    1    2    0    0 -0.47648169938E+00 -0.75914351380E+01  0.17112065842E+02  0.72461555606E+02  0.69999980866E+02 0.  0.
         12    1    1    2    0    0  0.47648169938E+00  0.75914351380E+01 -0.17112065842E+02  0.18726444394E+02  0.00000000000E+00 0. -1.
         11    1    3    3    0    0  0.17298389828E+02  0.71141235094E+01 -0.12113475134E+02  0.22284104739E+02  0.51100000000E-03 0. -1.
        -11    1    3    3    0    0 -0.99820861788E+01  0.10430579938E+02  0.93810570794E+01  0.17217528119E+02  0.51100000000E-03 0.  1.
        -12    1    3    3    0    0 -0.77927853486E+01 -0.25136138586E+02  0.19844483896E+02  0.32959922748E+02  0.00000000000E+00 0.  1.
</event>
<event>
 7    1  0.2153242E-013  0.7246154E+02  0.7816164E-02  0.1226708E+00
        -11   -1    0    0    0    0  0.00000000000E+00  0.00000000000E+00  0.45593999997E+02  0.45594000000E+02  0.51100000000E-03 0.  1.
         11   -1    0    0    0    0 -0.00000000000E+00 -0.00000000000E+00 -0.45593999997E+02  0.45594000000E+02  0.51100000000E-03 0. -1.
    9900012    2    1    2    0    0 -0.12351738604E+02 -0.53825163974E+01  0.13005514622E+02  0.72461539045E+02  0.69999959291E+02 0.  0.
         12    1    1    2    0    0  0.12351738604E+02  0.53825163974E+01 -0.13005514622E+02  0.18726460955E+02  0.00000000000E+00 0. -1.
         11    1    3    3    0    0  0.21177106603E+02 -0.17272595654E+01 -0.60744897738E+01  0.22098703490E+02  0.51100000000E-03 0. -1.
        -11    1    3    3    0    0  0.19968249188E+01 -0.50925274978E+01  0.13248153709E+02  0.14332994210E+02  0.51100000000E-03 0.  1.
        -12    1    3    3    0    0 -0.35525670126E+02  0.14372706659E+01  0.58318506871E+01  0.36029841344E+02  0.00000000000E+00 0.  1.
</event>
<event>
 7    1  0.2153242E-013  0.7246144E+02  0.7816164E-02  0.1226708E+00
        -11   -1    0    0    0    0  0.00000000000E+00  0.00000000000E+00  0.45593999997E+02  0.45594000000E+02  0.51100000000E-03 0. -1.
         11   -1    0    0    0    0 -0.00000000000E+00 -0.00000000000E+00 -0.45593999997E+02  0.45594000000E+02  0.51100000000E-03 0.  1.
    9900012    2    1    2    0    0 -0.27913915411E+01  0.62003454231E+01  0.17448431837E+02  0.72461443358E+02  0.69999834642E+02 0.  0.
         12    1    1    2    0    0  0.27913915411E+01 -0.62003454231E+01 -0.17448431837E+02  0.18726556642E+02  0.00000000000E+00 0. -1.
         11    1    3    3    0    0  0.23106567135E+02 -0.12967587394E+02 -0.54263864428E+00  0.26502192825E+02  0.51100000000E-03 0. -1.
        -11    1    3    3    0    0  0.32391326565E+01 -0.36454145317E+01  0.15381480049E+00  0.48790046863E+01  0.51100000000E-03 0.  1.
         12    1    3    3    0    0 -0.29137091332E+02  0.22813347349E+02  0.17837255681E+02  0.41080245846E+02  0.00000000000E+00 0. -1.
</event>
<event>
 7    1  0.2153242E-013  0.7246173E+02  0.7816164E-02  0.1226708E+00
        -11   -1    0    0    0    0  0.00000000000E+00  0.00000000000E+00  0.45593999997E+02  0.45594000000E+02  0.51100000000E-03 0.  1.
         11   -1    0    0    0    0 -0.00000000000E+00 -0.00000000000E+00 -0.45593999997E+02  0.45594000000E+02  0.51100000000E-03 0. -1.
    9900012    2    1    2    0    0 -0.73246260370E+01  0.40804134691E+00  0.17229522001E+02  0.72461733082E+02  0.70000212060E+02 0.  0.
         12    1    1    2    0    0  0.73246260370E+01 -0.40804134691E+00 -0.17229522001E+02  0.18726266918E+02  0.00000000000E+00 0. -1.
         11    1    3    3    0    0  0.12850445575E+02 -0.17601321170E+02 -0.26396407003E+01  0.21952406740E+02  0.51100000000E-03 0. -1.
        -11    1    3    3    0    0  0.86991632289E+01 -0.26184060284E+01 -0.13181496813E+01  0.91798153498E+01  0.51100000000E-03 0.  1.
        -12    1    3    3    0    0 -0.28874234840E+02  0.20627768546E+02  0.21187312382E+02  0.41329510991E+02  0.00000000000E+00 0.  1.
</event>
<event>
 7    1  0.2153242E-013  0.7246168E+02  0.7816164E-02  0.1226708E+00
        -11   -1    0    0    0    0  0.00000000000E+00  0.00000000000E+00  0.45593999997E+02  0.45594000000E+02  0.51100000000E-03 0.  1.
         11   -1    0    0    0    0 -0.00000000000E+00 -0.00000000000E+00 -0.45593999997E+02  0.45594000000E+02  0.51100000000E-03 0. -1.
    9900012    2    1    2    0    0 -0.95530047021E+01  0.36747376693E+00  0.16102171960E+02  0.72461684889E+02  0.70000149280E+02 0.  0.
         12    1    1    2    0    0  0.95530047021E+01 -0.36747376693E+00 -0.16102171960E+02  0.18726315111E+02  0.00000000000E+00 0. -1.
         11    1    3    3    0    0  0.70343030903E+01 -0.19048365593E+02 -0.69101001495E+01  0.21449268893E+02  0.51100000000E-03 0. -1.
        -11    1    3    3    0    0 -0.11094664419E+02  0.16628733269E+02 -0.63785471387E+01  0.20983141151E+02  0.51100000000E-03 0.  1.
        -12    1    3    3    0    0 -0.54926433736E+01  0.27871060906E+01  0.29390819249E+02  0.30029274845E+02  0.00000000000E+00 0.  1.
</event>
<event>
 7    1  0.2153242E-013  0.7246131E+02  0.7816164E-02  0.1226709E+00
        -11   -1    0    0    0    0  0.00000000000E+00  0.00000000000E+00  0.45593999997E+02  0.45594000000E+02  0.51100000000E-03 0. -1.
         11   -1    0    0    0    0 -0.00000000000E+00 -0.00000000000E+00 -0.45593999997E+02  0.45594000000E+02  0.51100000000E-03 0.  1.
    9900012    2    1    2    0    0 -0.13972403204E+02  0.67421199011E+01 -0.10488306500E+02  0.72461313019E+02  0.69999664850E+02 0.  0.
         12    1    1    2    0    0  0.13972403204E+02 -0.67421199011E+01  0.10488306500E+02  0.18726686981E+02  0.00000000000E+00 0. -1.
         11    1    3    3    0    0 -0.17145903292E+02  0.25596924363E+02  0.61065896841E+01  0.31408199159E+02  0.51100000000E-03 0. -1.
        -11    1    3    3    0    0 -0.11541600714E+02 -0.17712159638E+02 -0.37162057888E+01  0.21464839431E+02  0.51100000000E-03 0.  1.
         12    1    3    3    0    0  0.14715100802E+02 -0.11426448238E+01 -0.12878690395E+02  0.19588274429E+02  0.00000000000E+00 0. -1.
</event>
<event>
 7    1  0.2153242E-013  0.7246155E+02  0.7816164E-02  0.1226708E+00
        -11   -1    0    0    0    0  0.00000000000E+00  0.00000000000E+00  0.45593999997E+02  0.45594000000E+02  0.51100000000E-03 0. -1.
         11   -1    0    0    0    0 -0.00000000000E+00 -0.00000000000E+00 -0.45593999997E+02  0.45594000000E+02  0.51100000000E-03 0.  1.
    9900012    2    1    2    0    0  0.49762453929E+01 -0.92554112152E+01 -0.15500142509E+02  0.72461546178E+02  0.69999968584E+02 0.  0.
         12    1    1    2    0    0 -0.49762453929E+01  0.92554112152E+01  0.15500142509E+02  0.18726453822E+02  0.00000000000E+00 0. -1.
         11    1    3    3    0    0  0.27250899866E+01 -0.10519698198E+01  0.54334194822E+01  0.61688575496E+01  0.51100000000E-03 0. -1.
        -11    1    3    3    0    0  0.29978985070E+02 -0.15109499197E+02 -0.16390524778E+02  0.37358878658E+02  0.51100000000E-03 0.  1.
        -12    1    3    3    0    0 -0.27727829664E+02  0.69060578019E+01 -0.45430372124E+01  0.28933809970E+02  0.00000000000E+00 0.  1.
</event>
<event>
 7    1  0.2153242E-013  0.7246158E+02  0.7816164E-02  0.1226708E+00
        -11   -1    0    0    0    0  0.00000000000E+00  0.00000000000E+00  0.45593999997E+02  0.45594000000E+02  0.51100000000E-03 0.  1.
         11   -1    0    0    0    0 -0.00000000000E+00 -0.00000000000E+00 -0.45593999997E+02  0.45594000000E+02  0.51100000000E-03 0. -1.
    9900012    2    1    2    0    0  0.97682362765E+01 -0.15839785411E+02 -0.20884748762E+01  0.72461575645E+02  0.70000006970E+02 0.  0.
         12    1    1    2    0    0 -0.97682362765E+01  0.15839785411E+02  0.20884748762E+01  0.18726424355E+02  0.00000000000E+00 0. -1.
         11    1    3    3    0    0 -0.27646645395E+01 -0.10303049203E+02 -0.84750652781E+01  0.13624350430E+02  0.51100000000E-03 0. -1.
        -11    1    3    3    0    0  0.27482005803E+02 -0.20594232834E+02  0.12833021307E+02  0.36661553501E+02  0.51100000000E-03 0.  1.
        -12    1    3    3    0    0 -0.14949104987E+02  0.15057496626E+02 -0.64464309050E+01  0.22175671714E+02  0.00000000000E+00 0.  1.
</event>
<event>
 7    1  0.2153242E-013  0.7246158E+02  0.7816164E-02  0.1226708E+00
        -11   -1    0    0    0    0  0.00000000000E+00  0.00000000000E+00  0.45593999997E+02  0.45594000000E+02  0.51100000000E-03 0.  1.
         11   -1    0    0    0    0 -0.00000000000E+00 -0.00000000000E+00 -0.45593999997E+02  0.45594000000E+02  0.51100000000E-03 0. -1.
    9900012    2    1    2    0    0 -0.59883738792E+01  0.13702309238E+02  0.11272314149E+02  0.72461575717E+02  0.70000007064E+02 0.  0.
         12    1    1    2    0    0  0.59883738792E+01 -0.13702309238E+02 -0.11272314149E+02  0.18726424283E+02  0.00000000000E+00 0. -1.
         11    1    3    3    0    0 -0.96420096995E-01 -0.11204909227E+02 -0.10391328274E+02  0.15281982567E+02  0.51100000000E-03 0. -1.
        -11    1    3    3    0    0  0.62107454214E+01 -0.54760369441E+01 -0.90833086273E+01  0.12290924912E+02  0.51100000000E-03 0.  1.
        -12    1    3    3    0    0 -0.12102699204E+02  0.30383255409E+02  0.30746951051E+02  0.44888668238E+02  0.00000000000E+00 0.  1.
</event>
<event>
 7    1  0.2153242E-013  0.7246165E+02  0.7816164E-02  0.1226708E+00
        -11   -1    0    0    0    0  0.00000000000E+00  0.00000000000E+00  0.45593999997E+02  0.45594000000E+02  0.51100000000E-03 0. -1.
         11   -1    0    0    0    0 -0.00000000000E+00 -0.00000000000E+00 -0.45593999997E+02  0.45594000000E+02  0.51100000000E-03 0.  1.
    9900012    2    1    2    0    0 -0.48854236857E+01  0.17670251203E+02  0.38172067166E+01  0.72461649334E+02  0.70000102964E+02 0.  0.
         12    1    1    2    0    0  0.48854236857E+01 -0.17670251203E+02 -0.38172067166E+01  0.18726350666E+02  0.00000000000E+00 0. -1.
         11    1    3    3    0    0  0.84374984732E+01  0.76054725900E+01 -0.73612823689E+01  0.13535991732E+02  0.51100000000E-03 0. -1.
        -11    1    3    3    0    0  0.16170475606E+02  0.20653512074E+02  0.80246328379E+01  0.27430759646E+02  0.51100000000E-03 0.  1.
         12    1    3    3    0    0 -0.29493397765E+02 -0.10588733461E+02  0.31538562476E+01  0.31494897956E+02  0.00000000000E+00 0. -1.
</event>
<event>
 7    1  0.2153242E-013  0.7246160E+02  0.7816164E-02  0.1226708E+00
        -11   -1    0    0    0    0  0.00000000000E+00  0.00000000000E+00  0.45593999997E+02  0.45594000000E+02  0.51100000000E-03 0.  1.
         11   -1    0    0    0    0 -0.00000000000E+00 -0.00000000000E+00 -0.45593999997E+02  0.45594000000E+02  0.51100000000E-03 0. -1.
    9900012    2    1    2    0    0 -0.81925176809E+00  0.11761530282E+02  0.14548992294E+02  0.72461602995E+02  0.70000042598E+02 0.  0.
         12    1    1    2    0    0  0.81925176809E+00 -0.11761530282E+02 -0.14548992294E+02  0.18726397005E+02  0.00000000000E+00 0. -1.
         11    1    3    3    0    0 -0.64306892386E+01  0.24054829445E+02  0.12104115340E+02  0.27685703750E+02  0.51100000000E-03 0. -1.
        -11    1    3    3    0    0  0.19103680242E+02 -0.29469121592E+01  0.14706568598E+02  0.24288228635E+02  0.51100000000E-03 0.  1.
         12    1    3    3    0    0 -0.13492242771E+02 -0.93463870040E+01 -0.12261691644E+02  0.20487670609E+02  0.00000000000E+00 0. -1.
</event>
<event>
 7    1  0.2153242E-013  0.7246155E+02  0.7816164E-02  0.1226708E+00
        -11   -1    0    0    0    0  0.00000000000E+00  0.00000000000E+00  0.45593999997E+02  0.45594000000E+02  0.51100000000E-03 0.  1.
         11   -1    0    0    0    0 -0.00000000000E+00 -0.00000000000E+00 -0.45593999997E+02  0.45594000000E+02  0.51100000000E-03 0. -1.
    9900012    2    1    2    0    0  0.13888682833E+02 -0.10189360490E+02  0.73458369152E+01  0.72461550843E+02  0.69999974661E+02 0.  0.
         12    1    1    2    0    0 -0.13888682833E+02  0.10189360490E+02 -0.73458369152E+01  0.18726449157E+02  0.00000000000E+00 0. -1.
         11    1    3    3    0    0  0.95034431894E+01  0.14359808475E+01  0.10024440124E+02  0.13887651836E+02  0.51100000000E-03 0. -1.
        -11    1    3    3    0    0  0.25437970650E+02 -0.26581232216E+01  0.15006154823E+02  0.29653678569E+02  0.51100000000E-03 0.  1.
         12    1    3    3    0    0 -0.21052731006E+02 -0.89672181159E+01 -0.17684758032E+02  0.28920220438E+02  0.00000000000E+00 0. -1.
</event>
<event>
 7    1  0.2153242E-013  0.7246153E+02  0.7816164E-02  0.1226708E+00
        -11   -1    0    0    0    0  0.00000000000E+00  0.00000000000E+00  0.45593999997E+02  0.45594000000E+02  0.51100000000E-03 0.  1.
         11   -1    0    0    0    0 -0.00000000000E+00 -0.00000000000E+00 -0.45593999997E+02  0.45594000000E+02  0.51100000000E-03 0. -1.
    9900012    2    1    2    0    0  0.14512920999E+02  0.10824454662E+01 -0.11784914947E+02  0.72461527177E+02  0.69999943831E+02 0.  0.
         12    1    1    2    0    0 -0.14512920999E+02 -0.10824454662E+01  0.11784914947E+02  0.18726472823E+02  0.00000000000E+00 0. -1.
         11    1    3    3    0    0  0.14614394751E+02 -0.49912613122E+01  0.77717472794E+01  0.17288530286E+02  0.51100000000E-03 0. -1.
        -11    1    3    3    0    0  0.16890672554E+02  0.16717327004E+01  0.10792099961E+02  0.20113650374E+02  0.51100000000E-03 0.  1.
         12    1    3    3    0    0 -0.16992146306E+02  0.44019740780E+01 -0.30348762187E+02  0.35059346517E+02  0.00000000000E+00 0. -1.
</event>
<event>
 7    1  0.2153242E-013  0.7246159E+02  0.7816164E-02  0.1226708E+00
        -11   -1    0    0    0    0  0.00000000000E+00  0.00000000000E+00  0.45593999997E+02  0.45594000000E+02  0.51100000000E-03 0. -1.
         11   -1    0    0    0    0 -0.00000000000E+00 -0.00000000000E+00 -0.45593999997E+02  0.45594000000E+02  0.51100000000E-03 0.  1.
    9900012    2    1    2    0    0  0.13686777052E+02 -0.44279679311E+01 -0.11989309429E+02  0.72461593333E+02  0.70000030012E+02 0.  0.
         12    1    1    2    0    0 -0.13686777052E+02  0.44279679311E+01  0.11989309429E+02  0.18726406667E+02  0.00000000000E+00 0. -1.
         11    1    3    3    0    0  0.55974718481E+01  0.51577700816E+01  0.13702554336E+01  0.77338142930E+01  0.51100000000E-03 0. -1.
        -11    1    3    3    0    0  0.21434196365E+02 -0.28794862159E+02  0.32457186518E+01  0.36043079091E+02  0.51100000000E-03 0.  1.
         12    1    3    3    0    0 -0.13344891161E+02  0.19209124146E+02 -0.16605283514E+02  0.28684699949E+02  0.00000000000E+00 0. -1.
</event>
<event>
 7    1  0.2153242E-013  0.7246160E+02  0.7816164E-02  0.1226708E+00
        -11   -1    0    0    0    0  0.00000000000E+00  0.00000000000E+00  0.45593999997E+02  0.45594000000E+02  0.51100000000E-03 0. -1.
         11   -1    0    0    0    0 -0.00000000000E+00 -0.00000000000E+00 -0.45593999997E+02  0.45594000000E+02  0.51100000000E-03 0.  1.
    9900012    2    1    2    0    0  0.14606178547E+02  0.11300329265E+02  0.31048891532E+01  0.72461595382E+02  0.70000032682E+02 0.  0.
         12    1    1    2    0    0 -0.14606178547E+02 -0.11300329265E+02 -0.31048891532E+01  0.18726404618E+02  0.00000000000E+00 0. -1.
         11    1    3    3    0    0 -0.17049923784E+02  0.20349292483E+00 -0.27347715204E+01  0.17269055734E+02  0.51100000000E-03 0. -1.
        -11    1    3    3    0    0  0.72613200847E+01  0.25523605232E+02  0.31918736884E+01  0.26727686981E+02  0.51100000000E-03 0.  1.
        -12    1    3    3    0    0  0.24394782246E+02 -0.14426768892E+02  0.26477869852E+01  0.28464852668E+02  0.00000000000E+00 0.  1.
</event>
<event>
 7    1  0.2153242E-013  0.7246165E+02  0.7816164E-02  0.1226708E+00
        -11   -1    0    0    0    0  0.00000000000E+00  0.00000000000E+00  0.45593999997E+02  0.45594000000E+02  0.51100000000E-03 0.  1.
         11   -1    0    0    0    0 -0.00000000000E+00 -0.00000000000E+00 -0.45593999997E+02  0.45594000000E+02  0.51100000000E-03 0. -1.
    9900012    2    1    2    0    0  0.12014051561E+02  0.13982792126E+02  0.32894278143E+01  0.72461648356E+02  0.70000101690E+02 0.  0.
         12    1    1    2    0    0 -0.12014051561E+02 -0.13982792126E+02 -0.32894278143E+01  0.18726351644E+02  0.00000000000E+00 0. -1.
         11    1    3    3    0    0  0.46982138656E+00 -0.79117565566E+01  0.90040584657E+00  0.79766756795E+01  0.51100000000E-03 0. -1.
        -11    1    3    3    0    0  0.28234817835E+02 -0.63104168449E+01 -0.81522453068E+01  0.30058033914E+02  0.51100000000E-03 0.  1.
         12    1    3    3    0    0 -0.16690587661E+02  0.28204965527E+02  0.10541267274E+02  0.34426938763E+02  0.00000000000E+00 0. -1.
</event>
<event>
 7    1  0.2153242E-013  0.7246154E+02  0.7816164E-02  0.1226708E+00
        -11   -1    0    0    0    0  0.00000000000E+00  0.00000000000E+00  0.45593999997E+02  0.45594000000E+02  0.51100000000E-03 0.  1.
         11   -1    0    0    0    0 -0.00000000000E+00 -0.00000000000E+00 -0.45593999997E+02  0.45594000000E+02  0.51100000000E-03 0. -1.
    9900012    2    1    2    0    0 -0.62208896175E+01 -0.36337479154E+01 -0.17285161175E+02  0.72461537750E+02  0.69999957605E+02 0.  0.
         12    1    1    2    0    0  0.62208896175E+01  0.36337479154E+01  0.17285161175E+02  0.18726462250E+02  0.00000000000E+00 0. -1.
         11    1    3    3    0    0 -0.63983529267E+01  0.32147583030E+01 -0.14707096879E+02  0.16357637054E+02  0.51100000000E-03 0. -1.
        -11    1    3    3    0    0 -0.25466215142E+02 -0.97628554706E+01  0.76754919740E+01  0.28332924980E+02  0.51100000000E-03 0.  1.
         12    1    3    3    0    0  0.25643678451E+02  0.29143492522E+01 -0.10253556270E+02  0.27770975716E+02  0.00000000000E+00 0. -1.
</event>
<event>
 7    1  0.2153242E-013  0.7246162E+02  0.7816164E-02  0.1226708E+00
        -11   -1    0    0    0    0  0.00000000000E+00  0.00000000000E+00  0.45593999997E+02  0.45594000000E+02  0.51100000000E-03 0. -1.
         11   -1    0    0    0    0 -0.00000000000E+00 -0.00000000000E+00 -0.45593999997E+02  0.45594000000E+02  0.51100000000E-03 0.  1.
    9900012    2    1    2    0    0 -0.33919241173E+01  0.92645773338E+01 -0.15916655455E+02  0.72461615852E+02  0.70000059347E+02 0.  0.
         12    1    1    2    0    0  0.33919241173E+01 -0.92645773338E+01  0.15916655455E+02  0.18726384148E+02  0.00000000000E+00 0. -1.
         11    1    3    3    0    0  0.15461319535E+01  0.23116041830E+02 -0.15984492616E+02  0.28146863384E+02  0.51100000000E-03 0. -1.
        -11    1    3    3    0    0 -0.17464723069E+02  0.73442121859E+01  0.40501880125E+01  0.19374158762E+02  0.51100000000E-03 0.  1.
        -12    1    3    3    0    0  0.12526666999E+02 -0.21195676682E+02 -0.39823508513E+01  0.24940593706E+02  0.00000000000E+00 0.  1.
</event>
<event>
 7    1  0.2153242E-013  0.7246154E+02  0.7816164E-02  0.1226708E+00
        -11   -1    0    0    0    0  0.00000000000E+00  0.00000000000E+00  0.45593999997E+02  0.45594000000E+02  0.51100000000E-03 0. -1.
         11   -1    0    0    0    0 -0.00000000000E+00 -0.00000000000E+00 -0.45593999997E+02  0.45594000000E+02  0.51100000000E-03 0.  1.
    9900012    2    1    2    0    0 -0.10313880829E+02 -0.15626324491E+02  0.34931882796E+00  0.72461543354E+02  0.69999964906E+02 0.  0.
         12    1    1    2    0    0  0.10313880829E+02  0.15626324491E+02 -0.34931882796E+00  0.18726456646E+02  0.00000000000E+00 0. -1.
         11    1    3    3    0    0 -0.18294781390E+02  0.48341101511E-01  0.21513928935E+02  0.28240936625E+02  0.51100000000E-03 0. -1.
        -11    1    3    3    0    0 -0.12020745207E+02 -0.14339491110E+02 -0.11537662089E+02  0.21982651508E+02  0.51100000000E-03 0.  1.
        -12    1    3    3    0    0  0.20001645767E+02 -0.13351744827E+01 -0.96269480183E+01  0.22237955222E+02  0.00000000000E+00 0.  1.
</event>
<event>
 7    1  0.2153242E-013  0.7246158E+02  0.7816164E-02  0.1226708E+00
        -11   -1    0    0    0    0  0.00000000000E+00  0.00000000000E+00  0.45593999997E+02  0.45594000000E+02  0.51100000000E-03 0. -1.
         11   -1    0    0    0    0 -0.00000000000E+00 -0.00000000000E+00 -0.45593999997E+02  0.45594000000E+02  0.51100000000E-03 0.  1.
    9900012    2    1    2    0    0  0.43550289884E+01  0.18184393898E+02  0.10199138456E+01  0.72461583279E+02  0.70000016915E+02 0.  0.
         12    1    1    2    0    0 -0.43550289884E+01 -0.18184393898E+02 -0.10199138456E+01  0.18726416721E+02  0.00000000000E+00 0. -1.
         11    1    3    3    0    0  0.24562282644E+02  0.18977541532E+02  0.13729200853E+02  0.33940297105E+02  0.51100000000E-03 0. -1.
        -11    1    3    3    0    0 -0.15008290302E+01  0.92261080178E+01 -0.14471255529E+02  0.17227617183E+02  0.51100000000E-03 0.  1.
        -12    1    3    3    0    0 -0.18706424625E+02 -0.10019255651E+02  0.17619685217E+01  0.21293668992E+02  0.00000000000E+00 0.  1.
</event>
<event>
 7    1  0.2153242E-013  0.7246151E+02  0.7816164E-02  0.1226708E+00
        -11   -1    0    0    0    0  0.00000000000E+00  0.00000000000E+00  0.45593999997E+02  0.45594000000E+02  0.51100000000E-03 0.  1.
         11   -1    0    0    0    0 -0.00000000000E+00 -0.00000000000E+00 -0.45593999997E+02  0.45594000000E+02  0.51100000000E-03 0. -1.
    9900012    2    1    2    0    0 -0.58321534585E+00 -0.18254438382E+02  0.41372370725E+01  0.72461510971E+02  0.69999922720E+02 0.  0.
         12    1    1    2    0    0  0.58321534585E+00  0.18254438382E+02 -0.41372370725E+01  0.18726489029E+02  0.00000000000E+00 0. -1.
         11    1    3    3    0    0 -0.13097234895E+02 -0.58401753354E+01  0.19663933336E+02  0.24337532421E+02  0.51100000000E-03 0. -1.
        -11    1    3    3    0    0 -0.13990728748E+02 -0.65894627474E+01  0.23290556844E+01  0.15639245852E+02  0.51100000000E-03 0.  1.
         12    1    3    3    0    0  0.26504748297E+02 -0.58248002991E+01 -0.17855751948E+02  0.32484732697E+02  0.00000000000E+00 0. -1.
</event>
<event>
 7    1  0.2153242E-013  0.7246160E+02  0.7816164E-02  0.1226708E+00
        -11   -1    0    0    0    0  0.00000000000E+00  0.00000000000E+00  0.45593999997E+02  0.45594000000E+02  0.51100000000E-03 0.  1.
         11   -1    0    0    0    0 -0.00000000000E+00 -0.00000000000E+00 -0.45593999997E+02  0.45594000000E+02  0.51100000000E-03 0. -1.
    9900012    2    1    2    0    0  0.21182395545E+01  0.16869933128E+02  0.78483531334E+01  0.72461595394E+02  0.70000032697E+02 0.  0.
         12    1    1    2    0    0 -0.21182395545E+01 -0.16869933128E+02 -0.78483531334E+01  0.18726404606E+02  0.00000000000E+00 0. -1.
         11    1    3    3    0    0  0.67671146690E+00 -0.12931602208E+00 -0.43324011103E+01  0.43868394870E+01  0.51100000000E-03 0. -1.
        -11    1    3    3    0    0 -0.11064272182E+01  0.33013983432E+02 -0.15114177154E+02  0.36326101285E+02  0.51100000000E-03 0.  1.
         12    1    3    3    0    0  0.25479553058E+01 -0.16014734282E+02  0.27294931397E+02  0.31748654622E+02  0.00000000000E+00 0. -1.
</event>
<event>
 7    1  0.2399102E-013  0.7246152E+02  0.7816164E-02  0.1226708E+00
        -11   -1    0    0    0    0  0.00000000000E+00  0.00000000000E+00  0.45593999997E+02  0.45594000000E+02  0.51100000000E-03 0. -1.
         11   -1    0    0    0    0 -0.00000000000E+00 -0.00000000000E+00 -0.45593999997E+02  0.45594000000E+02  0.51100000000E-03 0.  1.
    9900012    2    1    2    0    0 -0.11537636105E+02 -0.49781722850E+01 -0.13884586998E+02  0.72461521359E+02  0.69999936252E+02 0.  0.
         12    1    1    2    0    0  0.11537636105E+02  0.49781722850E+01  0.13884586998E+02  0.18726478641E+02  0.00000000000E+00 0. -1.
         11    1    3    3    0    0 -0.11497806952E+01 -0.34486898370E+01 -0.11253394979E+02  0.11826003385E+02  0.51100000000E-03 0. -1.
        -11    1    3    3    0    0 -0.17652975263E+00  0.21838568055E+02 -0.20134894416E+02  0.29704682978E+02  0.51100000000E-03 0.  1.
         12    1    3    3    0    0 -0.10211325658E+02 -0.23368050503E+02  0.17503702396E+02  0.30930834996E+02  0.00000000000E+00 0. -1.
</event>
<event>
 7    1  0.2153242E-013  0.7246132E+02  0.7816164E-02  0.1226709E+00
        -11   -1    0    0    0    0  0.00000000000E+00  0.00000000000E+00  0.45593999997E+02  0.45594000000E+02  0.51100000000E-03 0.  1.
         11   -1    0    0    0    0 -0.00000000000E+00 -0.00000000000E+00 -0.45593999997E+02  0.45594000000E+02  0.51100000000E-03 0. -1.
    9900012    2    1    2    0    0  0.12735293309E+02  0.13725955530E+02 -0.31491112351E+00  0.72461315299E+02  0.69999667821E+02 0.  0.
         12    1    1    2    0    0 -0.12735293309E+02 -0.13725955530E+02  0.31491112351E+00  0.18726684701E+02  0.00000000000E+00 0. -1.
         11    1    3    3    0    0 -0.23762824738E+02  0.77713466432E+01 -0.19091204814E+01  0.25074098377E+02  0.51100000000E-03 0. -1.
        -11    1    3    3    0    0  0.20459478597E+02  0.14642915766E+02  0.10286585613E+02  0.27181226801E+02  0.51100000000E-03 0.  1.
        -12    1    3    3    0    0  0.16038639449E+02 -0.86883068792E+01 -0.86923762548E+01  0.20205990121E+02  0.00000000000E+00 0.  1.
</event>
<event>
 7    1  0.2153242E-013  0.7246163E+02  0.7816164E-02  0.1226708E+00
        -11   -1    0    0    0    0  0.00000000000E+00  0.00000000000E+00  0.45593999997E+02  0.45594000000E+02  0.51100000000E-03 0. -1.
         11   -1    0    0    0    0 -0.00000000000E+00 -0.00000000000E+00 -0.45593999997E+02  0.45594000000E+02  0.51100000000E-03 0.  1.
    9900012    2    1    2    0    0 -0.65776277574E+01  0.13480867652E+02 -0.11210615134E+02  0.72461631659E+02  0.70000079939E+02 0.  0.
         12    1    1    2    0    0  0.65776277574E+01 -0.13480867652E+02  0.11210615134E+02  0.18726368341E+02  0.00000000000E+00 0. -1.
         11    1    3    3    0    0 -0.33976799321E-01  0.41210897889E+01  0.39387610101E+01  0.57007345165E+01  0.51100000000E-03 0. -1.
        -11    1    3    3    0    0  0.26570706052E+02  0.14087532782E+02 -0.83231081969E-01  0.30074373271E+02  0.51100000000E-03 0.  1.
        -12    1    3    3    0    0 -0.33114357010E+02 -0.47277549191E+01 -0.15066145062E+02  0.36686523872E+02  0.00000000000E+00 0.  1.
</event>
<event>
 7    1  0.2153242E-013  0.7246154E+02  0.7816164E-02  0.1226708E+00
        -11   -1    0    0    0    0  0.00000000000E+00  0.00000000000E+00  0.45593999997E+02  0.45594000000E+02  0.51100000000E-03 0. -1.
         11   -1    0    0    0    0 -0.00000000000E+00 -0.00000000000E+00 -0.45593999997E+02  0.45594000000E+02  0.51100000000E-03 0.  1.
    9900012    2    1    2    0    0  0.16132468494E+01  0.88574277750E+01 -0.16420217451E+02  0.72461544561E+02  0.69999966477E+02 0.  0.
         12    1    1    2    0    0 -0.16132468494E+01 -0.88574277750E+01  0.16420217451E+02  0.18726455439E+02  0.00000000000E+00 0. -1.
         11    1    3    3    0    0  0.12966520036E+01  0.92144709733E+01  0.13976151170E+02  0.16790490866E+02  0.51100000000E-03 0. -1.
        -11    1    3    3    0    0 -0.98016286293E+01 -0.19215593279E+02 -0.44291399015E+01  0.22021086017E+02  0.51100000000E-03 0.  1.
         12    1    3    3    0    0  0.10118223475E+02  0.18858550080E+02 -0.25967228719E+02  0.33649967678E+02  0.00000000000E+00 0. -1.
</event>
<event>
 7    1  0.2153242E-013  0.7246159E+02  0.7816164E-02  0.1226708E+00
        -11   -1    0    0    0    0  0.00000000000E+00  0.00000000000E+00  0.45593999997E+02  0.45594000000E+02  0.51100000000E-03 0.  1.
         11   -1    0    0    0    0 -0.00000000000E+00 -0.00000000000E+00 -0.45593999997E+02  0.45594000000E+02  0.51100000000E-03 0. -1.
    9900012    2    1    2    0    0 -0.37456526744E+01 -0.81538068341E+01  0.16436660911E+02  0.72461593464E+02  0.70000030183E+02 0.  0.
         12    1    1    2    0    0  0.37456526744E+01  0.81538068341E+01 -0.16436660911E+02  0.18726406536E+02  0.00000000000E+00 0. -1.
         11    1    3    3    0    0  0.13832305039E+02 -0.29051465241E+02  0.25147757947E+02  0.40837850401E+02  0.51100000000E-03 0. -1.
        -11    1    3    3    0    0 -0.38047004850E+01  0.16537103855E+00 -0.52620335328E+01  0.64955438973E+01  0.51100000000E-03 0.  1.
        -12    1    3    3    0    0 -0.13773257229E+02  0.20732287369E+02 -0.34490635033E+01  0.25128199165E+02  0.00000000000E+00 0.  1.
</event>
<event>
 7    1  0.2153242E-013  0.7246164E+02  0.7816164E-02  0.1226708E+00
        -11   -1    0    0    0    0  0.00000000000E+00  0.00000000000E+00  0.45593999997E+02  0.45594000000E+02  0.51100000000E-03 0. -1.
         11   -1    0    0    0    0 -0.00000000000E+00 -0.00000000000E+00 -0.45593999997E+02  0.45594000000E+02  0.51100000000E-03 0.  1.
    9900012    2    1    2    0    0 -0.15178014086E+02 -0.27701366259E+01 -0.10612766465E+02  0.72461639420E+02  0.70000090049E+02 0.  0.
         12    1    1    2    0    0  0.15178014086E+02  0.27701366259E+01  0.10612766465E+02  0.18726360580E+02  0.00000000000E+00 0. -1.
         11    1    3    3    0    0 -0.26743597476E+02 -0.28351776947E+00 -0.10458559889E+02  0.28717274653E+02  0.51100000000E-03 0. -1.
        -11    1    3    3    0    0 -0.12057286085E+02 -0.30621431538E+01 -0.12023634574E+02  0.17300943820E+02  0.51100000000E-03 0.  1.
         12    1    3    3    0    0  0.23622869474E+02  0.57552429738E+00  0.11869427998E+02  0.26443420947E+02  0.00000000000E+00 0. -1.
</event>
<event>
 7    1  0.2153242E-013  0.7246163E+02  0.7816164E-02  0.1226708E+00
        -11   -1    0    0    0    0  0.00000000000E+00  0.00000000000E+00  0.45593999997E+02  0.45594000000E+02  0.51100000000E-03 0. -1.
         11   -1    0    0    0    0 -0.00000000000E+00 -0.00000000000E+00 -0.45593999997E+02  0.45594000000E+02  0.51100000000E-03 0.  1.
    9900012    2    1    2    0    0  0.29835033218E+01  0.12061193565E+01 -0.18447785841E+02  0.72461633070E+02  0.70000081777E+02 0.  0.
         12    1    1    2    0    0 -0.29835033218E+01 -0.12061193565E+01  0.18447785841E+02  0.18726366930E+02  0.00000000000E+00 0. -1.
         11    1    3    3    0    0 -0.85356786785E+01  0.65570933096E+01  0.90438504195E+01  0.14058609954E+02  0.51100000000E-03 0. -1.
        -11    1    3    3    0    0  0.16386333075E+02  0.55948758023E+01  0.93390833144E+01  0.19673154915E+02  0.51100000000E-03 0.  1.
        -12    1    3    3    0    0 -0.48671510746E+01 -0.10945849755E+02 -0.36830719575E+02  0.38729868201E+02  0.00000000000E+00 0.  1.
</event>
<event>
 7    1  0.2153242E-013  0.7246155E+02  0.7816164E-02  0.1226708E+00
        -11   -1    0    0    0    0  0.00000000000E+00  0.00000000000E+00  0.45593999997E+02  0.45594000000E+02  0.51100000000E-03 0.  1.
         11   -1    0    0    0    0 -0.00000000000E+00 -0.00000000000E+00 -0.45593999997E+02  0.45594000000E+02  0.51100000000E-03 0. -1.
    9900012    2    1    2    0    0  0.74575020590E+00  0.13726683074E+02  0.12716211407E+02  0.72461548010E+02  0.69999970970E+02 0.  0.
         12    1    1    2    0    0 -0.74575020590E+00 -0.13726683074E+02 -0.12716211407E+02  0.18726451990E+02  0.00000000000E+00 0. -1.
         11    1    3    3    0    0  0.88728535585E+01  0.27210083415E+02  0.11063919999E+00  0.28620419477E+02  0.51100000000E-03 0. -1.
        -11    1    3    3    0    0 -0.11248780717E+02  0.11807343947E+02  0.70133609759E+01  0.17752061040E+02  0.51100000000E-03 0.  1.
        -12    1    3    3    0    0  0.31216773648E+01 -0.25290744288E+02  0.55922112312E+01  0.26089067493E+02  0.00000000000E+00 0.  1.
</event>
<event>
 7    1  0.2153242E-013  0.7246154E+02  0.7816164E-02  0.1226708E+00
        -11   -1    0    0    0    0  0.00000000000E+00  0.00000000000E+00  0.45593999997E+02  0.45594000000E+02  0.51100000000E-03 0. -1.
         11   -1    0    0    0    0 -0.00000000000E+00 -0.00000000000E+00 -0.45593999997E+02  0.45594000000E+02  0.51100000000E-03 0.  1.
    9900012    2    1    2    0    0  0.16121109799E+01  0.48483001968E+00 -0.18650637133E+02  0.72461542048E+02  0.69999963204E+02 0.  0.
         12    1    1    2    0    0 -0.16121109799E+01 -0.48483001968E+00  0.18650637133E+02  0.18726457952E+02  0.00000000000E+00 0. -1.
         11    1    3    3    0    0  0.14410123397E+02  0.10022791469E+02 -0.17030942372E+01  0.17635434086E+02  0.51100000000E-03 0. -1.
        -11    1    3    3    0    0 -0.15368174221E+02  0.10620238577E+02  0.99102748008E+01  0.21146720626E+02  0.51100000000E-03 0.  1.
        -12    1    3    3    0    0  0.25701618040E+01 -0.20158200026E+02 -0.26857817696E+02  0.33679387337E+02  0.00000000000E+00 0.  1.
</event>
<event>
 7    1  0.2153242E-013  0.7246153E+02  0.7816164E-02  0.1226708E+00
        -11   -1    0    0    0    0  0.00000000000E+00  0.00000000000E+00  0.45593999997E+02  0.45594000000E+02  0.51100000000E-03 0. -1.
         11   -1    0    0    0    0 -0.00000000000E+00 -0.00000000000E+00 -0.45593999997E+02  0.45594000000E+02  0.51100000000E-03 0.  1.
    9900012    2    1    2    0    0  0.43325120614E+00 -0.26409689774E+01 -0.18534244077E+02  0.72461531372E+02  0.69999949297E+02 0.  0.
         12    1    1    2    0    0 -0.43325120614E+00  0.26409689774E+01  0.18534244077E+02  0.18726468628E+02  0.00000000000E+00 0. -1.
         11    1    3    3    0    0  0.85236276512E+01 -0.14867936367E+02  0.18869236877E+00  0.17138942944E+02  0.51100000000E-03 0. -1.
        -11    1    3    3    0    0  0.10287624228E+02 -0.92452673310E+01 -0.22899454647E+02  0.26752480328E+02  0.51100000000E-03 0.  1.
         12    1    3    3    0    0 -0.18378000673E+02  0.21472234721E+02  0.41765182011E+01  0.28570108101E+02  0.00000000000E+00 0. -1.
</event>
<event>
 7    1  0.2153242E-013  0.7246163E+02  0.7816164E-02  0.1226708E+00
        -11   -1    0    0    0    0  0.00000000000E+00  0.00000000000E+00  0.45593999997E+02  0.45594000000E+02  0.51100000000E-03 0.  1.
         11   -1    0    0    0    0 -0.00000000000E+00 -0.00000000000E+00 -0.45593999997E+02  0.45594000000E+02  0.51100000000E-03 0. -1.
    9900012    2    1    2    0    0  0.12670186366E+02 -0.10454384835E+02 -0.89916186732E+01  0.72461628456E+02  0.70000075766E+02 0.  0.
         12    1    1    2    0    0 -0.12670186366E+02  0.10454384835E+02  0.89916186732E+01  0.18726371544E+02  0.00000000000E+00 0. -1.
         11    1    3    3    0    0  0.14132258818E+02  0.19392327661E+02 -0.17415016701E+02  0.29649045826E+02  0.51100000000E-03 0. -1.
        -11    1    3    3    0    0 -0.13059659197E+02 -0.10459351261E+02 -0.37545885065E+01  0.17147876319E+02  0.51100000000E-03 0.  1.
         12    1    3    3    0    0  0.11597586745E+02 -0.19387361236E+02  0.12177986534E+02  0.25664706311E+02  0.00000000000E+00 0. -1.
</event>
<event>
 7    1  0.2153242E-013  0.7246153E+02  0.7816164E-02  0.1226708E+00
        -11   -1    0    0    0    0  0.00000000000E+00  0.00000000000E+00  0.45593999997E+02  0.45594000000E+02  0.51100000000E-03 0. -1.
         11   -1    0    0    0    0 -0.00000000000E+00 -0.00000000000E+00 -0.45593999997E+02  0.45594000000E+02  0.51100000000E-03 0.  1.
    9900012    2    1    2    0    0 -0.48418876302E+01 -0.98688630628E+01 -0.15160546326E+02  0.72461534800E+02  0.69999953763E+02 0.  0.
         12    1    1    2    0    0  0.48418876302E+01  0.98688630628E+01  0.15160546326E+02  0.18726465200E+02  0.00000000000E+00 0. -1.
         11    1    3    3    0    0  0.23629467421E+02 -0.66276300481E+01  0.16963644297E+01  0.24599895593E+02  0.51100000000E-03 0. -1.
        -11    1    3    3    0    0  0.27805785474E+01  0.54236103505E+01 -0.14043367276E+02  0.15308929780E+02  0.51100000000E-03 0.  1.
         12    1    3    3    0    0 -0.31251933598E+02 -0.86648433652E+01 -0.28135434792E+01  0.32552709428E+02  0.00000000000E+00 0. -1.
</event>
<event>
 7    1  0.2153242E-013  0.7246157E+02  0.7816164E-02  0.1226708E+00
        -11   -1    0    0    0    0  0.00000000000E+00  0.00000000000E+00  0.45593999997E+02  0.45594000000E+02  0.51100000000E-03 0. -1.
         11   -1    0    0    0    0 -0.00000000000E+00 -0.00000000000E+00 -0.45593999997E+02  0.45594000000E+02  0.51100000000E-03 0.  1.
    9900012    2    1    2    0    0  0.60097877694E+01 -0.14299458800E+02 -0.10492233435E+02  0.72461573927E+02  0.70000004733E+02 0.  0.
         12    1    1    2    0    0 -0.60097877694E+01  0.14299458800E+02  0.10492233435E+02  0.18726426073E+02  0.00000000000E+00 0. -1.
         11    1    3    3    0    0  0.67276244863E+01  0.15008062817E+02 -0.76716334110E+00  0.16464854102E+02  0.51100000000E-03 0.  1.
        -11    1    3    3    0    0 -0.71979613273E+01  0.66946449676E+01  0.10346186739E+02  0.14271387417E+02  0.51100000000E-03 0. -1.
        -12    1    3    3    0    0  0.64801246103E+01 -0.36002166584E+02 -0.20071256833E+02  0.41725332408E+02  0.00000000000E+00 0.  1.
</event>
<event>
 7    1  0.2153242E-013  0.7246157E+02  0.7816164E-02  0.1226708E+00
        -11   -1    0    0    0    0  0.00000000000E+00  0.00000000000E+00  0.45593999997E+02  0.45594000000E+02  0.51100000000E-03 0.  1.
         11   -1    0    0    0    0 -0.00000000000E+00 -0.00000000000E+00 -0.45593999997E+02  0.45594000000E+02  0.51100000000E-03 0. -1.
    9900012    2    1    2    0    0 -0.65240188629E+01  0.13525665508E+02  0.11188059141E+02  0.72461571700E+02  0.70000001831E+02 0.  0.
         12    1    1    2    0    0  0.65240188629E+01 -0.13525665508E+02 -0.11188059141E+02  0.18726428300E+02  0.00000000000E+00 0. -1.
         11    1    3    3    0    0 -0.67942513276E+01 -0.73927784153E+01  0.51672783571E+01  0.11292288948E+02  0.51100000000E-03 0. -1.
        -11    1    3    3    0    0 -0.36473616734E+01  0.60561304626E+01  0.31024223587E+02  0.31819528796E+02  0.51100000000E-03 0.  1.
         12    1    3    3    0    0  0.39175941381E+01  0.14862313461E+02 -0.25003442804E+02  0.29349753956E+02  0.00000000000E+00 0. -1.
</event>
<event>
 7    1  0.2153242E-013  0.7246158E+02  0.7816164E-02  0.1226708E+00
        -11   -1    0    0    0    0  0.00000000000E+00  0.00000000000E+00  0.45593999997E+02  0.45594000000E+02  0.51100000000E-03 0. -1.
         11   -1    0    0    0    0 -0.00000000000E+00 -0.00000000000E+00 -0.45593999997E+02  0.45594000000E+02  0.51100000000E-03 0.  1.
    9900012    2    1    2    0    0 -0.33893281970E+01 -0.17712987313E+02  0.50439492499E+01  0.72461577779E+02  0.70000009750E+02 0.  0.
         12    1    1    2    0    0  0.33893281970E+01  0.17712987313E+02 -0.50439492499E+01  0.18726422221E+02  0.00000000000E+00 0. -1.
         11    1    3    3    0    0 -0.13751920681E+02  0.35041362404E+00  0.11858080277E+02  0.18161833064E+02  0.51100000000E-03 0. -1.
        -11    1    3    3    0    0  0.19442717832E+00  0.12566430058E+01  0.19820096730E+02  0.19860845606E+02  0.51100000000E-03 0.  1.
        -12    1    3    3    0    0  0.10168165306E+02 -0.19320043943E+02 -0.26634227756E+02  0.34438899109E+02  0.00000000000E+00 0.  1.
</event>
<event>
 7    1  0.2153242E-013  0.7246201E+02  0.7816164E-02  0.1226707E+00
        -11   -1    0    0    0    0  0.00000000000E+00  0.00000000000E+00  0.45593999997E+02  0.45594000000E+02  0.51100000000E-03 0.  1.
         11   -1    0    0    0    0 -0.00000000000E+00 -0.00000000000E+00 -0.45593999997E+02  0.45594000000E+02  0.51100000000E-03 0. -1.
    9900012    2    1    2    0    0  0.89606854126E+01 -0.10381178193E+02 -0.12751475638E+02  0.72462005375E+02  0.70000566772E+02 0.  0.
         12    1    1    2    0    0 -0.89606854126E+01  0.10381178193E+02  0.12751475638E+02  0.18725994625E+02  0.00000000000E+00 0. -1.
         11    1    3    3    0    0  0.70304987611E+01 -0.15951086654E+02 -0.30330422384E+01  0.17693626642E+02  0.51100000000E-03 0. -1.
        -11    1    3    3    0    0  0.13291646578E+02 -0.19405259110E+02  0.43722121639E+01  0.23923799643E+02  0.51100000000E-03 0.  1.
        -12    1    3    3    0    0 -0.11361459926E+02  0.24975167571E+02 -0.14090645564E+02  0.30844579091E+02  0.00000000000E+00 0.  1.
</event>
<event>
 7    1  0.2153242E-013  0.7246158E+02  0.7816164E-02  0.1226708E+00
        -11   -1    0    0    0    0  0.00000000000E+00  0.00000000000E+00  0.45593999997E+02  0.45594000000E+02  0.51100000000E-03 0. -1.
         11   -1    0    0    0    0 -0.00000000000E+00 -0.00000000000E+00 -0.45593999997E+02  0.45594000000E+02  0.51100000000E-03 0.  1.
    9900012    2    1    2    0    0  0.13327248476E+01  0.16810230217E+02 -0.81436444342E+01  0.72461576419E+02  0.70000007979E+02 0.  0.
         12    1    1    2    0    0 -0.13327248476E+01 -0.16810230217E+02  0.81436444342E+01  0.18726423581E+02  0.00000000000E+00 0. -1.
         11    1    3    3    0    0  0.46067148395E+01 -0.18895241812E+02  0.12477087025E+00  0.19449101593E+02  0.51100000000E-03 0. -1.
        -11    1    3    3    0    0  0.60575716529E+01 -0.53509999998E+01  0.41904121884E+01  0.91042259362E+01  0.51100000000E-03 0.  1.
        -12    1    3    3    0    0 -0.93315616448E+01  0.41056472028E+02 -0.12458827493E+02  0.43908248890E+02  0.00000000000E+00 0.  1.
</event>
<event>
 7    1  0.2153242E-013  0.7246157E+02  0.7816164E-02  0.1226708E+00
        -11   -1    0    0    0    0  0.00000000000E+00  0.00000000000E+00  0.45593999997E+02  0.45594000000E+02  0.51100000000E-03 0. -1.
         11   -1    0    0    0    0 -0.00000000000E+00 -0.00000000000E+00 -0.45593999997E+02  0.45594000000E+02  0.51100000000E-03 0.  1.
    9900012    2    1    2    0    0  0.12937646863E+02 -0.10611825251E+02 -0.84074800084E+01  0.72461567836E+02  0.69999996798E+02 0.  0.
         12    1    1    2    0    0 -0.12937646863E+02  0.10611825251E+02  0.84074800084E+01  0.18726432164E+02  0.00000000000E+00 0. -1.
         11    1    3    3    0    0 -0.89286751120E+01  0.60514709239E+01 -0.15979143757E+02  0.19278863428E+02  0.51100000000E-03 0. -1.
        -11    1    3    3    0    0 -0.74051207256E+01 -0.15389622434E+00 -0.12140763578E+02  0.14221731172E+02  0.51100000000E-03 0.  1.
        -12    1    3    3    0    0  0.29271442700E+02 -0.16509399950E+02  0.19712427326E+02  0.38960973237E+02  0.00000000000E+00 0.  1.
</event>
<event>
 7    1  0.2153242E-013  0.7246147E+02  0.7816164E-02  0.1226708E+00
        -11   -1    0    0    0    0  0.00000000000E+00  0.00000000000E+00  0.45593999997E+02  0.45594000000E+02  0.51100000000E-03 0. -1.
         11   -1    0    0    0    0 -0.00000000000E+00 -0.00000000000E+00 -0.45593999997E+02  0.45594000000E+02  0.51100000000E-03 0.  1.
    9900012    2    1    2    0    0 -0.12687632569E+02 -0.96569003211E+00 -0.13739517363E+02  0.72461470294E+02  0.69999869731E+02 0.  0.
         12    1    1    2    0    0  0.12687632569E+02  0.96569003211E+00  0.13739517363E+02  0.18726529706E+02  0.00000000000E+00 0. -1.
         11    1    3    3    0    0 -0.17561019228E+02  0.13040794484E+02  0.75849571240E+01  0.23151312963E+02  0.51100000000E-03 0. -1.
        -11    1    3    3    0    0 -0.84975086704E+01 -0.16522842253E+02 -0.28428438465E+02  0.33961567742E+02  0.51100000000E-03 0.  1.
         12    1    3    3    0    0  0.13370895329E+02  0.25163577374E+01  0.71039639773E+01  0.15348589589E+02  0.00000000000E+00 0. -1.
</event>
<event>
 7    1  0.2153242E-013  0.7246158E+02  0.7816164E-02  0.1226708E+00
        -11   -1    0    0    0    0  0.00000000000E+00  0.00000000000E+00  0.45593999997E+02  0.45594000000E+02  0.51100000000E-03 0.  1.
         11   -1    0    0    0    0 -0.00000000000E+00 -0.00000000000E+00 -0.45593999997E+02  0.45594000000E+02  0.51100000000E-03 0. -1.
    9900012    2    1    2    0    0 -0.10158192299E+02 -0.72689789227E+01  0.13951768681E+02  0.72461580837E+02  0.70000013733E+02 0.  0.
         12    1    1    2    0    0  0.10158192299E+02  0.72689789227E+01 -0.13951768681E+02  0.18726419163E+02  0.00000000000E+00 0. -1.
         11    1    3    3    0    0  0.33844848312E+01 -0.11697685527E+02  0.28224147609E+01  0.12500264382E+02  0.51100000000E-03 0. -1.
        -11    1    3    3    0    0 -0.22972086246E+02 -0.15291223104E+01  0.30135713845E+02  0.37923821152E+02  0.51100000000E-03 0.  1.
         12    1    3    3    0    0  0.94294091166E+01  0.59578289149E+01 -0.19006359925E+02  0.22037495303E+02  0.00000000000E+00 0. -1.
</event>
<event>
 7    1  0.2153242E-013  0.7246154E+02  0.7816164E-02  0.1226708E+00
        -11   -1    0    0    0    0  0.00000000000E+00  0.00000000000E+00  0.45593999997E+02  0.45594000000E+02  0.51100000000E-03 0. -1.
         11   -1    0    0    0    0 -0.00000000000E+00 -0.00000000000E+00 -0.45593999997E+02  0.45594000000E+02  0.51100000000E-03 0.  1.
    9900012    2    1    2    0    0 -0.10490462799E+02 -0.12615945561E+02 -0.90259795160E+01  0.72461542824E+02  0.69999964215E+02 0.  0.
         12    1    1    2    0    0  0.10490462799E+02  0.12615945561E+02  0.90259795160E+01  0.18726457176E+02  0.00000000000E+00 0. -1.
         11    1    3    3    0    0 -0.17423643576E+02  0.92763313020E+01  0.10531842070E+02  0.22373050206E+02  0.51100000000E-03 0. -1.
        -11    1    3    3    0    0 -0.74862245185E+00 -0.89583034210E+01  0.12079148678E+02  0.15057140127E+02  0.51100000000E-03 0.  1.
        -12    1    3    3    0    0  0.76818032294E+01 -0.12933973442E+02 -0.31636970264E+02  0.35031352491E+02  0.00000000000E+00 0.  1.
</event>
<event>
 7    1  0.2153242E-013  0.7246174E+02  0.7816164E-02  0.1226708E+00
        -11   -1    0    0    0    0  0.00000000000E+00  0.00000000000E+00  0.45593999997E+02  0.45594000000E+02  0.51100000000E-03 0.  1.
         11   -1    0    0    0    0 -0.00000000000E+00 -0.00000000000E+00 -0.45593999997E+02  0.45594000000E+02  0.51100000000E-03 0. -1.
    9900012    2    1    2    0    0  0.86487904096E+01 -0.59294664504E+01  0.15514916827E+02  0.72461740574E+02  0.70000221820E+02 0.  0.
         12    1    1    2    0    0 -0.86487904096E+01  0.59294664504E+01 -0.15514916827E+02  0.18726259426E+02  0.00000000000E+00 0. -1.
         11    1    3    3    0    0  0.17302447183E+02 -0.10811185542E+01 -0.10757635288E+01  0.17369535494E+02  0.51100000000E-03 0. -1.
        -11    1    3    3    0    0  0.21665566464E+02 -0.25823737136E+01  0.39902237872E+01  0.22180786964E+02  0.51100000000E-03 0.  1.
         12    1    3    3    0    0 -0.30319223237E+02 -0.22659741826E+01  0.12600456569E+02  0.32911418116E+02  0.00000000000E+00 0. -1.
</event>
<event>
 7    1  0.5971089E-013  0.7246154E+02  0.7816164E-02  0.1226708E+00
        -11   -1    0    0    0    0  0.00000000000E+00  0.00000000000E+00  0.45593999997E+02  0.45594000000E+02  0.51100000000E-03 0. -1.
         11   -1    0    0    0    0 -0.00000000000E+00 -0.00000000000E+00 -0.45593999997E+02  0.45594000000E+02  0.51100000000E-03 0.  1.
    9900012    2    1    2    0    0 -0.97636792637E+01  0.69868661619E+01 -0.14371316211E+02  0.72461535807E+02  0.69999955074E+02 0.  0.
         12    1    1    2    0    0  0.97636792637E+01 -0.69868661619E+01  0.14371316211E+02  0.18726464193E+02  0.00000000000E+00 0. -1.
         11    1    3    3    0    0 -0.76772281531E+00 -0.11548037223E+02 -0.14467140695E+01  0.11663599097E+02  0.51100000000E-03 0. -1.
        -11    1    3    3    0    0 -0.13274822315E+02  0.15747307837E+02 -0.33649930849E+02  0.39452711669E+02  0.51100000000E-03 0.  1.
         12    1    3    3    0    0  0.42788658668E+01  0.27875955477E+01  0.20725328707E+02  0.21345225042E+02  0.00000000000E+00 0. -1.
</event>
<event>
 7    1  0.2153242E-013  0.7246160E+02  0.7816164E-02  0.1226708E+00
        -11   -1    0    0    0    0  0.00000000000E+00  0.00000000000E+00  0.45593999997E+02  0.45594000000E+02  0.51100000000E-03 0. -1.
         11   -1    0    0    0    0 -0.00000000000E+00 -0.00000000000E+00 -0.45593999997E+02  0.45594000000E+02  0.51100000000E-03 0.  1.
    9900012    2    1    2    0    0  0.17751763504E+02  0.52914202680E+01  0.27484495004E+01  0.72461595898E+02  0.70000033353E+02 0.  0.
         12    1    1    2    0    0 -0.17751763504E+02 -0.52914202680E+01 -0.27484495004E+01  0.18726404102E+02  0.00000000000E+00 0. -1.
         11    1    3    3    0    0  0.29433764591E+02 -0.13477458843E+02 -0.17713160394E+02  0.36901821720E+02  0.51100000000E-03 0. -1.
        -11    1    3    3    0    0 -0.66777906474E+01 -0.19386972801E+01  0.16669598275E+01  0.71505377702E+01  0.51100000000E-03 0.  1.
        -12    1    3    3    0    0 -0.50042104397E+01  0.20707576391E+02  0.18794650067E+02  0.28409236407E+02  0.00000000000E+00 0.  1.
</event>
<event>
 7    1  0.2153242E-013  0.7246172E+02  0.7816164E-02  0.1226708E+00
        -11   -1    0    0    0    0  0.00000000000E+00  0.00000000000E+00  0.45593999997E+02  0.45594000000E+02  0.51100000000E-03 0.  1.
         11   -1    0    0    0    0 -0.00000000000E+00 -0.00000000000E+00 -0.45593999997E+02  0.45594000000E+02  0.51100000000E-03 0. -1.
    9900012    2    1    2    0    0  0.28090729607E+01  0.13597229310E+02  0.12565742475E+02  0.72461723815E+02  0.70000199989E+02 0.  0.
         12    1    1    2    0    0 -0.28090729607E+01 -0.13597229310E+02 -0.12565742475E+02  0.18726276185E+02  0.00000000000E+00 0. -1.
         11    1    3    3    0    0  0.48376126766E+01  0.45326482010E+01 -0.43542221144E+01  0.79313710419E+01  0.51100000000E-03 0. -1.
        -11    1    3    3    0    0 -0.27628378888E+02  0.17748299132E+02  0.38181330996E+00  0.32840146524E+02  0.51100000000E-03 0.  1.
         12    1    3    3    0    0  0.25599839172E+02 -0.86837180226E+01  0.16538151279E+02  0.31690206249E+02  0.00000000000E+00 0. -1.
</event>
<event>
 7    1  0.2153242E-013  0.7246154E+02  0.7816164E-02  0.1226708E+00
        -11   -1    0    0    0    0  0.00000000000E+00  0.00000000000E+00  0.45593999997E+02  0.45594000000E+02  0.51100000000E-03 0.  1.
         11   -1    0    0    0    0 -0.00000000000E+00 -0.00000000000E+00 -0.45593999997E+02  0.45594000000E+02  0.51100000000E-03 0. -1.
    9900012    2    1    2    0    0  0.64946526679E+01  0.11021729443E+02  0.13675577636E+02  0.72461535922E+02  0.69999955224E+02 0.  0.
         12    1    1    2    0    0 -0.64946526679E+01 -0.11021729443E+02 -0.13675577636E+02  0.18726464078E+02  0.00000000000E+00 0. -1.
         11    1    3    3    0    0  0.14824240027E+02 -0.60259417664E+01  0.16997603401E+02  0.23344990644E+02  0.51100000000E-03 0. -1.
        -11    1    3    3    0    0 -0.26417608262E+01  0.30287117925E+02  0.72379825084E+01  0.31251828802E+02  0.51100000000E-03 0.  1.
        -12    1    3    3    0    0 -0.56878265332E+01 -0.13239446716E+02 -0.10560008273E+02  0.17864716475E+02  0.00000000000E+00 0.  1.
</event>
<event>
 7    1  0.2339719E-013  0.7246154E+02  0.7816164E-02  0.1226708E+00
        -11   -1    0    0    0    0  0.00000000000E+00  0.00000000000E+00  0.45593999997E+02  0.45594000000E+02  0.51100000000E-03 0. -1.
         11   -1    0    0    0    0 -0.00000000000E+00 -0.00000000000E+00 -0.45593999997E+02  0.45594000000E+02  0.51100000000E-03 0.  1.
    9900012    2    1    2    0    0 -0.23397885635E+00  0.10953104662E+02 -0.15187326293E+02  0.72461544709E+02  0.69999966670E+02 0.  0.
         12    1    1    2    0    0  0.23397885635E+00 -0.10953104662E+02  0.15187326293E+02  0.18726455291E+02  0.00000000000E+00 0. -1.
         11    1    3    3    0    0 -0.88871979679E+01  0.26731657659E+02 -0.71786585776E+01  0.29070551218E+02  0.51100000000E-03 0. -1.
        -11    1    3    3    0    0 -0.69210853358E+01  0.54615113953E+01 -0.13845099857E+02  0.16413906277E+02  0.51100000000E-03 0.  1.
         12    1    3    3    0    0  0.15574304447E+02 -0.21240064392E+02  0.58364321417E+01  0.26977087214E+02  0.00000000000E+00 0. -1.
</event>
<event>
 7    1  0.2153242E-013  0.7246157E+02  0.7816164E-02  0.1226708E+00
        -11   -1    0    0    0    0  0.00000000000E+00  0.00000000000E+00  0.45593999997E+02  0.45594000000E+02  0.51100000000E-03 0. -1.
         11   -1    0    0    0    0 -0.00000000000E+00 -0.00000000000E+00 -0.45593999997E+02  0.45594000000E+02  0.51100000000E-03 0.  1.
    9900012    2    1    2    0    0 -0.57252849882E+01  0.26548795809E+01 -0.17630996257E+02  0.72461566736E+02  0.69999995365E+02 0.  0.
         12    1    1    2    0    0  0.57252849882E+01 -0.26548795809E+01  0.17630996257E+02  0.18726433264E+02  0.00000000000E+00 0. -1.
         11    1    3    3    0    0  0.81331601136E+00 -0.13938619043E+02  0.73989237882E+01  0.15801602996E+02  0.51100000000E-03 0. -1.
        -11    1    3    3    0    0  0.18153997706E+02 -0.31357851836E+01 -0.14162355868E+02  0.23237321391E+02  0.51100000000E-03 0.  1.
        -12    1    3    3    0    0 -0.24692598706E+02  0.19729283808E+02 -0.10867564177E+02  0.33422642348E+02  0.00000000000E+00 0.  1.
</event>
<event>
 7    1  0.2153242E-013  0.7246158E+02  0.7816164E-02  0.1226708E+00
        -11   -1    0    0    0    0  0.00000000000E+00  0.00000000000E+00  0.45593999997E+02  0.45594000000E+02  0.51100000000E-03 0. -1.
         11   -1    0    0    0    0 -0.00000000000E+00 -0.00000000000E+00 -0.45593999997E+02  0.45594000000E+02  0.51100000000E-03 0.  1.
    9900012    2    1    2    0    0  0.11230966584E+01  0.29946226851E+01 -0.18451282192E+02  0.72461576805E+02  0.70000008482E+02 0.  0.
         12    1    1    2    0    0 -0.11230966584E+01 -0.29946226851E+01  0.18451282192E+02  0.18726423195E+02  0.00000000000E+00 0. -1.
         11    1    3    3    0    0  0.46425764653E+01 -0.70228604303E+01  0.18442471753E+02  0.20273106557E+02  0.51100000000E-03 0. -1.
        -11    1    3    3    0    0  0.78647302746E+01  0.48337944694E+01  0.35225528135E+01  0.98806846852E+01  0.51100000000E-03 0.  1.
        -12    1    3    3    0    0 -0.11384210081E+02  0.51836886460E+01 -0.40416306759E+02  0.42307785562E+02  0.00000000000E+00 0.  1.
</event>
<event>
 7    1  0.2153242E-013  0.7246147E+02  0.7816164E-02  0.1226708E+00
        -11   -1    0    0    0    0  0.00000000000E+00  0.00000000000E+00  0.45593999997E+02  0.45594000000E+02  0.51100000000E-03 0. -1.
         11   -1    0    0    0    0 -0.00000000000E+00 -0.00000000000E+00 -0.45593999997E+02  0.45594000000E+02  0.51100000000E-03 0.  1.
    9900012    2    1    2    0    0  0.89613384736E+01  0.11229024555E+02 -0.12011919563E+02  0.72461473593E+02  0.69999874028E+02 0.  0.
         12    1    1    2    0    0 -0.89613384736E+01 -0.11229024555E+02  0.12011919563E+02  0.18726526407E+02  0.00000000000E+00 0. -1.
         11    1    3    3    0    0  0.88375661396E+01  0.36625443037E+01  0.10229981935E+01  0.96209839213E+01  0.51100000000E-03 0. -1.
        -11    1    3    3    0    0  0.29267483002E+02  0.81846758167E+01 -0.14460637047E+02  0.33655378523E+02  0.51100000000E-03 0.  1.
         12    1    3    3    0    0 -0.29143710668E+02 -0.61819556526E+00  0.14257192905E+01  0.29185111148E+02  0.00000000000E+00 0. -1.
</event>
<event>
 7    1  0.2153242E-013  0.7246156E+02  0.7816164E-02  0.1226708E+00
        -11   -1    0    0    0    0  0.00000000000E+00  0.00000000000E+00  0.45593999997E+02  0.45594000000E+02  0.51100000000E-03 0. -1.
         11   -1    0    0    0    0 -0.00000000000E+00 -0.00000000000E+00 -0.45593999997E+02  0.45594000000E+02  0.51100000000E-03 0.  1.
    9900012    2    1    2    0    0  0.12996581098E+02 -0.46277802996E+01 -0.12663013728E+02  0.72461564477E+02  0.69999992421E+02 0.  0.
         12    1    1    2    0    0 -0.12996581098E+02  0.46277802996E+01  0.12663013728E+02  0.18726435523E+02  0.00000000000E+00 0. -1.
         11    1    3    3    0    0 -0.13786173575E+02  0.31214692819E+00  0.65014713422E+01  0.15245495972E+02  0.51100000000E-03 0. -1.
        -11    1    3    3    0    0 -0.41851779474E+01  0.15374856568E+02 -0.10792073017E+02  0.19245019335E+02  0.51100000000E-03 0.  1.
        -12    1    3    3    0    0  0.30967932620E+02 -0.20314783796E+02 -0.83724120532E+01  0.37971049170E+02  0.00000000000E+00 0.  1.
</event>
<event>
 7    1  0.2153242E-013  0.7246151E+02  0.7816164E-02  0.1226708E+00
        -11   -1    0    0    0    0  0.00000000000E+00  0.00000000000E+00  0.45593999997E+02  0.45594000000E+02  0.51100000000E-03 0.  1.
         11   -1    0    0    0    0 -0.00000000000E+00 -0.00000000000E+00 -0.45593999997E+02  0.45594000000E+02  0.51100000000E-03 0. -1.
    9900012    2    1    2    0    0 -0.12580507344E+02  0.95319207147E+01  0.10077441351E+02  0.72461508024E+02  0.69999918882E+02 0.  0.
         12    1    1    2    0    0  0.12580507344E+02 -0.95319207147E+01 -0.10077441351E+02  0.18726491976E+02  0.00000000000E+00 0. -1.
         11    1    3    3    0    0 -0.38045976158E+01 -0.58599259661E+01 -0.16067537730E+02  0.17520829442E+02  0.51100000000E-03 0. -1.
        -11    1    3    3    0    0 -0.67615480986E+01  0.13559967699E+01 -0.12224181121E+02  0.14035236523E+02  0.51100000000E-03 0.  1.
        -12    1    3    3    0    0 -0.20143616295E+01  0.14035849911E+02  0.38369160202E+02  0.40905442059E+02  0.00000000000E+00 0.  1.
</event>
<event>
 7    1  0.2153242E-013  0.7246152E+02  0.7816164E-02  0.1226708E+00
        -11   -1    0    0    0    0  0.00000000000E+00  0.00000000000E+00  0.45593999997E+02  0.45594000000E+02  0.51100000000E-03 0.  1.
         11   -1    0    0    0    0 -0.00000000000E+00 -0.00000000000E+00 -0.45593999997E+02  0.45594000000E+02  0.51100000000E-03 0. -1.
    9900012    2    1    2    0    0 -0.13555005458E+02  0.10227094013E+02  0.78961751991E+01  0.72461515875E+02  0.69999929108E+02 0.  0.
         12    1    1    2    0    0  0.13555005458E+02 -0.10227094013E+02 -0.78961751991E+01  0.18726484125E+02  0.00000000000E+00 0. -1.
         11    1    3    3    0    0 -0.52585363727E+01  0.77329500723E+01 -0.24919788209E+02  0.26616659562E+02  0.51100000000E-03 0. -1.
        -11    1    3    3    0    0  0.90550804869E+01 -0.21997749566E+01  0.10919050942E+01  0.93822038711E+01  0.51100000000E-03 0.  1.
        -12    1    3    3    0    0 -0.17351549572E+02  0.46939188974E+01  0.31724058314E+02  0.36462652442E+02  0.00000000000E+00 0.  1.
</event>
<event>
 7    1  0.2153242E-013  0.7246157E+02  0.7816164E-02  0.1226708E+00
        -11   -1    0    0    0    0  0.00000000000E+00  0.00000000000E+00  0.45593999997E+02  0.45594000000E+02  0.51100000000E-03 0. -1.
         11   -1    0    0    0    0 -0.00000000000E+00 -0.00000000000E+00 -0.45593999997E+02  0.45594000000E+02  0.51100000000E-03 0.  1.
    9900012    2    1    2    0    0  0.77145203167E+01  0.15564134812E+02  0.69945136439E+01  0.72461565815E+02  0.69999994165E+02 0.  0.
         12    1    1    2    0    0 -0.77145203167E+01 -0.15564134812E+02 -0.69945136439E+01  0.18726434185E+02  0.00000000000E+00 0. -1.
         11    1    3    3    0    0 -0.81350153467E+01  0.35211500845E-01  0.22870146634E+01  0.84504527022E+01  0.51100000000E-03 0. -1.
        -11    1    3    3    0    0 -0.16540050173E+02  0.25090191713E+02  0.15246915464E+01  0.30090125697E+02  0.51100000000E-03 0.  1.
         12    1    3    3    0    0  0.32389585836E+02 -0.95612684013E+01  0.31828074341E+01  0.33920987416E+02  0.00000000000E+00 0. -1.
</event>
<event>
 7    1  0.2153242E-013  0.7246159E+02  0.7816164E-02  0.1226708E+00
        -11   -1    0    0    0    0  0.00000000000E+00  0.00000000000E+00  0.45593999997E+02  0.45594000000E+02  0.51100000000E-03 0. -1.
         11   -1    0    0    0    0 -0.00000000000E+00 -0.00000000000E+00 -0.45593999997E+02  0.45594000000E+02  0.51100000000E-03 0.  1.
    9900012    2    1    2    0    0  0.17363685922E+02  0.62701559673E+01 -0.31410375064E+01  0.72461586535E+02  0.70000021156E+02 0.  0.
         12    1    1    2    0    0 -0.17363685922E+02 -0.62701559673E+01  0.31410375064E+01  0.18726413465E+02  0.00000000000E+00 0. -1.
         11    1    3    3    0    0 -0.40483357681E+01 -0.57475532655E+00 -0.78168594028E+01  0.88217151031E+01  0.51100000000E-03 0. -1.
        -11    1    3    3    0    0  0.30787490544E+02  0.24613098849E+02 -0.75344686391E+01  0.40130318051E+02  0.51100000000E-03 0.  1.
         12    1    3    3    0    0 -0.93754688535E+01 -0.17768187555E+02  0.12210290535E+02  0.23509553381E+02  0.00000000000E+00 0. -1.
</event>
<event>
 7    1  0.2153242E-013  0.7246161E+02  0.7816164E-02  0.1226708E+00
        -11   -1    0    0    0    0  0.00000000000E+00  0.00000000000E+00  0.45593999997E+02  0.45594000000E+02  0.51100000000E-03 0.  1.
         11   -1    0    0    0    0 -0.00000000000E+00 -0.00000000000E+00 -0.45593999997E+02  0.45594000000E+02  0.51100000000E-03 0. -1.
    9900012    2    1    2    0    0 -0.62807432064E+00 -0.17980686778E+02  0.51940366044E+01  0.72461612452E+02  0.70000054918E+02 0.  0.
         12    1    1    2    0    0  0.62807432064E+00  0.17980686778E+02 -0.51940366044E+01  0.18726387548E+02  0.00000000000E+00 0. -1.
         11    1    3    3    0    0 -0.23778372276E+01  0.21095106232E+02  0.21878816396E+00  0.21229825372E+02  0.51100000000E-03 0. -1.
        -11    1    3    3    0    0  0.11666911537E+01 -0.73981640829E+01 -0.12853903547E+02  0.14876721302E+02  0.51100000000E-03 0.  1.
        -12    1    3    3    0    0  0.58307175321E+00 -0.31677628927E+02  0.17829151988E+02  0.36355065777E+02  0.00000000000E+00 0.  1.
</event>
<event>
 7    1  0.2153242E-013  0.7246156E+02  0.7816164E-02  0.1226708E+00
        -11   -1    0    0    0    0  0.00000000000E+00  0.00000000000E+00  0.45593999997E+02  0.45594000000E+02  0.51100000000E-03 0. -1.
         11   -1    0    0    0    0 -0.00000000000E+00 -0.00000000000E+00 -0.45593999997E+02  0.45594000000E+02  0.51100000000E-03 0.  1.
    9900012    2    1    2    0    0 -0.24575618014E+01 -0.18315516645E+02  0.30301490051E+01  0.72461559789E+02  0.69999986315E+02 0.  0.
         12    1    1    2    0    0  0.24575618014E+01  0.18315516645E+02 -0.30301490051E+01  0.18726440211E+02  0.00000000000E+00 0. -1.
         11    1    3    3    0    0 -0.13691712566E+02 -0.29679486474E+01  0.12377358020E+02  0.18694135551E+02  0.51100000000E-03 0. -1.
        -11    1    3    3    0    0 -0.11431974144E+02 -0.12284233241E+02 -0.21968250027E+02  0.27644102963E+02  0.51100000000E-03 0.  1.
         12    1    3    3    0    0  0.22666124909E+02 -0.30633347566E+01  0.12621041012E+02  0.26123321275E+02  0.00000000000E+00 0. -1.
</event>
<event>
 7    1  0.2153242E-013  0.7246147E+02  0.7816164E-02  0.1226708E+00
        -11   -1    0    0    0    0  0.00000000000E+00  0.00000000000E+00  0.45593999997E+02  0.45594000000E+02  0.51100000000E-03 0.  1.
         11   -1    0    0    0    0 -0.00000000000E+00 -0.00000000000E+00 -0.45593999997E+02  0.45594000000E+02  0.51100000000E-03 0. -1.
    9900012    2    1    2    0    0 -0.12064288401E+02  0.42258270472E+01  0.13684968109E+02  0.72461467459E+02  0.69999866038E+02 0.  0.
         12    1    1    2    0    0  0.12064288401E+02 -0.42258270472E+01 -0.13684968109E+02  0.18726532541E+02  0.00000000000E+00 0. -1.
         11    1    3    3    0    0  0.14692895518E+01 -0.43203062078E+01  0.36963746658E+01  0.58725670236E+01  0.51100000000E-03 0. -1.
        -11    1    3    3    0    0 -0.13190368026E+01  0.14205199102E+02  0.35215161402E+02  0.37995198808E+02  0.51100000000E-03 0.  1.
         12    1    3    3    0    0 -0.12214541150E+02 -0.56590658471E+01 -0.25226567959E+02  0.28593701627E+02  0.00000000000E+00 0. -1.
</event>
<event>
 7    1  0.2153242E-013  0.7246158E+02  0.7816164E-02  0.1226708E+00
        -11   -1    0    0    0    0  0.00000000000E+00  0.00000000000E+00  0.45593999997E+02  0.45594000000E+02  0.51100000000E-03 0. -1.
         11   -1    0    0    0    0 -0.00000000000E+00 -0.00000000000E+00 -0.45593999997E+02  0.45594000000E+02  0.51100000000E-03 0.  1.
    9900012    2    1    2    0    0  0.16676855435E+02 -0.78626663026E+01  0.32771571358E+01  0.72461580495E+02  0.70000013288E+02 0.  0.
         12    1    1    2    0    0 -0.16676855435E+02  0.78626663026E+01 -0.32771571358E+01  0.18726419505E+02  0.00000000000E+00 0. -1.
         11    1    3    3    0    0  0.17504900971E+02 -0.14374644352E+02 -0.42872864287E+01  0.23052825932E+02  0.51100000000E-03 0. -1.
        -11    1    3    3    0    0  0.39052934639E+01 -0.17762602457E+02  0.15009563244E+02  0.23580677516E+02  0.51100000000E-03 0.  1.
         12    1    3    3    0    0 -0.47333390003E+01  0.24274580507E+02 -0.74451196794E+01  0.25828077047E+02  0.00000000000E+00 0. -1.
</event>
<event>
 7    1  0.2153242E-013  0.7246149E+02  0.7816164E-02  0.1226708E+00
        -11   -1    0    0    0    0  0.00000000000E+00  0.00000000000E+00  0.45593999997E+02  0.45594000000E+02  0.51100000000E-03 0. -1.
         11   -1    0    0    0    0 -0.00000000000E+00 -0.00000000000E+00 -0.45593999997E+02  0.45594000000E+02  0.51100000000E-03 0.  1.
    9900012    2    1    2    0    0  0.12836235379E+02 -0.12288040100E+02  0.59090825276E+01  0.72461491396E+02  0.69999897220E+02 0.  0.
         12    1    1    2    0    0 -0.12836235379E+02  0.12288040100E+02 -0.59090825276E+01  0.18726508604E+02  0.00000000000E+00 0. -1.
         11    1    3    3    0    0  0.22965948543E+01 -0.22077277860E+02  0.88908779302E+01  0.23910839723E+02  0.51100000000E-03 0. -1.
        -11    1    3    3    0    0  0.20668458210E+02 -0.68339055681E+01  0.11186002871E+02  0.24474764362E+02  0.51100000000E-03 0.  1.
         12    1    3    3    0    0 -0.10128817685E+02  0.16623143329E+02 -0.14167798274E+02  0.24075887310E+02  0.00000000000E+00 0. -1.
</event>
<event>
 7    1  0.2153242E-013  0.7246145E+02  0.7816164E-02  0.1226708E+00
        -11   -1    0    0    0    0  0.00000000000E+00  0.00000000000E+00  0.45593999997E+02  0.45594000000E+02  0.51100000000E-03 0. -1.
         11   -1    0    0    0    0 -0.00000000000E+00 -0.00000000000E+00 -0.45593999997E+02  0.45594000000E+02  0.51100000000E-03 0.  1.
    9900012    2    1    2    0    0  0.57490163868E+01 -0.80858580773E+01 -0.15882419892E+02  0.72461453285E+02  0.69999847573E+02 0.  0.
         12    1    1    2    0    0 -0.57490163868E+01  0.80858580773E+01  0.15882419892E+02  0.18726546715E+02  0.00000000000E+00 0. -1.
         11    1    3    3    0    0  0.63358614320E+01 -0.13938765476E+02  0.10995616882E+02  0.18850355804E+02  0.51100000000E-03 0. -1.
        -11    1    3    3    0    0 -0.57511822614E+01  0.17829538733E+02  0.48117907638E+01  0.19342230467E+02  0.51100000000E-03 0.  1.
        -12    1    3    3    0    0  0.51643372163E+01 -0.11976631335E+02 -0.31689827537E+02  0.34268867013E+02  0.00000000000E+00 0.  1.
</event>
<event>
 7    1  0.2153242E-013  0.7246146E+02  0.7816164E-02  0.1226708E+00
        -11   -1    0    0    0    0  0.00000000000E+00  0.00000000000E+00  0.45593999997E+02  0.45594000000E+02  0.51100000000E-03 0.  1.
         11   -1    0    0    0    0 -0.00000000000E+00 -0.00000000000E+00 -0.45593999997E+02  0.45594000000E+02  0.51100000000E-03 0. -1.
    9900012    2    1    2    0    0 -0.12881341978E+02 -0.12807014842E+02  0.45535386008E+01  0.72461459633E+02  0.69999855843E+02 0.  0.
         12    1    1    2    0    0  0.12881341978E+02  0.12807014842E+02 -0.45535386008E+01  0.18726540367E+02  0.00000000000E+00 0. -1.
         11    1    3    3    0    0  0.68806687946E+01 -0.24394221352E+02 -0.39132358064E+01  0.25646345806E+02  0.51100000000E-03 0. -1.
        -11    1    3    3    0    0  0.47162816453E+00  0.90746850032E+01  0.21000195539E+02  0.22881882658E+02  0.51100000000E-03 0.  1.
         12    1    3    3    0    0 -0.20233638937E+02  0.25125215071E+01 -0.12533421132E+02  0.23933231170E+02  0.00000000000E+00 0. -1.
</event>
<event>
 7    1  0.2153242E-013  0.7246157E+02  0.7816164E-02  0.1226708E+00
        -11   -1    0    0    0    0  0.00000000000E+00  0.00000000000E+00  0.45593999997E+02  0.45594000000E+02  0.51100000000E-03 0.  1.
         11   -1    0    0    0    0 -0.00000000000E+00 -0.00000000000E+00 -0.45593999997E+02  0.45594000000E+02  0.51100000000E-03 0. -1.
    9900012    2    1    2    0    0  0.41480815463E+01  0.79528750575E+01  0.16438500897E+02  0.72461571778E+02  0.70000001933E+02 0.  0.
         12    1    1    2    0    0 -0.41480815463E+01 -0.79528750575E+01 -0.16438500897E+02  0.18726428222E+02  0.00000000000E+00 0. -1.
         11    1    3    3    0    0  0.28962405784E+02  0.10892365463E+02  0.19127320071E+02  0.36377451086E+02  0.51100000000E-03 0.  1.
        -11    1    3    3    0    0 -0.60744068167E+00  0.86160394056E+01 -0.33190050021E+01  0.92531569578E+01  0.51100000000E-03 0. -1.
        -12    1    3    3    0    0 -0.24206883556E+02 -0.11555529811E+02  0.63018582823E+00  0.26830963734E+02  0.00000000000E+00 0.  1.
</event>
<event>
 7    1  0.2153242E-013  0.7246160E+02  0.7816164E-02  0.1226708E+00
        -11   -1    0    0    0    0  0.00000000000E+00  0.00000000000E+00  0.45593999997E+02  0.45594000000E+02  0.51100000000E-03 0. -1.
         11   -1    0    0    0    0 -0.00000000000E+00 -0.00000000000E+00 -0.45593999997E+02  0.45594000000E+02  0.51100000000E-03 0.  1.
    9900012    2    1    2    0    0  0.15031268770E+02  0.67266001709E+01 -0.89158282255E+01  0.72461596617E+02  0.70000034290E+02 0.  0.
         12    1    1    2    0    0 -0.15031268770E+02 -0.67266001709E+01  0.89158282255E+01  0.18726403383E+02  0.00000000000E+00 0. -1.
         11    1    3    3    0    0  0.28440796176E+00 -0.75742802162E+01 -0.12641376834E+01  0.76843121375E+01  0.51100000000E-03 0. -1.
        -11    1    3    3    0    0  0.56179407871E+01 -0.19918874962E+02 -0.18476402147E+02  0.27743472656E+02  0.51100000000E-03 0.  1.
         12    1    3    3    0    0  0.91289200216E+01  0.34219755349E+02  0.10824711605E+02  0.37033811824E+02  0.00000000000E+00 0. -1.
</event>
<event>
 7    1  0.2153242E-013  0.7246175E+02  0.7816164E-02  0.1226708E+00
        -11   -1    0    0    0    0  0.00000000000E+00  0.00000000000E+00  0.45593999997E+02  0.45594000000E+02  0.51100000000E-03 0.  1.
         11   -1    0    0    0    0 -0.00000000000E+00 -0.00000000000E+00 -0.45593999997E+02  0.45594000000E+02  0.51100000000E-03 0. -1.
    9900012    2    1    2    0    0  0.12017552477E+02 -0.19250249995E+01  0.14231839163E+02  0.72461747445E+02  0.70000230772E+02 0.  0.
         12    1    1    2    0    0 -0.12017552477E+02  0.19250249995E+01 -0.14231839163E+02  0.18726252555E+02  0.00000000000E+00 0. -1.
         11    1    3    3    0    0 -0.10726301818E+02 -0.23741377627E+02  0.13030405083E+01  0.26084563963E+02  0.51100000000E-03 0.  1.
        -11    1    3    3    0    0  0.15875925934E+02  0.88180489183E+01 -0.87700164629E+01  0.20167206053E+02  0.51100000000E-03 0. -1.
        -12    1    3    3    0    0  0.68679283614E+01  0.12998303710E+02  0.21698815117E+02  0.26209977428E+02  0.00000000000E+00 0.  1.
</event>
<event>
 7    1  0.2153242E-013  0.7246166E+02  0.7816164E-02  0.1226708E+00
        -11   -1    0    0    0    0  0.00000000000E+00  0.00000000000E+00  0.45593999997E+02  0.45594000000E+02  0.51100000000E-03 0. -1.
         11   -1    0    0    0    0 -0.00000000000E+00 -0.00000000000E+00 -0.45593999997E+02  0.45594000000E+02  0.51100000000E-03 0.  1.
    9900012    2    1    2    0    0 -0.97624690183E+01  0.15899393361E+02 -0.16060436506E+01  0.72461657944E+02  0.70000114180E+02 0.  0.
         12    1    1    2    0    0  0.97624690183E+01 -0.15899393361E+02  0.16060436506E+01  0.18726342056E+02  0.00000000000E+00 0. -1.
         11    1    3    3    0    0  0.88471820870E+01 -0.65080828087E+01  0.22046707605E+01  0.11202158102E+02  0.51100000000E-03 0. -1.
        -11    1    3    3    0    0  0.66296637744E-01  0.13502693056E+02 -0.26996045714E+02  0.30184658346E+02  0.51100000000E-03 0.  1.
        -12    1    3    3    0    0 -0.18675947743E+02  0.89047831140E+01  0.23185331303E+02  0.31074841496E+02  0.00000000000E+00 0.  1.
</event>
<event>
 7    1  0.2153242E-013  0.7246143E+02  0.7816164E-02  0.1226708E+00
        -11   -1    0    0    0    0  0.00000000000E+00  0.00000000000E+00  0.45593999997E+02  0.45594000000E+02  0.51100000000E-03 0.  1.
         11   -1    0    0    0    0 -0.00000000000E+00 -0.00000000000E+00 -0.45593999997E+02  0.45594000000E+02  0.51100000000E-03 0. -1.
    9900012    2    1    2    0    0  0.39712265239E+01 -0.78073199551E+01  0.16551723671E+02  0.72461429532E+02  0.69999816631E+02 0.  0.
         12    1    1    2    0    0 -0.39712265239E+01  0.78073199551E+01 -0.16551723671E+02  0.18726570468E+02  0.00000000000E+00 0. -1.
         11    1    3    3    0    0  0.21846778502E+01  0.20054662374E+02  0.16706758518E+01  0.20242367903E+02  0.51100000000E-03 0. -1.
        -11    1    3    3    0    0 -0.48889413691E+00 -0.75371505896E+01  0.27277322634E+02  0.28303709771E+02  0.51100000000E-03 0.  1.
        -12    1    3    3    0    0  0.22754428106E+01 -0.20324831740E+02 -0.12396274814E+02  0.23915351858E+02  0.00000000000E+00 0.  1.
</event>
<event>
 7    1  0.2153242E-013  0.7246155E+02  0.7816164E-02  0.1226708E+00
        -11   -1    0    0    0    0  0.00000000000E+00  0.00000000000E+00  0.45593999997E+02  0.45594000000E+02  0.51100000000E-03 0. -1.
         11   -1    0    0    0    0 -0.00000000000E+00 -0.00000000000E+00 -0.45593999997E+02  0.45594000000E+02  0.51100000000E-03 0.  1.
    9900012    2    1    2    0    0  0.10540154632E+02  0.25803368346E+01 -0.15261949317E+02  0.72461545589E+02  0.69999967816E+02 0.  0.
         12    1    1    2    0    0 -0.10540154632E+02 -0.25803368346E+01  0.15261949317E+02  0.18726454411E+02  0.00000000000E+00 0. -1.
         11    1    3    3    0    0  0.13058124364E+02 -0.84752543559E+01  0.60079199705E+01  0.16686511047E+02  0.51100000000E-03 0. -1.
        -11    1    3    3    0    0  0.96712582467E+01 -0.96514699740E+01  0.95686416352E+01  0.16680617846E+02  0.51100000000E-03 0.  1.
         12    1    3    3    0    0 -0.12189227978E+02  0.20707061165E+02 -0.30838510923E+02  0.39094416695E+02  0.00000000000E+00 0. -1.
</event>
<event>
 7    1  0.2153242E-013  0.7246156E+02  0.7816164E-02  0.1226708E+00
        -11   -1    0    0    0    0  0.00000000000E+00  0.00000000000E+00  0.45593999997E+02  0.45594000000E+02  0.51100000000E-03 0.  1.
         11   -1    0    0    0    0 -0.00000000000E+00 -0.00000000000E+00 -0.45593999997E+02  0.45594000000E+02  0.51100000000E-03 0. -1.
    9900012    2    1    2    0    0  0.27407244198E+01 -0.18003313163E+02  0.43644699034E+01  0.72461562732E+02  0.69999990149E+02 0.  0.
         12    1    1    2    0    0 -0.27407244198E+01  0.18003313163E+02 -0.43644699034E+01  0.18726437268E+02  0.00000000000E+00 0. -1.
         11    1    3    3    0    0  0.47739448983E+01  0.19082487000E+01  0.19192700658E+01  0.54877646487E+01  0.51100000000E-03 0. -1.
        -11    1    3    3    0    0  0.28118809909E+02  0.30982309584E+01  0.58668885591E+01  0.28890948191E+02  0.51100000000E-03 0.  1.
         12    1    3    3    0    0 -0.30152030388E+02 -0.23009792822E+02 -0.34216887214E+01  0.38082849892E+02  0.00000000000E+00 0. -1.
</event>
<event>
 7    1  0.2153242E-013  0.7246166E+02  0.7816164E-02  0.1226708E+00
        -11   -1    0    0    0    0  0.00000000000E+00  0.00000000000E+00  0.45593999997E+02  0.45594000000E+02  0.51100000000E-03 0. -1.
         11   -1    0    0    0    0 -0.00000000000E+00 -0.00000000000E+00 -0.45593999997E+02  0.45594000000E+02  0.51100000000E-03 0.  1.
    9900012    2    1    2    0    0  0.11525100963E+02  0.44099608845E+01 -0.14085460548E+02  0.72461657430E+02  0.70000113511E+02 0.  0.
         12    1    1    2    0    0 -0.11525100963E+02 -0.44099608845E+01  0.14085460548E+02  0.18726342570E+02  0.00000000000E+00 0. -1.
         11    1    3    3    0    0 -0.36059875581E+00  0.22381513282E+01 -0.31095529296E+01  0.38482038036E+01  0.51100000000E-03 0. -1.
        -11    1    3    3    0    0 -0.53116339552E+01  0.65000217065E+01 -0.36544942893E+02  0.37496621031E+02  0.51100000000E-03 0.  1.
         12    1    3    3    0    0  0.17197333674E+02 -0.43282121502E+01  0.25569035275E+02  0.31116832595E+02  0.00000000000E+00 0. -1.
</event>
<event>
 7    1  0.2153242E-013  0.7246152E+02  0.7816164E-02  0.1226708E+00
        -11   -1    0    0    0    0  0.00000000000E+00  0.00000000000E+00  0.45593999997E+02  0.45594000000E+02  0.51100000000E-03 0.  1.
         11   -1    0    0    0    0 -0.00000000000E+00 -0.00000000000E+00 -0.45593999997E+02  0.45594000000E+02  0.51100000000E-03 0. -1.
    9900012    2    1    2    0    0  0.46389325261E+01 -0.92891762885E+01 -0.15584368550E+02  0.72461520507E+02  0.69999935143E+02 0.  0.
         12    1    1    2    0    0 -0.46389325261E+01  0.92891762885E+01  0.15584368550E+02  0.18726479493E+02  0.00000000000E+00 0. -1.
         11    1    3    3    0    0 -0.12031357061E+02 -0.16232538231E+02  0.83833943216E+01  0.21875332015E+02  0.51100000000E-03 0. -1.
        -11    1    3    3    0    0  0.15686009706E+02  0.25357721918E+01  0.83530046101E+01  0.17951426890E+02  0.51100000000E-03 0.  1.
         12    1    3    3    0    0  0.98427988092E+00  0.44075897508E+01 -0.32320767481E+02  0.32634761603E+02  0.00000000000E+00 0. -1.
</event>
<event>
 7    1  0.2153242E-013  0.7246152E+02  0.7816164E-02  0.1226708E+00
        -11   -1    0    0    0    0  0.00000000000E+00  0.00000000000E+00  0.45593999997E+02  0.45594000000E+02  0.51100000000E-03 0.  1.
         11   -1    0    0    0    0 -0.00000000000E+00 -0.00000000000E+00 -0.45593999997E+02  0.45594000000E+02  0.51100000000E-03 0. -1.
    9900012    2    1    2    0    0  0.97092580005E+01 -0.39780141857E+01  0.15510854142E+02  0.72461524517E+02  0.69999940367E+02 0.  0.
         12    1    1    2    0    0 -0.97092580005E+01  0.39780141857E+01 -0.15510854142E+02  0.18726475483E+02  0.00000000000E+00 0. -1.
         11    1    3    3    0    0 -0.17935722411E+02  0.50072651386E+01 -0.10242409428E+02  0.21252524409E+02  0.51100000000E-03 0. -1.
        -11    1    3    3    0    0  0.57449979709E+00 -0.98172490109E+01 -0.43172830574E+01  0.10739988893E+02  0.51100000000E-03 0.  1.
        -12    1    3    3    0    0  0.27070480615E+02  0.83196968660E+00  0.30070546628E+02  0.40469011216E+02  0.00000000000E+00 0.  1.
</event>
<event>
 7    1  0.2153242E-013  0.7246178E+02  0.7816164E-02  0.1226707E+00
        -11   -1    0    0    0    0  0.00000000000E+00  0.00000000000E+00  0.45593999997E+02  0.45594000000E+02  0.51100000000E-03 0.  1.
         11   -1    0    0    0    0 -0.00000000000E+00 -0.00000000000E+00 -0.45593999997E+02  0.45594000000E+02  0.51100000000E-03 0. -1.
    9900012    2    1    2    0    0 -0.82074140777E+01  0.38080681835E+01  0.16395377432E+02  0.72461776935E+02  0.70000269188E+02 0.  0.
         12    1    1    2    0    0  0.82074140777E+01 -0.38080681835E+01 -0.16395377432E+02  0.18726223065E+02  0.00000000000E+00 0. -1.
         11    1    3    3    0    0 -0.42997548137E+01 -0.77314879497E+01  0.34773027065E+01  0.95055474197E+01  0.51100000000E-03 0. -1.
        -11    1    3    3    0    0 -0.31854987536E+02  0.32935379006E+01  0.10566773412E+02  0.33723053293E+02  0.51100000000E-03 0.  1.
         12    1    3    3    0    0  0.27947328272E+02  0.82460182326E+01  0.23513013130E+01  0.29233176223E+02  0.00000000000E+00 0. -1.
</event>
<event>
 7    1  0.2153242E-013  0.7246170E+02  0.7816164E-02  0.1226708E+00
        -11   -1    0    0    0    0  0.00000000000E+00  0.00000000000E+00  0.45593999997E+02  0.45594000000E+02  0.51100000000E-03 0. -1.
         11   -1    0    0    0    0 -0.00000000000E+00 -0.00000000000E+00 -0.45593999997E+02  0.45594000000E+02  0.51100000000E-03 0.  1.
    9900012    2    1    2    0    0  0.46963021736E+00 -0.11466946626E+02 -0.14797399608E+02  0.72461696237E+02  0.70000164063E+02 0.  0.
         12    1    1    2    0    0 -0.46963021736E+00  0.11466946626E+02  0.14797399608E+02  0.18726303763E+02  0.00000000000E+00 0. -1.
         11    1    3    3    0    0 -0.10630238212E+02 -0.52646273700E+01 -0.12762364520E+02  0.17424012575E+02  0.51100000000E-03 0. -1.
        -11    1    3    3    0    0 -0.11816643892E+02 -0.50864664358E+01 -0.21429849470E+02  0.24994872719E+02  0.51100000000E-03 0.  1.
         12    1    3    3    0    0  0.22916512321E+02 -0.11158528206E+01  0.19394814382E+02  0.30042810944E+02  0.00000000000E+00 0. -1.
</event>
<event>
 7    1  0.2153242E-013  0.7246158E+02  0.7816164E-02  0.1226708E+00
        -11   -1    0    0    0    0  0.00000000000E+00  0.00000000000E+00  0.45593999997E+02  0.45594000000E+02  0.51100000000E-03 0.  1.
         11   -1    0    0    0    0 -0.00000000000E+00 -0.00000000000E+00 -0.45593999997E+02  0.45594000000E+02  0.51100000000E-03 0. -1.
    9900012    2    1    2    0    0 -0.22840350818E+01 -0.13854977292E+02  0.12389571448E+02  0.72461583026E+02  0.70000016585E+02 0.  0.
         12    1    1    2    0    0  0.22840350818E+01  0.13854977292E+02 -0.12389571448E+02  0.18726416974E+02  0.00000000000E+00 0. -1.
         11    1    3    3    0    0  0.15064649249E+02 -0.99531446748E+01 -0.20743920427E+02  0.27501254169E+02  0.51100000000E-03 0. -1.
        -11    1    3    3    0    0  0.24988887445E+01 -0.35357024490E+00 -0.27920961327E+01  0.37636761219E+01  0.51100000000E-03 0.  1.
        -12    1    3    3    0    0 -0.19847573076E+02 -0.35482623721E+01  0.35925588008E+02  0.41196652735E+02  0.00000000000E+00 0.  1.
</event>
<event>
 7    1  0.2153242E-013  0.7246178E+02  0.7816164E-02  0.1226707E+00
        -11   -1    0    0    0    0  0.00000000000E+00  0.00000000000E+00  0.45593999997E+02  0.45594000000E+02  0.51100000000E-03 0.  1.
         11   -1    0    0    0    0 -0.00000000000E+00 -0.00000000000E+00 -0.45593999997E+02  0.45594000000E+02  0.51100000000E-03 0. -1.
    9900012    2    1    2    0    0  0.30089968370E+01 -0.12058448827E+02  0.14007539770E+02  0.72461777196E+02  0.70000269527E+02 0.  0.
         12    1    1    2    0    0 -0.30089968370E+01  0.12058448827E+02 -0.14007539770E+02  0.18726222804E+02  0.00000000000E+00 0. -1.
         11    1    3    3    0    0  0.30079694091E+02  0.28590023876E+01  0.36948227264E+01  0.30440328620E+02  0.51100000000E-03 0. -1.
        -11    1    3    3    0    0 -0.69657718519E+01 -0.90137714669E+01  0.16610705125E+02  0.20141637931E+02  0.51100000000E-03 0.  1.
        -12    1    3    3    0    0 -0.20104925402E+02 -0.59036797480E+01 -0.62979880809E+01  0.21879810645E+02  0.00000000000E+00 0.  1.
</event>
<event>
 7    1  0.2153242E-013  0.7246172E+02  0.7816164E-02  0.1226708E+00
        -11   -1    0    0    0    0  0.00000000000E+00  0.00000000000E+00  0.45593999997E+02  0.45594000000E+02  0.51100000000E-03 0.  1.
         11   -1    0    0    0    0 -0.00000000000E+00 -0.00000000000E+00 -0.45593999997E+02  0.45594000000E+02  0.51100000000E-03 0. -1.
    9900012    2    1    2    0    0 -0.18660028045E+02  0.12809171675E+01 -0.91446717162E+00  0.72461717784E+02  0.70000192132E+02 0.  0.
         12    1    1    2    0    0  0.18660028045E+02 -0.12809171675E+01  0.91446717162E+00  0.18726282216E+02  0.00000000000E+00 0. -1.
         11    1    3    3    0    0  0.80930296570E+00 -0.73796474734E+01 -0.12554340134E+02  0.14585116543E+02  0.51100000000E-03 0. -1.
        -11    1    3    3    0    0  0.14161865267E+02 -0.70548445940E+01  0.13370092983E+02  0.20714455019E+02  0.51100000000E-03 0.  1.
         12    1    3    3    0    0 -0.33631196278E+02  0.15715409235E+02 -0.17302200215E+01  0.37162146222E+02  0.00000000000E+00 0. -1.
</event>
<event>
 7    1  0.2153242E-013  0.7246158E+02  0.7816164E-02  0.1226708E+00
        -11   -1    0    0    0    0  0.00000000000E+00  0.00000000000E+00  0.45593999997E+02  0.45594000000E+02  0.51100000000E-03 0.  1.
         11   -1    0    0    0    0 -0.00000000000E+00 -0.00000000000E+00 -0.45593999997E+02  0.45594000000E+02  0.51100000000E-03 0. -1.
    9900012    2    1    2    0    0  0.89015916202E+01 -0.10863116492E+02  0.12386816123E+02  0.72461578907E+02  0.70000011220E+02 0.  0.
         12    1    1    2    0    0 -0.89015916202E+01  0.10863116492E+02 -0.12386816123E+02  0.18726421093E+02  0.00000000000E+00 0. -1.
         11    1    3    3    0    0 -0.34104847491E+01 -0.24903955500E+02  0.32833911701E+02  0.41350987456E+02  0.51100000000E-03 0. -1.
        -11    1    3    3    0    0 -0.12235439927E+01  0.35788569114E-01  0.13882128951E+01  0.18508041568E+01  0.51100000000E-03 0.  1.
        -12    1    3    3    0    0  0.13535620362E+02  0.14005050439E+02 -0.21835308473E+02  0.29259787294E+02  0.00000000000E+00 0.  1.
</event>
<event>
 7    1  0.2153242E-013  0.7246173E+02  0.7816164E-02  0.1226708E+00
        -11   -1    0    0    0    0  0.00000000000E+00  0.00000000000E+00  0.45593999997E+02  0.45594000000E+02  0.51100000000E-03 0.  1.
         11   -1    0    0    0    0 -0.00000000000E+00 -0.00000000000E+00 -0.45593999997E+02  0.45594000000E+02  0.51100000000E-03 0. -1.
    9900012    2    1    2    0    0  0.16658744706E+02 -0.24830030612E+01  0.81849993320E+01  0.72461727187E+02  0.70000204382E+02 0.  0.
         12    1    1    2    0    0 -0.16658744706E+02  0.24830030612E+01 -0.81849993320E+01  0.18726272813E+02  0.00000000000E+00 0. -1.
         11    1    3    3    0    0  0.18575726547E+02 -0.13089241182E+02 -0.67144397015E+01  0.23695348747E+02  0.51100000000E-03 0.  1.
        -11    1    3    3    0    0  0.12380887174E+02  0.21047820971E+02 -0.17249496162E+01  0.24480044654E+02  0.51100000000E-03 0. -1.
         12    1    3    3    0    0 -0.14297869015E+02 -0.10441582850E+02  0.16624388650E+02  0.24286333786E+02  0.00000000000E+00 0. -1.
</event>
<event>
 7    1  0.2153242E-013  0.7246162E+02  0.7816164E-02  0.1226708E+00
        -11   -1    0    0    0    0  0.00000000000E+00  0.00000000000E+00  0.45593999997E+02  0.45594000000E+02  0.51100000000E-03 0.  1.
         11   -1    0    0    0    0 -0.00000000000E+00 -0.00000000000E+00 -0.45593999997E+02  0.45594000000E+02  0.51100000000E-03 0. -1.
    9900012    2    1    2    0    0 -0.17844066134E+02  0.48684346720E+01 -0.29266133546E+01  0.72461617059E+02  0.70000060919E+02 0.  0.
         12    1    1    2    0    0  0.17844066134E+02 -0.48684346720E+01  0.29266133546E+01  0.18726382941E+02  0.00000000000E+00 0. -1.
         11    1    3    3    0    0 -0.12926735175E+02  0.10871795145E+02 -0.12897678084E+02  0.21251976665E+02  0.51100000000E-03 0. -1.
        -11    1    3    3    0    0  0.55994663559E+01  0.19512597121E+02  0.11922645397E+02  0.23542407341E+02  0.51100000000E-03 0.  1.
         12    1    3    3    0    0 -0.10516797315E+02 -0.25515957594E+02 -0.19515806672E+01  0.27667233053E+02  0.00000000000E+00 0. -1.
</event>
<event>
 7    1  0.2153242E-013  0.7246161E+02  0.7816164E-02  0.1226708E+00
        -11   -1    0    0    0    0  0.00000000000E+00  0.00000000000E+00  0.45593999997E+02  0.45594000000E+02  0.51100000000E-03 0.  1.
         11   -1    0    0    0    0 -0.00000000000E+00 -0.00000000000E+00 -0.45593999997E+02  0.45594000000E+02  0.51100000000E-03 0. -1.
    9900012    2    1    2    0    0 -0.17360463698E+02  0.24890982055E+01 -0.65647942999E+01  0.72461605957E+02  0.70000046457E+02 0.  0.
         12    1    1    2    0    0  0.17360463698E+02 -0.24890982055E+01  0.65647942999E+01  0.18726394043E+02  0.00000000000E+00 0. -1.
         11    1    3    3    0    0 -0.43278118733E+01  0.59263670747E+01 -0.39913889231E+01  0.83536200603E+01  0.51100000000E-03 0. -1.
        -11    1    3    3    0    0 -0.19188540517E+02  0.11705362662E+02 -0.26740223539E+02  0.34932150769E+02  0.51100000000E-03 0.  1.
        -12    1    3    3    0    0  0.61558886924E+01 -0.15142631531E+02  0.24166818162E+02  0.29175835127E+02  0.00000000000E+00 0.  1.
</event>
<event>
 7    1  0.2153242E-013  0.7246159E+02  0.7816164E-02  0.1226708E+00
        -11   -1    0    0    0    0  0.00000000000E+00  0.00000000000E+00  0.45593999997E+02  0.45594000000E+02  0.51100000000E-03 0. -1.
         11   -1    0    0    0    0 -0.00000000000E+00 -0.00000000000E+00 -0.45593999997E+02  0.45594000000E+02  0.51100000000E-03 0.  1.
    9900012    2    1    2    0    0 -0.25695902518E+01 -0.64084172654E+01 -0.17407116212E+02  0.72461593491E+02  0.70000030218E+02 0.  0.
         12    1    1    2    0    0  0.25695902518E+01  0.64084172654E+01  0.17407116212E+02  0.18726406509E+02  0.00000000000E+00 0. -1.
         11    1    3    3    0    0  0.31972341797E+01  0.29732452841E+01 -0.28749686924E+01  0.52276131420E+01  0.51100000000E-03 0. -1.
        -11    1    3    3    0    0  0.16749122349E+02 -0.24084949136E+02 -0.24834458784E+02  0.38436547942E+02  0.51100000000E-03 0.  1.
         12    1    3    3    0    0 -0.22515946780E+02  0.14703286586E+02  0.10302311265E+02  0.28797432407E+02  0.00000000000E+00 0. -1.
</event>
<event>
 7    1  0.2153242E-013  0.7246157E+02  0.7816164E-02  0.1226708E+00
        -11   -1    0    0    0    0  0.00000000000E+00  0.00000000000E+00  0.45593999997E+02  0.45594000000E+02  0.51100000000E-03 0.  1.
         11   -1    0    0    0    0 -0.00000000000E+00 -0.00000000000E+00 -0.45593999997E+02  0.45594000000E+02  0.51100000000E-03 0. -1.
    9900012    2    1    2    0    0 -0.88773797940E+01  0.15041359499E+02  0.67549174095E+01  0.72461567430E+02  0.69999996269E+02 0.  0.
         12    1    1    2    0    0  0.88773797940E+01 -0.15041359499E+02 -0.67549174095E+01  0.18726432570E+02  0.00000000000E+00 0. -1.
         11    1    3    3    0    0 -0.16622982729E+02  0.49506950571E+01  0.79255795480E+01  0.19069550277E+02  0.51100000000E-03 0.  1.
        -11    1    3    3    0    0 -0.18738804939E+00  0.28255355979E+02  0.10784789885E+02  0.30244205212E+02  0.51100000000E-03 0. -1.
         12    1    3    3    0    0  0.79329909842E+01 -0.18164691537E+02 -0.11955452023E+02  0.23147811941E+02  0.00000000000E+00 0. -1.
</event>
<event>
 7    1  0.2153242E-013  0.7246157E+02  0.7816164E-02  0.1226708E+00
        -11   -1    0    0    0    0  0.00000000000E+00  0.00000000000E+00  0.45593999997E+02  0.45594000000E+02  0.51100000000E-03 0. -1.
         11   -1    0    0    0    0 -0.00000000000E+00 -0.00000000000E+00 -0.45593999997E+02  0.45594000000E+02  0.51100000000E-03 0.  1.
    9900012    2    1    2    0    0 -0.23320386158E+01 -0.55963090323E+01 -0.17717843566E+02  0.72461573231E+02  0.70000003826E+02 0.  0.
         12    1    1    2    0    0  0.23320386158E+01  0.55963090323E+01  0.17717843566E+02  0.18726426769E+02  0.00000000000E+00 0. -1.
         11    1    3    3    0    0  0.65822608895E+01  0.21048899587E+02 -0.10003774554E+01  0.22076754461E+02  0.51100000000E-03 0. -1.
        -11    1    3    3    0    0  0.11724923264E+02 -0.84786590831E+00  0.27026621099E+01  0.12062217246E+02  0.51100000000E-03 0.  1.
        -12    1    3    3    0    0 -0.20639222769E+02 -0.25797342710E+02 -0.19420128221E+02  0.38322601524E+02  0.00000000000E+00 0.  1.
</event>
<event>
 7    1  0.2153242E-013  0.7246157E+02  0.7816164E-02  0.1226708E+00
        -11   -1    0    0    0    0  0.00000000000E+00  0.00000000000E+00  0.45593999997E+02  0.45594000000E+02  0.51100000000E-03 0.  1.
         11   -1    0    0    0    0 -0.00000000000E+00 -0.00000000000E+00 -0.45593999997E+02  0.45594000000E+02  0.51100000000E-03 0. -1.
    9900012    2    1    2    0    0  0.10801329808E+02 -0.13215871819E+02 -0.77039663973E+01  0.72461572370E+02  0.70000002704E+02 0.  0.
         12    1    1    2    0    0 -0.10801329808E+02  0.13215871819E+02  0.77039663973E+01  0.18726427630E+02  0.00000000000E+00 0. -1.
         11    1    3    3    0    0  0.30669801555E+02 -0.11552467120E+02 -0.97872605431E+01  0.34203606435E+02  0.51100000000E-03 0. -1.
        -11    1    3    3    0    0  0.87480893663E+01 -0.37179654281E+01  0.80174156358E+00  0.95391364536E+01  0.51100000000E-03 0.  1.
         12    1    3    3    0    0 -0.28616561113E+02  0.20545607296E+01  0.12815525822E+01  0.28718829481E+02  0.00000000000E+00 0. -1.
</event>
<event>
 7    1  0.2153242E-013  0.7246158E+02  0.7816164E-02  0.1226708E+00
        -11   -1    0    0    0    0  0.00000000000E+00  0.00000000000E+00  0.45593999997E+02  0.45594000000E+02  0.51100000000E-03 0. -1.
         11   -1    0    0    0    0 -0.00000000000E+00 -0.00000000000E+00 -0.45593999997E+02  0.45594000000E+02  0.51100000000E-03 0.  1.
    9900012    2    1    2    0    0  0.14390783412E+02  0.26813262744E+01 -0.11678813309E+02  0.72461579143E+02  0.70000011527E+02 0.  0.
         12    1    1    2    0    0 -0.14390783412E+02 -0.26813262744E+01  0.11678813309E+02  0.18726420857E+02  0.00000000000E+00 0. -1.
         11    1    3    3    0    0  0.12238237507E+01  0.72599081788E+01  0.24592825202E+02  0.25671210782E+02  0.51100000000E-03 0. -1.
        -11    1    3    3    0    0  0.88515107251E-01 -0.46269676030E+01  0.29214112697E+01  0.54727788363E+01  0.51100000000E-03 0.  1.
        -12    1    3    3    0    0  0.13078444554E+02  0.48385698590E-01 -0.39193049780E+02  0.41317589525E+02  0.00000000000E+00 0.  1.
</event>
<event>
 7    1  0.2153242E-013  0.7246157E+02  0.7816164E-02  0.1226708E+00
        -11   -1    0    0    0    0  0.00000000000E+00  0.00000000000E+00  0.45593999997E+02  0.45594000000E+02  0.51100000000E-03 0. -1.
         11   -1    0    0    0    0 -0.00000000000E+00 -0.00000000000E+00 -0.45593999997E+02  0.45594000000E+02  0.51100000000E-03 0.  1.
    9900012    2    1    2    0    0 -0.14251064035E+02 -0.11870164145E+02  0.25856680216E+01  0.72461566754E+02  0.69999995389E+02 0.  0.
         12    1    1    2    0    0  0.14251064035E+02  0.11870164145E+02 -0.25856680216E+01  0.18726433246E+02  0.00000000000E+00 0. -1.
         11    1    3    3    0    0  0.11594524565E+02 -0.12190100329E+02 -0.58712994350E+01  0.17818633596E+02  0.51100000000E-03 0. -1.
        -11    1    3    3    0    0  0.54731113587E+01  0.68995580490E+01 -0.13295488467E+02  0.15947691465E+02  0.51100000000E-03 0.  1.
        -12    1    3    3    0    0 -0.31318699959E+02 -0.65796218659E+01  0.21752455923E+02  0.38695241694E+02  0.00000000000E+00 0.  1.
</event>
<event>
 7    1  0.2153242E-013  0.7246157E+02  0.7816164E-02  0.1226708E+00
        -11   -1    0    0    0    0  0.00000000000E+00  0.00000000000E+00  0.45593999997E+02  0.45594000000E+02  0.51100000000E-03 0.  1.
         11   -1    0    0    0    0 -0.00000000000E+00 -0.00000000000E+00 -0.45593999997E+02  0.45594000000E+02  0.51100000000E-03 0. -1.
    9900012    2    1    2    0    0 -0.16143595747E+02 -0.80965717206E+00  0.94555783081E+01  0.72461569760E+02  0.69999999305E+02 0.  0.
         12    1    1    2    0    0  0.16143595747E+02  0.80965717206E+00 -0.94555783081E+01  0.18726430240E+02  0.00000000000E+00 0. -1.
         11    1    3    3    0    0 -0.52266041111E+01  0.57869421145E+01  0.14688331692E+01  0.79349581417E+01  0.51100000000E-03 0. -1.
        -11    1    3    3    0    0 -0.12958972444E+02  0.19045871520E+02 -0.17027192408E+02  0.28646212146E+02  0.51100000000E-03 0.  1.
         12    1    3    3    0    0  0.20419808084E+01 -0.25642470807E+02  0.25013937547E+02  0.35880399472E+02  0.00000000000E+00 0. -1.
</event>
<event>
 7    1  0.2153242E-013  0.7246155E+02  0.7816164E-02  0.1226708E+00
        -11   -1    0    0    0    0  0.00000000000E+00  0.00000000000E+00  0.45593999997E+02  0.45594000000E+02  0.51100000000E-03 0.  1.
         11   -1    0    0    0    0 -0.00000000000E+00 -0.00000000000E+00 -0.45593999997E+02  0.45594000000E+02  0.51100000000E-03 0. -1.
    9900012    2    1    2    0    0 -0.76968547583E+01 -0.12812378602E+01  0.17023415597E+02  0.72461552867E+02  0.69999977298E+02 0.  0.
         12    1    1    2    0    0  0.76968547583E+01  0.12812378602E+01 -0.17023415597E+02  0.18726447133E+02  0.00000000000E+00 0. -1.
         11    1    3    3    0    0  0.64470642635E+01 -0.52189866536E+01  0.74739461534E-01  0.82950615161E+01  0.51100000000E-03 0. -1.
        -11    1    3    3    0    0 -0.20761110820E+02 -0.14352048134E+02  0.31144290084E+02  0.40087052938E+02  0.51100000000E-03 0.  1.
         12    1    3    3    0    0  0.66171917981E+01  0.18289796927E+02 -0.14195613949E+02  0.24079438413E+02  0.00000000000E+00 0. -1.
</event>
<event>
 7    1  0.2153242E-013  0.7246126E+02  0.7816164E-02  0.1226709E+00
        -11   -1    0    0    0    0  0.00000000000E+00  0.00000000000E+00  0.45593999997E+02  0.45594000000E+02  0.51100000000E-03 0.  1.
         11   -1    0    0    0    0 -0.00000000000E+00 -0.00000000000E+00 -0.45593999997E+02  0.45594000000E+02  0.51100000000E-03 0. -1.
    9900012    2    1    2    0    0  0.10737655021E+02  0.53880064100E+00 -0.15333077173E+02  0.72461259838E+02  0.69999595572E+02 0.  0.
         12    1    1    2    0    0 -0.10737655021E+02 -0.53880064100E+00  0.15333077173E+02  0.18726740162E+02  0.00000000000E+00 0. -1.
         11    1    3    3    0    0  0.22027817287E+02 -0.67290859595E+01 -0.28900355931E+02  0.36955864291E+02  0.51100000000E-03 0. -1.
        -11    1    3    3    0    0  0.32110093093E+01  0.16707962568E+01 -0.80810352645E+01  0.88546751562E+01  0.51100000000E-03 0.  1.
        -12    1    3    3    0    0 -0.14501171575E+02  0.55970903437E+01  0.21648314022E+02  0.26650720391E+02  0.00000000000E+00 0.  1.
</event>
<event>
 7    1  0.2153242E-013  0.7246160E+02  0.7816164E-02  0.1226708E+00
        -11   -1    0    0    0    0  0.00000000000E+00  0.00000000000E+00  0.45593999997E+02  0.45594000000E+02  0.51100000000E-03 0.  1.
         11   -1    0    0    0    0 -0.00000000000E+00 -0.00000000000E+00 -0.45593999997E+02  0.45594000000E+02  0.51100000000E-03 0. -1.
    9900012    2    1    2    0    0  0.14102538805E+02  0.41808393053E+01  0.11589517381E+02  0.72461603359E+02  0.70000043073E+02 0.  0.
         12    1    1    2    0    0 -0.14102538805E+02 -0.41808393053E+01 -0.11589517381E+02  0.18726396641E+02  0.00000000000E+00 0. -1.
         11    1    3    3    0    0 -0.19873349867E+02  0.31591112975E+01 -0.50965666015E+01  0.20758251625E+02  0.51100000000E-03 0. -1.
        -11    1    3    3    0    0  0.14250097962E+01  0.26524293546E+01 -0.94552630570E+01  0.99231060731E+01  0.51100000000E-03 0.  1.
        -12    1    3    3    0    0  0.32550878876E+02 -0.16307013468E+01  0.26141347039E+02  0.41780245661E+02  0.00000000000E+00 0.  1.
</event>
<event>
 7    1  0.2153242E-013  0.7246156E+02  0.7816164E-02  0.1226708E+00
        -11   -1    0    0    0    0  0.00000000000E+00  0.00000000000E+00  0.45593999997E+02  0.45594000000E+02  0.51100000000E-03 0.  1.
         11   -1    0    0    0    0 -0.00000000000E+00 -0.00000000000E+00 -0.45593999997E+02  0.45594000000E+02  0.51100000000E-03 0. -1.
    9900012    2    1    2    0    0  0.13798805475E+02  0.12017577216E+02  0.39812462022E+01  0.72461561044E+02  0.69999987949E+02 0.  0.
         12    1    1    2    0    0 -0.13798805475E+02 -0.12017577216E+02 -0.39812462022E+01  0.18726438956E+02  0.00000000000E+00 0. -1.
         11    1    3    3    0    0 -0.55351486902E+01 -0.60061622429E+01  0.18809490661E+02  0.20506311104E+02  0.51100000000E-03 0.  1.
        -11    1    3    3    0    0  0.24442499412E+02  0.71155576110E+01  0.75397862326E+01  0.26550241324E+02  0.51100000000E-03 0. -1.
         12    1    3    3    0    0 -0.51085452477E+01  0.10908181848E+02 -0.22368030691E+02  0.25405008616E+02  0.00000000000E+00 0. -1.
</event>
<event>
 7    1  0.2153242E-013  0.7246147E+02  0.7816164E-02  0.1226708E+00
        -11   -1    0    0    0    0  0.00000000000E+00  0.00000000000E+00  0.45593999997E+02  0.45594000000E+02  0.51100000000E-03 0.  1.
         11   -1    0    0    0    0 -0.00000000000E+00 -0.00000000000E+00 -0.45593999997E+02  0.45594000000E+02  0.51100000000E-03 0. -1.
    9900012    2    1    2    0    0 -0.28096802928E-01  0.18679659233E+02  0.13237971481E+01  0.72461470760E+02  0.69999870338E+02 0.  0.
         12    1    1    2    0    0  0.28096802928E-01 -0.18679659233E+02 -0.13237971481E+01  0.18726529240E+02  0.00000000000E+00 0. -1.
         11    1    3    3    0    0  0.10501916557E+02  0.73332297099E+01  0.29048691607E+01  0.13134107296E+02  0.51100000000E-03 0.  1.
        -11    1    3    3    0    0 -0.23735467967E+02 -0.11735994356E+02  0.12450619120E+02  0.29259595347E+02  0.51100000000E-03 0. -1.
         12    1    3    3    0    0  0.13205454607E+02  0.23082423879E+02 -0.14031691132E+02  0.30067768117E+02  0.00000000000E+00 0. -1.
</event>
<event>
 7    1  0.2153242E-013  0.7246154E+02  0.7816164E-02  0.1226708E+00
        -11   -1    0    0    0    0  0.00000000000E+00  0.00000000000E+00  0.45593999997E+02  0.45594000000E+02  0.51100000000E-03 0. -1.
         11   -1    0    0    0    0 -0.00000000000E+00 -0.00000000000E+00 -0.45593999997E+02  0.45594000000E+02  0.51100000000E-03 0.  1.
    9900012    2    1    2    0    0 -0.28071256237E+01  0.40657701991E+01 -0.18062942630E+02  0.72461539094E+02  0.69999959356E+02 0.  0.
         12    1    1    2    0    0  0.28071256237E+01 -0.40657701991E+01  0.18062942630E+02  0.18726460906E+02  0.00000000000E+00 0. -1.
         11    1    3    3    0    0  0.15633564562E+02  0.24556096652E+01 -0.90377295792E+01  0.18224130046E+02  0.51100000000E-03 0. -1.
        -11    1    3    3    0    0  0.36086111340E+01 -0.20172525896E+02 -0.10852736254E+02  0.23189108646E+02  0.51100000000E-03 0.  1.
        -12    1    3    3    0    0 -0.22049301319E+02  0.21782686430E+02  0.18275232029E+01  0.31048300402E+02  0.00000000000E+00 0.  1.
</event>
<event>
 7    1  0.2153242E-013  0.7246154E+02  0.7816164E-02  0.1226708E+00
        -11   -1    0    0    0    0  0.00000000000E+00  0.00000000000E+00  0.45593999997E+02  0.45594000000E+02  0.51100000000E-03 0.  1.
         11   -1    0    0    0    0 -0.00000000000E+00 -0.00000000000E+00 -0.45593999997E+02  0.45594000000E+02  0.51100000000E-03 0. -1.
    9900012    2    1    2    0    0 -0.50914165201E+01  0.15418738092E+02 -0.93284621248E+01  0.72461542456E+02  0.69999963735E+02 0.  0.
         12    1    1    2    0    0  0.50914165201E+01 -0.15418738092E+02  0.93284621248E+01  0.18726457544E+02  0.00000000000E+00 0. -1.
         11    1    3    3    0    0  0.62117924276E+01  0.13952657404E+02 -0.20078007383E+02  0.25226759494E+02  0.51100000000E-03 0. -1.
        -11    1    3    3    0    0  0.59674125875E+01 -0.17368098739E+02  0.11503013854E+02  0.21669799140E+02  0.51100000000E-03 0.  1.
         12    1    3    3    0    0 -0.17270621535E+02  0.18834179427E+02 -0.75346859577E+00  0.25564983822E+02  0.00000000000E+00 0. -1.
</event>
<event>
 7    1  0.2153242E-013  0.7246175E+02  0.7816164E-02  0.1226708E+00
        -11   -1    0    0    0    0  0.00000000000E+00  0.00000000000E+00  0.45593999997E+02  0.45594000000E+02  0.51100000000E-03 0. -1.
         11   -1    0    0    0    0 -0.00000000000E+00 -0.00000000000E+00 -0.45593999997E+02  0.45594000000E+02  0.51100000000E-03 0.  1.
    9900012    2    1    2    0    0 -0.59256793675E+01 -0.98669607190E+01 -0.14771654977E+02  0.72461751562E+02  0.70000236134E+02 0.  0.
         12    1    1    2    0    0  0.59256793675E+01  0.98669607190E+01  0.14771654977E+02  0.18726248438E+02  0.00000000000E+00 0. -1.
         11    1    3    3    0    0  0.22446285484E+02  0.11003540721E+02  0.32748527283E+01  0.25211868259E+02  0.51100000000E-03 0. -1.
        -11    1    3    3    0    0 -0.60664389446E+00 -0.33596423451E+01  0.57629493114E+01  0.66982683231E+01  0.51100000000E-03 0.  1.
        -12    1    3    3    0    0 -0.27765320957E+02 -0.17510859094E+02 -0.23809457017E+02  0.40551614980E+02  0.00000000000E+00 0.  1.
</event>
<event>
 7    1  0.2153242E-013  0.7246163E+02  0.7816164E-02  0.1226708E+00
        -11   -1    0    0    0    0  0.00000000000E+00  0.00000000000E+00  0.45593999997E+02  0.45594000000E+02  0.51100000000E-03 0.  1.
         11   -1    0    0    0    0 -0.00000000000E+00 -0.00000000000E+00 -0.45593999997E+02  0.45594000000E+02  0.51100000000E-03 0. -1.
    9900012    2    1    2    0    0  0.89825051354E+01  0.12092070233E+02  0.11125351416E+02  0.72461628084E+02  0.70000075281E+02 0.  0.
         12    1    1    2    0    0 -0.89825051354E+01 -0.12092070233E+02 -0.11125351416E+02  0.18726371916E+02  0.00000000000E+00 0. -1.
         11    1    3    3    0    0 -0.26183666619E+02  0.15730499444E+01 -0.45320619821E+01  0.26619512952E+02  0.51100000000E-03 0. -1.
        -11    1    3    3    0    0  0.51995911320E+01 -0.29992086474E+01  0.11145818257E+02  0.12659394351E+02  0.51100000000E-03 0.  1.
        -12    1    3    3    0    0  0.29966580622E+02  0.13518228936E+02  0.45115951408E+01  0.33182720781E+02  0.00000000000E+00 0.  1.
</event>
<event>
 7    1  0.2153242E-013  0.7246161E+02  0.7816164E-02  0.1226708E+00
        -11   -1    0    0    0    0  0.00000000000E+00  0.00000000000E+00  0.45593999997E+02  0.45594000000E+02  0.51100000000E-03 0.  1.
         11   -1    0    0    0    0 -0.00000000000E+00 -0.00000000000E+00 -0.45593999997E+02  0.45594000000E+02  0.51100000000E-03 0. -1.
    9900012    2    1    2    0    0  0.12016449183E+02 -0.13945898381E+02 -0.34342947273E+01  0.72461614526E+02  0.70000057621E+02 0.  0.
         12    1    1    2    0    0 -0.12016449183E+02  0.13945898381E+02  0.34342947273E+01  0.18726385474E+02  0.00000000000E+00 0. -1.
         11    1    3    3    0    0 -0.29629080530E+01 -0.86609651364E+01 -0.25683563546E+02  0.27266033410E+02  0.51100000000E-03 0. -1.
        -11    1    3    3    0    0  0.24360195385E+02  0.39742556116E-01  0.50259404935E+01  0.24873294450E+02  0.51100000000E-03 0.  1.
        -12    1    3    3    0    0 -0.93808381489E+01 -0.53246758006E+01  0.17223328325E+02  0.20322286667E+02  0.00000000000E+00 0.  1.
</event>
<event>
 7    1  0.2153242E-013  0.7246158E+02  0.7816164E-02  0.1226708E+00
        -11   -1    0    0    0    0  0.00000000000E+00  0.00000000000E+00  0.45593999997E+02  0.45594000000E+02  0.51100000000E-03 0.  1.
         11   -1    0    0    0    0 -0.00000000000E+00 -0.00000000000E+00 -0.45593999997E+02  0.45594000000E+02  0.51100000000E-03 0. -1.
    9900012    2    1    2    0    0 -0.23372506546E+01 -0.58978086645E+01  0.17619076819E+02  0.72461581346E+02  0.70000014397E+02 0.  0.
         12    1    1    2    0    0  0.23372506546E+01  0.58978086645E+01 -0.17619076819E+02  0.18726418654E+02  0.00000000000E+00 0. -1.
         11    1    3    3    0    0 -0.26458156709E+02  0.11722007615E+02  0.21716980803E+02  0.36181027824E+02  0.51100000000E-03 0. -1.
        -11    1    3    3    0    0 -0.30441635287E+01 -0.54305976871E+01 -0.14339740438E-02  0.62256184549E+01  0.51100000000E-03 0.  1.
        -12    1    3    3    0    0  0.27165069583E+02 -0.12189218593E+02 -0.40964700106E+01  0.30054935067E+02  0.00000000000E+00 0.  1.
</event>
<event>
 7    1  0.2153242E-013  0.7246154E+02  0.7816164E-02  0.1226708E+00
        -11   -1    0    0    0    0  0.00000000000E+00  0.00000000000E+00  0.45593999997E+02  0.45594000000E+02  0.51100000000E-03 0. -1.
         11   -1    0    0    0    0 -0.00000000000E+00 -0.00000000000E+00 -0.45593999997E+02  0.45594000000E+02  0.51100000000E-03 0.  1.
    9900012    2    1    2    0    0 -0.10449059564E+01 -0.14385418019E+02 -0.11943546086E+02  0.72461538157E+02  0.69999958135E+02 0.  0.
         12    1    1    2    0    0  0.10449059564E+01  0.14385418019E+02  0.11943546086E+02  0.18726461843E+02  0.00000000000E+00 0. -1.
         11    1    3    3    0    0 -0.25270608372E+02  0.20675269767E+01  0.58007485168E+01  0.26010132620E+02  0.51100000000E-03 0. -1.
        -11    1    3    3    0    0  0.18742097493E+01 -0.79603625557E-01 -0.18635927884E+02  0.18730104305E+02  0.51100000000E-03 0.  1.
        -12    1    3    3    0    0  0.22351492666E+02 -0.16373341370E+02  0.89163328119E+00  0.27721301231E+02  0.00000000000E+00 0.  1.
</event>
<event>
 7    1  0.2153242E-013  0.7246155E+02  0.7816164E-02  0.1226708E+00
        -11   -1    0    0    0    0  0.00000000000E+00  0.00000000000E+00  0.45593999997E+02  0.45594000000E+02  0.51100000000E-03 0.  1.
         11   -1    0    0    0    0 -0.00000000000E+00 -0.00000000000E+00 -0.45593999997E+02  0.45594000000E+02  0.51100000000E-03 0. -1.
    9900012    2    1    2    0    0 -0.11891365086E+02  0.10140703311E+01  0.14430763549E+02  0.72461552424E+02  0.69999976720E+02 0.  0.
         12    1    1    2    0    0  0.11891365086E+02 -0.10140703311E+01 -0.14430763549E+02  0.18726447576E+02  0.00000000000E+00 0. -1.
         11    1    3    3    0    0  0.20127122261E+01  0.20538698802E+02 -0.90046801373E+01  0.22516070341E+02  0.51100000000E-03 0. -1.
        -11    1    3    3    0    0  0.60565769371E+00  0.99254350207E+01  0.61510196694E+00  0.99629028041E+01  0.51100000000E-03 0.  1.
        -12    1    3    3    0    0 -0.14509735005E+02 -0.29450063491E+02  0.22820341719E+02  0.39982579278E+02  0.00000000000E+00 0.  1.
</event>
<event>
 7    1  0.2153242E-013  0.7246156E+02  0.7816164E-02  0.1226708E+00
        -11   -1    0    0    0    0  0.00000000000E+00  0.00000000000E+00  0.45593999997E+02  0.45594000000E+02  0.51100000000E-03 0.  1.
         11   -1    0    0    0    0 -0.00000000000E+00 -0.00000000000E+00 -0.45593999997E+02  0.45594000000E+02  0.51100000000E-03 0. -1.
    9900012    2    1    2    0    0 -0.14469923267E+02  0.68547662524E+01  0.97114825679E+01  0.72461564317E+02  0.69999992213E+02 0.  0.
         12    1    1    2    0    0  0.14469923267E+02 -0.68547662524E+01 -0.97114825679E+01  0.18726435683E+02  0.00000000000E+00 0. -1.
         11    1    3    3    0    0 -0.94870738970E+01  0.25519728192E+02 -0.14845006108E+02  0.31010245158E+02  0.51100000000E-03 0.  1.
        -11    1    3    3    0    0 -0.12792959332E+01 -0.48065429421E+00  0.22766598757E+02  0.22807578694E+02  0.51100000000E-03 0. -1.
        -12    1    3    3    0    0 -0.37035534371E+01 -0.18184307646E+02  0.17898899184E+01  0.18643740465E+02  0.00000000000E+00 0.  1.
</event>
<event>
 7    1  0.2153242E-013  0.7246160E+02  0.7816164E-02  0.1226708E+00
        -11   -1    0    0    0    0  0.00000000000E+00  0.00000000000E+00  0.45593999997E+02  0.45594000000E+02  0.51100000000E-03 0. -1.
         11   -1    0    0    0    0 -0.00000000000E+00 -0.00000000000E+00 -0.45593999997E+02  0.45594000000E+02  0.51100000000E-03 0.  1.
    9900012    2    1    2    0    0  0.84637954384E+01  0.41391361186E+01 -0.16183625500E+02  0.72461601111E+02  0.70000040144E+02 0.  0.
         12    1    1    2    0    0 -0.84637954384E+01 -0.41391361186E+01  0.16183625500E+02  0.18726398889E+02  0.00000000000E+00 0. -1.
         11    1    3    3    0    0  0.98418117424E+01  0.19174279838E+02 -0.98165560358E+01  0.23682884925E+02  0.51100000000E-03 0. -1.
        -11    1    3    3    0    0 -0.16691918210E+02  0.90484024440E+01 -0.69883765481E+01  0.20231933357E+02  0.51100000000E-03 0.  1.
         12    1    3    3    0    0  0.15313901906E+02 -0.24083546164E+02  0.62130708355E+00  0.28546782829E+02  0.00000000000E+00 0. -1.
</event>
<event>
 7    1  0.2153242E-013  0.7246230E+02  0.7816164E-02  0.1226706E+00
        -11   -1    0    0    0    0  0.00000000000E+00  0.00000000000E+00  0.45593999997E+02  0.45594000000E+02  0.51100000000E-03 0.  1.
         11   -1    0    0    0    0 -0.00000000000E+00 -0.00000000000E+00 -0.45593999997E+02  0.45594000000E+02  0.51100000000E-03 0. -1.
    9900012    2    1    2    0    0 -0.91945728087E+00 -0.13597232436E+02  0.12842184015E+02  0.72462300497E+02  0.70000951218E+02 0.  0.
         12    1    1    2    0    0  0.91945728087E+00  0.13597232436E+02 -0.12842184015E+02  0.18725699503E+02  0.00000000000E+00 0. -1.
         11    1    3    3    0    0  0.29818863544E+01 -0.10058773443E+01 -0.25053077768E+02  0.25249953295E+02  0.51100000000E-03 0. -1.
        -11    1    3    3    0    0 -0.42739415767E+01  0.55337880859E+01  0.24660155463E+01  0.74142174311E+01  0.51100000000E-03 0.  1.
        -12    1    3    3    0    0  0.37259794138E+00 -0.18125143177E+02  0.35429246237E+02  0.39798129772E+02  0.00000000000E+00 0.  1.
</event>
<event>
 7    1  0.2153242E-013  0.7246158E+02  0.7816164E-02  0.1226708E+00
        -11   -1    0    0    0    0  0.00000000000E+00  0.00000000000E+00  0.45593999997E+02  0.45594000000E+02  0.51100000000E-03 0.  1.
         11   -1    0    0    0    0 -0.00000000000E+00 -0.00000000000E+00 -0.45593999997E+02  0.45594000000E+02  0.51100000000E-03 0. -1.
    9900012    2    1    2    0    0  0.33737329169E+01 -0.76847115263E+01  0.16740426854E+02  0.72461581328E+02  0.70000014374E+02 0.  0.
         12    1    1    2    0    0 -0.33737329169E+01  0.76847115263E+01 -0.16740426854E+02  0.18726418672E+02  0.00000000000E+00 0. -1.
         11    1    3    3    0    0  0.75454082303E+01 -0.65422439172E+01  0.92572807210E+01  0.13617319393E+02  0.51100000000E-03 0. -1.
        -11    1    3    3    0    0 -0.10805051144E+02  0.99929924602E+01  0.29686511791E+02  0.33134544076E+02  0.51100000000E-03 0.  1.
         12    1    3    3    0    0  0.66333758311E+01 -0.11135460069E+02 -0.22203365658E+02  0.25709717860E+02  0.00000000000E+00 0. -1.
</event>
<event>
 7    1  0.2153242E-013  0.7246154E+02  0.7816164E-02  0.1226708E+00
        -11   -1    0    0    0    0  0.00000000000E+00  0.00000000000E+00  0.45593999997E+02  0.45594000000E+02  0.51100000000E-03 0. -1.
         11   -1    0    0    0    0 -0.00000000000E+00 -0.00000000000E+00 -0.45593999997E+02  0.45594000000E+02  0.51100000000E-03 0.  1.
    9900012    2    1    2    0    0 -0.12387010273E+02  0.91084184345E+01  0.10690130630E+02  0.72461542707E+02  0.69999964062E+02 0.  0.
         12    1    1    2    0    0  0.12387010273E+02 -0.91084184345E+01 -0.10690130630E+02  0.18726457293E+02  0.00000000000E+00 0. -1.
         11    1    3    3    0    0 -0.56552007968E+01  0.59179290326E+01 -0.79396446160E+01  0.11403558084E+02  0.51100000000E-03 0. -1.
        -11    1    3    3    0    0 -0.28806035968E+02  0.96813090498E+01 -0.15847944306E+01  0.30430692184E+02  0.51100000000E-03 0.  1.
         12    1    3    3    0    0  0.22074226492E+02 -0.64908196479E+01  0.20214569676E+02  0.30627292439E+02  0.00000000000E+00 0. -1.
</event>
<event>
 7    1  0.2153242E-013  0.7246156E+02  0.7816164E-02  0.1226708E+00
        -11   -1    0    0    0    0  0.00000000000E+00  0.00000000000E+00  0.45593999997E+02  0.45594000000E+02  0.51100000000E-03 0.  1.
         11   -1    0    0    0    0 -0.00000000000E+00 -0.00000000000E+00 -0.45593999997E+02  0.45594000000E+02  0.51100000000E-03 0. -1.
    9900012    2    1    2    0    0 -0.62317427989E+01  0.13302344582E+01  0.17608962839E+02  0.72461555749E+02  0.69999981052E+02 0.  0.
         12    1    1    2    0    0  0.62317427989E+01 -0.13302344582E+01 -0.17608962839E+02  0.18726444251E+02  0.00000000000E+00 0. -1.
         11    1    3    3    0    0 -0.25179498993E+01  0.46325258593E+01  0.25826383835E+02  0.26359106012E+02  0.51100000000E-03 0. -1.
        -11    1    3    3    0    0 -0.60291184300E+01 -0.15542480906E+02  0.13241479478E+02  0.21289804151E+02  0.51100000000E-03 0.  1.
         12    1    3    3    0    0  0.23153255304E+01  0.12240189505E+02 -0.21458900474E+02  0.24812645586E+02  0.00000000000E+00 0. -1.
</event>
<event>
 7    1  0.2153242E-013  0.7246158E+02  0.7816164E-02  0.1226708E+00
        -11   -1    0    0    0    0  0.00000000000E+00  0.00000000000E+00  0.45593999997E+02  0.45594000000E+02  0.51100000000E-03 0. -1.
         11   -1    0    0    0    0 -0.00000000000E+00 -0.00000000000E+00 -0.45593999997E+02  0.45594000000E+02  0.51100000000E-03 0.  1.
    9900012    2    1    2    0    0 -0.14862007751E+02 -0.12144433403E+01 -0.11328049619E+02  0.72461578687E+02  0.70000010933E+02 0.  0.
         12    1    1    2    0    0  0.14862007751E+02  0.12144433403E+01  0.11328049619E+02  0.18726421313E+02  0.00000000000E+00 0. -1.
         11    1    3    3    0    0 -0.10587082812E+02  0.22410302666E+02 -0.88356258022E+01  0.26313043755E+02  0.51100000000E-03 0. -1.
        -11    1    3    3    0    0 -0.28465023425E+01 -0.13924358575E+02 -0.20910492561E+02  0.25283176950E+02  0.51100000000E-03 0.  1.
         12    1    3    3    0    0 -0.14284225968E+01 -0.97003874322E+01  0.18418068744E+02  0.20865357982E+02  0.00000000000E+00 0. -1.
</event>
<event>
 7    1  0.2153242E-013  0.7246149E+02  0.7816164E-02  0.1226708E+00
        -11   -1    0    0    0    0  0.00000000000E+00  0.00000000000E+00  0.45593999997E+02  0.45594000000E+02  0.51100000000E-03 0.  1.
         11   -1    0    0    0    0 -0.00000000000E+00 -0.00000000000E+00 -0.45593999997E+02  0.45594000000E+02  0.51100000000E-03 0. -1.
    9900012    2    1    2    0    0  0.20661160757E+01 -0.14828037429E+02  0.11249114180E+02  0.72461492065E+02  0.69999898091E+02 0.  0.
         12    1    1    2    0    0 -0.20661160757E+01  0.14828037429E+02 -0.11249114180E+02  0.18726507935E+02  0.00000000000E+00 0. -1.
         11    1    3    3    0    0 -0.10230108681E+02 -0.62124622200E+01  0.64003644654E+01  0.13572563355E+02  0.51100000000E-03 0. -1.
        -11    1    3    3    0    0  0.65708424164E+01 -0.39179819131E+01  0.30885769329E+02  0.31819134175E+02  0.51100000000E-03 0.  1.
         12    1    3    3    0    0  0.57253823405E+01 -0.46975932954E+01 -0.26037019615E+02  0.27069794535E+02  0.00000000000E+00 0. -1.
</event>
<event>
 7    1  0.2153242E-013  0.7246187E+02  0.7816164E-02  0.1226707E+00
        -11   -1    0    0    0    0  0.00000000000E+00  0.00000000000E+00  0.45593999997E+02  0.45594000000E+02  0.51100000000E-03 0.  1.
         11   -1    0    0    0    0 -0.00000000000E+00 -0.00000000000E+00 -0.45593999997E+02  0.45594000000E+02  0.51100000000E-03 0. -1.
    9900012    2    1    2    0    0  0.21468756568E+01  0.18503897293E+02 -0.19143620976E+01  0.72461866594E+02  0.70000385984E+02 0.  0.
         12    1    1    2    0    0 -0.21468756568E+01 -0.18503897293E+02  0.19143620976E+01  0.18726133406E+02  0.00000000000E+00 0. -1.
         11    1    3    3    0    0 -0.13025364494E+02  0.17039947233E+02 -0.13107223147E+01  0.21488087750E+02  0.51100000000E-03 0. -1.
        -11    1    3    3    0    0 -0.12508236368E+02  0.71978015501E+01 -0.13628377079E+02  0.19849357326E+02  0.51100000000E-03 0.  1.
        -12    1    3    3    0    0  0.27680476519E+02 -0.57338514897E+01  0.13024737296E+02  0.31124421518E+02  0.00000000000E+00 0.  1.
</event>
<event>
 7    1  0.2153242E-013  0.7246156E+02  0.7816164E-02  0.1226708E+00
        -11   -1    0    0    0    0  0.00000000000E+00  0.00000000000E+00  0.45593999997E+02  0.45594000000E+02  0.51100000000E-03 0.  1.
         11   -1    0    0    0    0 -0.00000000000E+00 -0.00000000000E+00 -0.45593999997E+02  0.45594000000E+02  0.51100000000E-03 0. -1.
    9900012    2    1    2    0    0 -0.12786285024E+02  0.79092938389E+01  0.11163946186E+02  0.72461555912E+02  0.69999981264E+02 0.  0.
         12    1    1    2    0    0  0.12786285024E+02 -0.79092938389E+01 -0.11163946186E+02  0.18726444088E+02  0.00000000000E+00 0. -1.
         11    1    3    3    0    0 -0.27081666219E+01  0.11343972448E+02 -0.14045311523E+02  0.18256249708E+02  0.51100000000E-03 0. -1.
        -11    1    3    3    0    0 -0.18058224961E+02  0.15883386338E+02  0.39131571657E+01  0.24365841860E+02  0.51100000000E-03 0.  1.
        -12    1    3    3    0    0  0.79801065588E+01 -0.19318064947E+02  0.21296100543E+02  0.29839464344E+02  0.00000000000E+00 0.  1.
</event>
<event>
 7    1  0.2153242E-013  0.7246152E+02  0.7816164E-02  0.1226708E+00
        -11   -1    0    0    0    0  0.00000000000E+00  0.00000000000E+00  0.45593999997E+02  0.45594000000E+02  0.51100000000E-03 0.  1.
         11   -1    0    0    0    0 -0.00000000000E+00 -0.00000000000E+00 -0.45593999997E+02  0.45594000000E+02  0.51100000000E-03 0. -1.
    9900012    2    1    2    0    0  0.98313506504E+01  0.21583656086E+01  0.15791362586E+02  0.72461517948E+02  0.69999931809E+02 0.  0.
         12    1    1    2    0    0 -0.98313506504E+01 -0.21583656086E+01 -0.15791362586E+02  0.18726482052E+02  0.00000000000E+00 0. -1.
         11    1    3    3    0    0  0.43098204028E+01  0.71281270664E+01 -0.22002777241E+02  0.23526728501E+02  0.51100000000E-03 0. -1.
        -11    1    3    3    0    0  0.58179772102E+01 -0.57897350190E+01 -0.25394465791E+01  0.85917797689E+01  0.51100000000E-03 0.  1.
        -12    1    3    3    0    0 -0.29644696255E+00  0.81997356124E+00  0.40333586407E+02  0.40343009678E+02  0.00000000000E+00 0.  1.
</event>
<event>
 7    1  0.2153242E-013  0.7246157E+02  0.7816164E-02  0.1226708E+00
        -11   -1    0    0    0    0  0.00000000000E+00  0.00000000000E+00  0.45593999997E+02  0.45594000000E+02  0.51100000000E-03 0.  1.
         11   -1    0    0    0    0 -0.00000000000E+00 -0.00000000000E+00 -0.45593999997E+02  0.45594000000E+02  0.51100000000E-03 0. -1.
    9900012    2    1    2    0    0 -0.80101362596E+01 -0.59083893362E+01  0.15862153771E+02  0.72461567619E+02  0.69999996515E+02 0.  0.
         12    1    1    2    0    0  0.80101362596E+01  0.59083893362E+01 -0.15862153771E+02  0.18726432381E+02  0.00000000000E+00 0. -1.
         11    1    3    3    0    0 -0.39982770060E+01 -0.52213049728E+00 -0.50937269132E-01  0.40325468552E+01  0.51100000000E-03 0. -1.
        -11    1    3    3    0    0 -0.32942936784E+02 -0.14804291776E+02  0.80154394502E+01  0.36995289008E+02  0.51100000000E-03 0.  1.
         12    1    3    3    0    0  0.28931077531E+02  0.94180329366E+01  0.78976515904E+01  0.31433731756E+02  0.00000000000E+00 0. -1.
</event>
<event>
 7    1  0.2153242E-013  0.7246156E+02  0.7816164E-02  0.1226708E+00
        -11   -1    0    0    0    0  0.00000000000E+00  0.00000000000E+00  0.45593999997E+02  0.45594000000E+02  0.51100000000E-03 0.  1.
         11   -1    0    0    0    0 -0.00000000000E+00 -0.00000000000E+00 -0.45593999997E+02  0.45594000000E+02  0.51100000000E-03 0. -1.
    9900012    2    1    2    0    0 -0.86455755496E+01  0.16557044065E+02 -0.13408895476E+01  0.72461556944E+02  0.69999982608E+02 0.  0.
         12    1    1    2    0    0  0.86455755496E+01 -0.16557044065E+02  0.13408895476E+01  0.18726443056E+02  0.00000000000E+00 0. -1.
         11    1    3    3    0    0  0.90007655095E+01  0.14097498652E+02 -0.14121088363E+02  0.21889686723E+02  0.51100000000E-03 0. -1.
        -11    1    3    3    0    0 -0.99419235969E+01 -0.12239819958E+02 -0.12642887747E+02  0.20211324753E+02  0.51100000000E-03 0.  1.
        -12    1    3    3    0    0 -0.77044174622E+01  0.14699365371E+02  0.25423086563E+02  0.30360545468E+02  0.00000000000E+00 0.  1.
</event>
<event>
 7    1  0.2153242E-013  0.7246159E+02  0.7816164E-02  0.1226708E+00
        -11   -1    0    0    0    0  0.00000000000E+00  0.00000000000E+00  0.45593999997E+02  0.45594000000E+02  0.51100000000E-03 0.  1.
         11   -1    0    0    0    0 -0.00000000000E+00 -0.00000000000E+00 -0.45593999997E+02  0.45594000000E+02  0.51100000000E-03 0. -1.
    9900012    2    1    2    0    0 -0.16444033469E+02 -0.34427171794E+01  0.82716377683E+01  0.72461587378E+02  0.70000022255E+02 0.  0.
         12    1    1    2    0    0  0.16444033469E+02  0.34427171794E+01 -0.82716377683E+01  0.18726412622E+02  0.00000000000E+00 0. -1.
         11    1    3    3    0    0 -0.60494765209E+01  0.53205063018E+01  0.15016103722E+02  0.17040754817E+02  0.51100000000E-03 0. -1.
        -11    1    3    3    0    0 -0.14198443152E+02  0.71742878281E+01  0.19076992163E+02  0.24839440896E+02  0.51100000000E-03 0.  1.
         12    1    3    3    0    0  0.38038862041E+01 -0.15937511309E+02 -0.25821458116E+02  0.30581391666E+02  0.00000000000E+00 0. -1.
</event>
<event>
 7    1  0.2153242E-013  0.7246163E+02  0.7816164E-02  0.1226708E+00
        -11   -1    0    0    0    0  0.00000000000E+00  0.00000000000E+00  0.45593999997E+02  0.45594000000E+02  0.51100000000E-03 0.  1.
         11   -1    0    0    0    0 -0.00000000000E+00 -0.00000000000E+00 -0.45593999997E+02  0.45594000000E+02  0.51100000000E-03 0. -1.
    9900012    2    1    2    0    0 -0.16994482731E+01 -0.17146444095E+02  0.73340531372E+01  0.72461628089E+02  0.70000075288E+02 0.  0.
         12    1    1    2    0    0  0.16994482731E+01  0.17146444095E+02 -0.73340531372E+01  0.18726371911E+02  0.00000000000E+00 0. -1.
         11    1    3    3    0    0  0.18333454578E+02 -0.15072573733E+02 -0.15109325259E+02  0.28135204739E+02  0.51100000000E-03 0. -1.
        -11    1    3    3    0    0  0.70593292172E+01  0.67046821590E+01  0.61592309438E+01  0.11520547640E+02  0.51100000000E-03 0.  1.
        -12    1    3    3    0    0 -0.27092232068E+02 -0.87785525213E+01  0.16284147452E+02  0.32805875709E+02  0.00000000000E+00 0.  1.
</event>
<event>
 7    1  0.2153242E-013  0.7246156E+02  0.7816164E-02  0.1226708E+00
        -11   -1    0    0    0    0  0.00000000000E+00  0.00000000000E+00  0.45593999997E+02  0.45594000000E+02  0.51100000000E-03 0. -1.
         11   -1    0    0    0    0 -0.00000000000E+00 -0.00000000000E+00 -0.45593999997E+02  0.45594000000E+02  0.51100000000E-03 0.  1.
    9900012    2    1    2    0    0 -0.91426548892E+01 -0.93269093097E+01 -0.13420134852E+02  0.72461564270E+02  0.69999992152E+02 0.  0.
         12    1    1    2    0    0  0.91426548892E+01  0.93269093097E+01  0.13420134852E+02  0.18726435730E+02  0.00000000000E+00 0. -1.
         11    1    3    3    0    0  0.56272341406E+01 -0.15721515879E+02  0.14915288616E+02  0.22389677541E+02  0.51100000000E-03 0. -1.
        -11    1    3    3    0    0 -0.16783436294E+02  0.77296846100E+01  0.29339239437E+01  0.18709347075E+02  0.51100000000E-03 0.  1.
        -12    1    3    3    0    0  0.20135472643E+01 -0.13350780404E+01 -0.31269347412E+02  0.31362539654E+02  0.00000000000E+00 0.  1.
</event>
<event>
 7    1  0.2153242E-013  0.7246095E+02  0.7816164E-02  0.1226710E+00
        -11   -1    0    0    0    0  0.00000000000E+00  0.00000000000E+00  0.45593999997E+02  0.45594000000E+02  0.51100000000E-03 0. -1.
         11   -1    0    0    0    0 -0.00000000000E+00 -0.00000000000E+00 -0.45593999997E+02  0.45594000000E+02  0.51100000000E-03 0.  1.
    9900012    2    1    2    0    0 -0.12779782698E+02 -0.12384982246E+02 -0.58302476790E+01  0.72460949537E+02  0.69999191343E+02 0.  0.
         12    1    1    2    0    0  0.12779782698E+02  0.12384982246E+02  0.58302476790E+01  0.18727050463E+02  0.00000000000E+00 0. -1.
         11    1    3    3    0    0  0.14981413441E+02 -0.16999056509E+02 -0.34986022310E+01  0.22927077632E+02  0.51100000000E-03 0. -1.
        -11    1    3    3    0    0 -0.15321292962E+02 -0.89250445331E+01  0.15771911333E+02  0.23730815943E+02  0.51100000000E-03 0.  1.
        -12    1    3    3    0    0 -0.12439903178E+02  0.13539118796E+02 -0.18103556781E+02  0.25803055962E+02  0.00000000000E+00 0.  1.
</event>
<event>
 7    1  0.3267534E-013  0.7246152E+02  0.7816164E-02  0.1226708E+00
        -11   -1    0    0    0    0  0.00000000000E+00  0.00000000000E+00  0.45593999997E+02  0.45594000000E+02  0.51100000000E-03 0. -1.
         11   -1    0    0    0    0 -0.00000000000E+00 -0.00000000000E+00 -0.45593999997E+02  0.45594000000E+02  0.51100000000E-03 0.  1.
    9900012    2    1    2    0    0  0.98535115476E+00  0.15487089015E+02 -0.10481425629E+02  0.72461518049E+02  0.69999931940E+02 0.  0.
         12    1    1    2    0    0 -0.98535115476E+00 -0.15487089015E+02  0.10481425629E+02  0.18726481951E+02  0.00000000000E+00 0. -1.
         11    1    3    3    0    0 -0.31772712381E+01  0.10162291259E+00  0.11106690393E+02  0.11552659931E+02  0.51100000000E-03 0. -1.
        -11    1    3    3    0    0 -0.21727699988E+02  0.18613593580E+02 -0.19726190050E+02  0.34751710561E+02  0.51100000000E-03 0.  1.
         12    1    3    3    0    0  0.25890322381E+02 -0.32281274773E+01 -0.18619259716E+01  0.26157147557E+02  0.00000000000E+00 0. -1.
</event>
<event>
 7    1  0.2153242E-013  0.7246150E+02  0.7816164E-02  0.1226708E+00
        -11   -1    0    0    0    0  0.00000000000E+00  0.00000000000E+00  0.45593999997E+02  0.45594000000E+02  0.51100000000E-03 0.  1.
         11   -1    0    0    0    0 -0.00000000000E+00 -0.00000000000E+00 -0.45593999997E+02  0.45594000000E+02  0.51100000000E-03 0. -1.
    9900012    2    1    2    0    0 -0.34854912643E+01  0.24265041011E+01  0.18238567625E+02  0.72461496842E+02  0.69999904314E+02 0.  0.
         12    1    1    2    0    0  0.34854912643E+01 -0.24265041011E+01 -0.18238567625E+02  0.18726503158E+02  0.00000000000E+00 0. -1.
         11    1    3    3    0    0  0.68305395412E+01  0.88027957789E+00  0.88755790452E+01  0.11234191836E+02  0.51100000000E-03 0. -1.
        -11    1    3    3    0    0  0.19016148957E+02  0.21769085076E+01  0.22105642235E+02  0.29240592858E+02  0.51100000000E-03 0.  1.
         12    1    3    3    0    0 -0.29332179762E+02 -0.63068398432E+00 -0.12742653655E+02  0.31986712148E+02  0.00000000000E+00 0. -1.
</event>
<event>
 7    1  0.2153242E-013  0.7246160E+02  0.7816164E-02  0.1226708E+00
        -11   -1    0    0    0    0  0.00000000000E+00  0.00000000000E+00  0.45593999997E+02  0.45594000000E+02  0.51100000000E-03 0.  1.
         11   -1    0    0    0    0 -0.00000000000E+00 -0.00000000000E+00 -0.45593999997E+02  0.45594000000E+02  0.51100000000E-03 0. -1.
    9900012    2    1    2    0    0  0.13309782663E+02 -0.12994535732E+02  0.21609836890E+01  0.72461598212E+02  0.70000036368E+02 0.  0.
         12    1    1    2    0    0 -0.13309782663E+02  0.12994535732E+02 -0.21609836890E+01  0.18726401788E+02  0.00000000000E+00 0. -1.
         11    1    3    3    0    0 -0.31147563136E+01  0.83337128709E+01  0.15754266844E+02  0.18092799704E+02  0.51100000000E-03 0.  1.
        -11    1    3    3    0    0  0.13618539888E+02  0.56261989652E+01 -0.21566980241E+02  0.26119980483E+02  0.51100000000E-03 0. -1.
         12    1    3    3    0    0  0.28059990888E+01 -0.26954447568E+02  0.79736970864E+01  0.28248818025E+02  0.00000000000E+00 0. -1.
</event>
<event>
 7    1  0.2153242E-013  0.7246158E+02  0.7816164E-02  0.1226708E+00
        -11   -1    0    0    0    0  0.00000000000E+00  0.00000000000E+00  0.45593999997E+02  0.45594000000E+02  0.51100000000E-03 0.  1.
         11   -1    0    0    0    0 -0.00000000000E+00 -0.00000000000E+00 -0.45593999997E+02  0.45594000000E+02  0.51100000000E-03 0. -1.
    9900012    2    1    2    0    0  0.17210232567E+02 -0.14868860162E+01  0.72302174555E+01  0.72461575368E+02  0.70000006609E+02 0.  0.
         12    1    1    2    0    0 -0.17210232567E+02  0.14868860162E+01 -0.72302174555E+01  0.18726424632E+02  0.00000000000E+00 0. -1.
         11    1    3    3    0    0 -0.14962889838E+02  0.12948918618E+02  0.21316960616E+01  0.19902429350E+02  0.51100000000E-03 0. -1.
        -11    1    3    3    0    0 -0.26787993541E+01  0.95764947201E+01  0.18194425002E+01  0.10109183368E+02  0.51100000000E-03 0.  1.
        -12    1    3    3    0    0  0.34851921759E+02 -0.24012299354E+02  0.32790788938E+01  0.42449962650E+02  0.00000000000E+00 0.  1.
</event>
<event>
 7    1  0.2153242E-013  0.7246158E+02  0.7816164E-02  0.1226708E+00
        -11   -1    0    0    0    0  0.00000000000E+00  0.00000000000E+00  0.45593999997E+02  0.45594000000E+02  0.51100000000E-03 0. -1.
         11   -1    0    0    0    0 -0.00000000000E+00 -0.00000000000E+00 -0.45593999997E+02  0.45594000000E+02  0.51100000000E-03 0.  1.
    9900012    2    1    2    0    0  0.27918454722E+01  0.70739223563E+00 -0.18503619578E+02  0.72461581698E+02  0.70000014856E+02 0.  0.
         12    1    1    2    0    0 -0.27918454722E+01 -0.70739223563E+00  0.18503619578E+02  0.18726418302E+02  0.00000000000E+00 0. -1.
         11    1    3    3    0    0 -0.13061421217E+02 -0.14581255090E+02  0.88990879451E+01  0.21503662263E+02  0.51100000000E-03 0. -1.
        -11    1    3    3    0    0  0.52182183047E+01  0.95303915921E+00  0.89815562452E+01  0.10431032488E+02  0.51100000000E-03 0.  1.
        -12    1    3    3    0    0  0.10635048385E+02  0.14335608166E+02 -0.36384263769E+02  0.40526886947E+02  0.00000000000E+00 0.  1.
</event>
<event>
 7    1  0.2153242E-013  0.7246155E+02  0.7816164E-02  0.1226708E+00
        -11   -1    0    0    0    0  0.00000000000E+00  0.00000000000E+00  0.45593999997E+02  0.45594000000E+02  0.51100000000E-03 0.  1.
         11   -1    0    0    0    0 -0.00000000000E+00 -0.00000000000E+00 -0.45593999997E+02  0.45594000000E+02  0.51100000000E-03 0. -1.
    9900012    2    1    2    0    0  0.73785504932E+01 -0.12877519246E+02  0.11419568662E+02  0.72461546579E+02  0.69999969106E+02 0.  0.
         12    1    1    2    0    0 -0.73785504932E+01  0.12877519246E+02 -0.11419568662E+02  0.18726453421E+02  0.00000000000E+00 0. -1.
         11    1    3    3    0    0  0.10874426160E+02 -0.11526717146E+02 -0.12808141360E+02  0.20375643250E+02  0.51100000000E-03 0. -1.
        -11    1    3    3    0    0  0.88293316126E+01 -0.19818547711E+02  0.40235124486E+01  0.22066277048E+02  0.51100000000E-03 0.  1.
        -12    1    3    3    0    0 -0.12325207280E+02  0.18467745612E+02  0.20204197573E+02  0.30019626281E+02  0.00000000000E+00 0.  1.
</event>
<event>
 7    1  0.2153242E-013  0.7246157E+02  0.7816164E-02  0.1226708E+00
        -11   -1    0    0    0    0  0.00000000000E+00  0.00000000000E+00  0.45593999997E+02  0.45594000000E+02  0.51100000000E-03 0.  1.
         11   -1    0    0    0    0 -0.00000000000E+00 -0.00000000000E+00 -0.45593999997E+02  0.45594000000E+02  0.51100000000E-03 0. -1.
    9900012    2    1    2    0    0  0.18129231140E+02  0.43908741868E+01 -0.16523428326E+01  0.72461573895E+02  0.70000004690E+02 0.  0.
         12    1    1    2    0    0 -0.18129231140E+02 -0.43908741868E+01  0.16523428326E+01  0.18726426105E+02  0.00000000000E+00 0. -1.
         11    1    3    3    0    0  0.22674544369E+01  0.24693598753E+02 -0.20847572375E+02  0.32396549865E+02  0.51100000000E-03 0. -1.
        -11    1    3    3    0    0  0.22441710425E+01 -0.15120036866E+02 -0.82043589847E+00  0.15307675650E+02  0.51100000000E-03 0.  1.
        -12    1    3    3    0    0  0.13617605660E+02 -0.51826877003E+01  0.20015665441E+02  0.24757348379E+02  0.00000000000E+00 0.  1.
</event>
<event>
 7    1  0.2153242E-013  0.7246155E+02  0.7816164E-02  0.1226708E+00
        -11   -1    0    0    0    0  0.00000000000E+00  0.00000000000E+00  0.45593999997E+02  0.45594000000E+02  0.51100000000E-03 0.  1.
         11   -1    0    0    0    0 -0.00000000000E+00 -0.00000000000E+00 -0.45593999997E+02  0.45594000000E+02  0.51100000000E-03 0. -1.
    9900012    2    1    2    0    0 -0.83377520635E+01 -0.16586040789E+02  0.24627017070E+01  0.72461554576E+02  0.69999979524E+02 0.  0.
         12    1    1    2    0    0  0.83377520635E+01  0.16586040789E+02 -0.24627017070E+01  0.18726445424E+02  0.00000000000E+00 0. -1.
         11    1    3    3    0    0 -0.10933037588E+02 -0.37532372742E+01 -0.18569828641E+02  0.21873651661E+02  0.51100000000E-03 0. -1.
        -11    1    3    3    0    0 -0.29891957892E+01 -0.20209246561E+02 -0.65831494072E+01  0.21463615595E+02  0.51100000000E-03 0.  1.
        -12    1    3    3    0    0  0.55844813140E+01  0.73764430465E+01  0.27615679755E+02  0.29124287320E+02  0.00000000000E+00 0.  1.
</event>
<event>
 7    1  0.2153242E-013  0.7246144E+02  0.7816164E-02  0.1226708E+00
        -11   -1    0    0    0    0  0.00000000000E+00  0.00000000000E+00  0.45593999997E+02  0.45594000000E+02  0.51100000000E-03 0. -1.
         11   -1    0    0    0    0 -0.00000000000E+00 -0.00000000000E+00 -0.45593999997E+02  0.45594000000E+02  0.51100000000E-03 0.  1.
    9900012    2    1    2    0    0  0.12911118732E+02  0.52257784653E+01 -0.12517124499E+02  0.72461437229E+02  0.69999826658E+02 0.  0.
         12    1    1    2    0    0 -0.12911118732E+02 -0.52257784653E+01  0.12517124499E+02  0.18726562771E+02  0.00000000000E+00 0. -1.
         11    1    3    3    0    0  0.93398647338E+01 -0.84905083573E+01  0.88655436140E+01  0.15424644866E+02  0.51100000000E-03 0. -1.
        -11    1    3    3    0    0  0.24668471163E+02  0.14804377712E+02 -0.28074821898E+01  0.28906487602E+02  0.51100000000E-03 0.  1.
        -12    1    3    3    0    0 -0.21097217165E+02 -0.10880908888E+01 -0.18575185923E+02  0.28130304762E+02  0.00000000000E+00 0.  1.
</event>
<event>
 7    1  0.2153242E-013  0.7246157E+02  0.7816164E-02  0.1226708E+00
        -11   -1    0    0    0    0  0.00000000000E+00  0.00000000000E+00  0.45593999997E+02  0.45594000000E+02  0.51100000000E-03 0.  1.
         11   -1    0    0    0    0 -0.00000000000E+00 -0.00000000000E+00 -0.45593999997E+02  0.45594000000E+02  0.51100000000E-03 0. -1.
    9900012    2    1    2    0    0 -0.15108975670E+02 -0.11058769495E+02  0.31853815826E+00  0.72461574951E+02  0.70000006066E+02 0.  0.
         12    1    1    2    0    0  0.15108975670E+02  0.11058769495E+02 -0.31853815826E+00  0.18726425049E+02  0.00000000000E+00 0. -1.
         11    1    3    3    0    0  0.26664486953E+01 -0.48439489794E+00  0.20604547139E+01  0.34044178579E+01  0.51100000000E-03 0. -1.
        -11    1    3    3    0    0 -0.99372904043E+01 -0.36448484937E+02  0.10745437568E+02  0.39277299087E+02  0.51100000000E-03 0.  1.
         12    1    3    3    0    0 -0.78381339614E+01  0.25874110340E+02 -0.12487354124E+02  0.29779858006E+02  0.00000000000E+00 0. -1.
</event>
<event>
 7    1  0.2153242E-013  0.7246146E+02  0.7816164E-02  0.1226708E+00
        -11   -1    0    0    0    0  0.00000000000E+00  0.00000000000E+00  0.45593999997E+02  0.45594000000E+02  0.51100000000E-03 0. -1.
         11   -1    0    0    0    0 -0.00000000000E+00 -0.00000000000E+00 -0.45593999997E+02  0.45594000000E+02  0.51100000000E-03 0.  1.
    9900012    2    1    2    0    0 -0.86500644530E+01  0.11636260428E+02 -0.11851464942E+02  0.72461457525E+02  0.69999853097E+02 0.  0.
         12    1    1    2    0    0  0.86500644530E+01 -0.11636260428E+02  0.11851464942E+02  0.18726542475E+02  0.00000000000E+00 0. -1.
         11    1    3    3    0    0  0.18904850360E+01 -0.16431401171E+01  0.88686561887E+00  0.26571364291E+01  0.51100000000E-03 0. -1.
        -11    1    3    3    0    0  0.20052465868E+02 -0.15796770063E+02 -0.10302987158E+02  0.27528001680E+02  0.51100000000E-03 0.  1.
         12    1    3    3    0    0 -0.30593015357E+02  0.29076170609E+02 -0.24353434029E+01  0.42276319417E+02  0.00000000000E+00 0. -1.
</event>
<event>
 7    1  0.2153242E-013  0.7246157E+02  0.7816164E-02  0.1226708E+00
        -11   -1    0    0    0    0  0.00000000000E+00  0.00000000000E+00  0.45593999997E+02  0.45594000000E+02  0.51100000000E-03 0.  1.
         11   -1    0    0    0    0 -0.00000000000E+00 -0.00000000000E+00 -0.45593999997E+02  0.45594000000E+02  0.51100000000E-03 0. -1.
    9900012    2    1    2    0    0  0.37134432958E+01  0.12856272788E+02  0.13099834909E+02  0.72461572531E+02  0.70000002914E+02 0.  0.
         12    1    1    2    0    0 -0.37134432958E+01 -0.12856272788E+02 -0.13099834909E+02  0.18726427469E+02  0.00000000000E+00 0. -1.
         11    1    3    3    0    0 -0.70116045086E+01 -0.10777969287E+02  0.10049994183E+02  0.16319607933E+02  0.51100000000E-03 0. -1.
        -11    1    3    3    0    0 -0.66972313058E+01  0.19687434759E+02  0.21880459483E+02  0.30186130955E+02  0.51100000000E-03 0.  1.
         12    1    3    3    0    0  0.17422279110E+02  0.39468073158E+01 -0.18830618757E+02  0.25955833644E+02  0.00000000000E+00 0. -1.
</event>
<event>
 7    1  0.2153242E-013  0.7246156E+02  0.7816164E-02  0.1226708E+00
        -11   -1    0    0    0    0  0.00000000000E+00  0.00000000000E+00  0.45593999997E+02  0.45594000000E+02  0.51100000000E-03 0.  1.
         11   -1    0    0    0    0 -0.00000000000E+00 -0.00000000000E+00 -0.45593999997E+02  0.45594000000E+02  0.51100000000E-03 0. -1.
    9900012    2    1    2    0    0  0.11712584335E+02 -0.72887032428E+01  0.12663711231E+02  0.72461563903E+02  0.69999991674E+02 0.  0.
         12    1    1    2    0    0 -0.11712584335E+02  0.72887032428E+01 -0.12663711231E+02  0.18726436097E+02  0.00000000000E+00 0. -1.
         11    1    3    3    0    0  0.16396304569E+01 -0.32690604649E+01  0.20405401464E+02  0.20730546388E+02  0.51100000000E-03 0. -1.
        -11    1    3    3    0    0  0.71531484485E+01  0.13951815679E+02  0.15607138331E+02  0.22122465066E+02  0.51100000000E-03 0.  1.
         12    1    3    3    0    0  0.29198054291E+01 -0.17971458457E+02 -0.23348828564E+02  0.29608552449E+02  0.00000000000E+00 0. -1.
</event>
<event>
 7    1  0.2153242E-013  0.7246150E+02  0.7816164E-02  0.1226708E+00
        -11   -1    0    0    0    0  0.00000000000E+00  0.00000000000E+00  0.45593999997E+02  0.45594000000E+02  0.51100000000E-03 0. -1.
         11   -1    0    0    0    0 -0.00000000000E+00 -0.00000000000E+00 -0.45593999997E+02  0.45594000000E+02  0.51100000000E-03 0.  1.
    9900012    2    1    2    0    0 -0.22546340390E+01  0.14383376395E+02  0.11777806993E+02  0.72461504633E+02  0.69999914464E+02 0.  0.
         12    1    1    2    0    0  0.22546340390E+01 -0.14383376395E+02 -0.11777806993E+02  0.18726495367E+02  0.00000000000E+00 0. -1.
         11    1    3    3    0    0  0.11902249522E+02 -0.50867567050E+01 -0.10622536294E+01  0.12987186781E+02  0.51100000000E-03 0. -1.
        -11    1    3    3    0    0  0.12208259787E+02 -0.11798670325E+02  0.15755612517E+01  0.17050883320E+02  0.51100000000E-03 0.  1.
        -12    1    3    3    0    0 -0.26365143348E+02  0.31268803426E+02  0.11264499370E+02  0.42423434532E+02  0.00000000000E+00 0.  1.
</event>
<event>
 7    1  0.2153242E-013  0.7246162E+02  0.7816164E-02  0.1226708E+00
        -11   -1    0    0    0    0  0.00000000000E+00  0.00000000000E+00  0.45593999997E+02  0.45594000000E+02  0.51100000000E-03 0.  1.
         11   -1    0    0    0    0 -0.00000000000E+00 -0.00000000000E+00 -0.45593999997E+02  0.45594000000E+02  0.51100000000E-03 0. -1.
    9900012    2    1    2    0    0  0.69502109726E+00 -0.85576695419E+01  0.16642135302E+02  0.72461616747E+02  0.70000060513E+02 0.  0.
         12    1    1    2    0    0 -0.69502109726E+00  0.85576695419E+01 -0.16642135302E+02  0.18726383253E+02  0.00000000000E+00 0. -1.
         11    1    3    3    0    0 -0.45342335239E+01 -0.95859436821E+00 -0.15104128370E+02  0.15799141461E+02  0.51100000000E-03 0. -1.
        -11    1    3    3    0    0 -0.22777396145E+01  0.18976729827E+02  0.15614214103E+02  0.24680114566E+02  0.51100000000E-03 0.  1.
         12    1    3    3    0    0  0.75069942356E+01 -0.26575805001E+02  0.16132049569E+02  0.31982360720E+02  0.00000000000E+00 0. -1.
</event>
<event>
 7    1  0.2153242E-013  0.7246168E+02  0.7816164E-02  0.1226708E+00
        -11   -1    0    0    0    0  0.00000000000E+00  0.00000000000E+00  0.45593999997E+02  0.45594000000E+02  0.51100000000E-03 0.  1.
         11   -1    0    0    0    0 -0.00000000000E+00 -0.00000000000E+00 -0.45593999997E+02  0.45594000000E+02  0.51100000000E-03 0. -1.
    9900012    2    1    2    0    0  0.17177045624E+02 -0.55957606478E+01 -0.49306777295E+01  0.72461681182E+02  0.70000144451E+02 0.  0.
         12    1    1    2    0    0 -0.17177045624E+02  0.55957606478E+01  0.49306777295E+01  0.18726318818E+02  0.00000000000E+00 0. -1.
         11    1    3    3    0    0  0.17174718542E+02 -0.25468781783E+02 -0.37446914507E+01  0.30945961236E+02  0.51100000000E-03 0. -1.
        -11    1    3    3    0    0  0.14397448068E+02 -0.19100057379E+01  0.36185609196E+01  0.14967585516E+02  0.51100000000E-03 0.  1.
        -12    1    3    3    0    0 -0.14395120985E+02  0.21783026873E+02 -0.48045471984E+01  0.26548134430E+02  0.00000000000E+00 0.  1.
</event>
<event>
 7    1  0.2153242E-013  0.7246163E+02  0.7816164E-02  0.1226708E+00
        -11   -1    0    0    0    0  0.00000000000E+00  0.00000000000E+00  0.45593999997E+02  0.45594000000E+02  0.51100000000E-03 0. -1.
         11   -1    0    0    0    0 -0.00000000000E+00 -0.00000000000E+00 -0.45593999997E+02  0.45594000000E+02  0.51100000000E-03 0.  1.
    9900012    2    1    2    0    0  0.16388638167E+02  0.71062017440E+01  0.56206165612E+01  0.72461631032E+02  0.70000079123E+02 0.  0.
         12    1    1    2    0    0 -0.16388638167E+02 -0.71062017440E+01 -0.56206165612E+01  0.18726368968E+02  0.00000000000E+00 0. -1.
         11    1    3    3    0    0 -0.16900186690E+02  0.15117813246E+02  0.13554096467E+02  0.26417382891E+02  0.51100000000E-03 0. -1.
        -11    1    3    3    0    0  0.95053964557E+01  0.43996541993E+01  0.94255015538E+01  0.14090762884E+02  0.51100000000E-03 0.  1.
        -12    1    3    3    0    0  0.23783428401E+02 -0.12411265701E+02 -0.17358981459E+02  0.31953485258E+02  0.00000000000E+00 0.  1.
</event>
<event>
 7    1  0.2153242E-013  0.7246156E+02  0.7816164E-02  0.1226708E+00
        -11   -1    0    0    0    0  0.00000000000E+00  0.00000000000E+00  0.45593999997E+02  0.45594000000E+02  0.51100000000E-03 0. -1.
         11   -1    0    0    0    0 -0.00000000000E+00 -0.00000000000E+00 -0.45593999997E+02  0.45594000000E+02  0.51100000000E-03 0.  1.
    9900012    2    1    2    0    0  0.10131331047E+02 -0.15748736548E+02 -0.11356585392E+00  0.72461562302E+02  0.69999989589E+02 0.  0.
         12    1    1    2    0    0 -0.10131331047E+02  0.15748736548E+02  0.11356585392E+00  0.18726437698E+02  0.00000000000E+00 0. -1.
         11    1    3    3    0    0  0.13940401977E+02  0.25611741618E+01  0.29164928907E+02  0.32426647973E+02  0.51100000000E-03 0. -1.
        -11    1    3    3    0    0 -0.14149476010E+01 -0.12132484609E+02 -0.25245493352E+01  0.12472874934E+02  0.51100000000E-03 0.  1.
        -12    1    3    3    0    0 -0.23941233288E+01 -0.61774261007E+01 -0.26753945426E+02  0.27562039395E+02  0.00000000000E+00 0.  1.
</event>
<event>
 7    1  0.2153242E-013  0.7246160E+02  0.7816164E-02  0.1226708E+00
        -11   -1    0    0    0    0  0.00000000000E+00  0.00000000000E+00  0.45593999997E+02  0.45594000000E+02  0.51100000000E-03 0. -1.
         11   -1    0    0    0    0 -0.00000000000E+00 -0.00000000000E+00 -0.45593999997E+02  0.45594000000E+02  0.51100000000E-03 0.  1.
    9900012    2    1    2    0    0  0.11499213835E+02  0.14643603872E+02 -0.20027135080E+01  0.72461603802E+02  0.70000043650E+02 0.  0.
         12    1    1    2    0    0 -0.11499213835E+02 -0.14643603872E+02  0.20027135080E+01  0.18726396198E+02  0.00000000000E+00 0. -1.
         11    1    3    3    0    0 -0.19840776519E+02  0.66098797818E+01 -0.16718259604E+02  0.26774000972E+02  0.51100000000E-03 0. -1.
        -11    1    3    3    0    0 -0.49026640189E+01  0.23476346982E+01  0.57690311168E+01  0.79264887211E+01  0.51100000000E-03 0.  1.
        -12    1    3    3    0    0  0.36242654372E+02  0.56860893917E+01  0.89465149791E+01  0.37761114109E+02  0.00000000000E+00 0.  1.
</event>
<event>
 7    1  0.2153242E-013  0.7246155E+02  0.7816164E-02  0.1226708E+00
        -11   -1    0    0    0    0  0.00000000000E+00  0.00000000000E+00  0.45593999997E+02  0.45594000000E+02  0.51100000000E-03 0.  1.
         11   -1    0    0    0    0 -0.00000000000E+00 -0.00000000000E+00 -0.45593999997E+02  0.45594000000E+02  0.51100000000E-03 0. -1.
    9900012    2    1    2    0    0  0.47782683237E+01  0.17116015879E+02  0.59067802154E+01  0.72461550784E+02  0.69999974584E+02 0.  0.
         12    1    1    2    0    0 -0.47782683237E+01 -0.17116015879E+02 -0.59067802154E+01  0.18726449216E+02  0.00000000000E+00 0. -1.
         11    1    3    3    0    0  0.14804744586E+02  0.14320894371E+02 -0.33947209054E+00  0.20600575706E+02  0.51100000000E-03 0. -1.
        -11    1    3    3    0    0  0.11465361116E+01  0.99330920901E+01  0.26121175294E+02  0.27969566720E+02  0.51100000000E-03 0.  1.
         12    1    3    3    0    0 -0.11173012374E+02 -0.71379705823E+01 -0.19874922988E+02  0.23891408358E+02  0.00000000000E+00 0. -1.
</event>
<event>
 7    1  0.2153242E-013  0.7246159E+02  0.7816164E-02  0.1226708E+00
        -11   -1    0    0    0    0  0.00000000000E+00  0.00000000000E+00  0.45593999997E+02  0.45594000000E+02  0.51100000000E-03 0. -1.
         11   -1    0    0    0    0 -0.00000000000E+00 -0.00000000000E+00 -0.45593999997E+02  0.45594000000E+02  0.51100000000E-03 0.  1.
    9900012    2    1    2    0    0 -0.13296016737E+01  0.16679418841E+02 -0.84087861280E+01  0.72461587166E+02  0.70000021979E+02 0.  0.
         12    1    1    2    0    0  0.13296016737E+01 -0.16679418841E+02  0.84087861280E+01  0.18726412834E+02  0.00000000000E+00 0. -1.
         11    1    3    3    0    0 -0.67791564641E+01  0.10087995185E+01 -0.87346345059E+01  0.11102633879E+02  0.51100000000E-03 0. -1.
        -11    1    3    3    0    0  0.21973643597E+02  0.29879602012E+02  0.85559230416E+01  0.38063571150E+02  0.51100000000E-03 0.  1.
         12    1    3    3    0    0 -0.16524088806E+02 -0.14208982690E+02 -0.82300746637E+01  0.23295382138E+02  0.00000000000E+00 0. -1.
</event>
<event>
 7    1  0.2153242E-013  0.7246158E+02  0.7816164E-02  0.1226708E+00
        -11   -1    0    0    0    0  0.00000000000E+00  0.00000000000E+00  0.45593999997E+02  0.45594000000E+02  0.51100000000E-03 0.  1.
         11   -1    0    0    0    0 -0.00000000000E+00 -0.00000000000E+00 -0.45593999997E+02  0.45594000000E+02  0.51100000000E-03 0. -1.
    9900012    2    1    2    0    0  0.17165539513E+02 -0.55274656496E+01 -0.50468010933E+01  0.72461579505E+02  0.70000011999E+02 0.  0.
         12    1    1    2    0    0 -0.17165539513E+02  0.55274656496E+01  0.50468010933E+01  0.18726420495E+02  0.00000000000E+00 0. -1.
         11    1    3    3    0    0 -0.76332027326E+01  0.52109421367E+01 -0.14234858216E+02  0.16972062061E+02  0.51100000000E-03 0. -1.
        -11    1    3    3    0    0  0.11811801828E+01  0.54055235381E+01  0.23046641343E+02  0.23701530516E+02  0.51100000000E-03 0.  1.
         12    1    3    3    0    0  0.23617562062E+02 -0.16143931324E+02 -0.13858584221E+02  0.31787986929E+02  0.00000000000E+00 0. -1.
</event>
<event>
 7    1  0.2153242E-013  0.7246154E+02  0.7816164E-02  0.1226708E+00
        -11   -1    0    0    0    0  0.00000000000E+00  0.00000000000E+00  0.45593999997E+02  0.45594000000E+02  0.51100000000E-03 0. -1.
         11   -1    0    0    0    0 -0.00000000000E+00 -0.00000000000E+00 -0.45593999997E+02  0.45594000000E+02  0.51100000000E-03 0.  1.
    9900012    2    1    2    0    0 -0.18225767077E+02 -0.38357664827E+01 -0.19464624432E+01  0.72461537277E+02  0.69999956989E+02 0.  0.
         12    1    1    2    0    0  0.18225767077E+02  0.38357664827E+01  0.19464624432E+01  0.18726462723E+02  0.00000000000E+00 0. -1.
         11    1    3    3    0    0 -0.17806624652E+02 -0.34447252591E+01  0.10047476297E+02  0.20733880337E+02  0.51100000000E-03 0. -1.
        -11    1    3    3    0    0 -0.11124565451E+02 -0.21878910169E+01  0.17188906295E+02  0.20591292418E+02  0.51100000000E-03 0.  1.
        -12    1    3    3    0    0  0.10705423026E+02  0.17968497933E+01 -0.29182845035E+02  0.31136364523E+02  0.00000000000E+00 0.  1.
</event>
<event>
 7    1  0.2153242E-013  0.7246163E+02  0.7816164E-02  0.1226708E+00
        -11   -1    0    0    0    0  0.00000000000E+00  0.00000000000E+00  0.45593999997E+02  0.45594000000E+02  0.51100000000E-03 0.  1.
         11   -1    0    0    0    0 -0.00000000000E+00 -0.00000000000E+00 -0.45593999997E+02  0.45594000000E+02  0.51100000000E-03 0. -1.
    9900012    2    1    2    0    0  0.94849187710E-01  0.17582992191E+02  0.64425284860E+01  0.72461633987E+02  0.70000082971E+02 0.  0.
         12    1    1    2    0    0 -0.94849187710E-01 -0.17582992191E+02 -0.64425284860E+01  0.18726366013E+02  0.00000000000E+00 0. -1.
         11    1    3    3    0    0  0.68452772576E+00  0.66622239658E+01  0.85217168770E+01  0.10838517665E+02  0.51100000000E-03 0. -1.
        -11    1    3    3    0    0 -0.13670382095E+02  0.14709983545E+02  0.24548007476E+02  0.31715416343E+02  0.51100000000E-03 0.  1.
         12    1    3    3    0    0  0.13080703557E+02 -0.37892153193E+01 -0.26627195867E+02  0.29907699979E+02  0.00000000000E+00 0. -1.
</event>
<event>
 7    1  0.2153242E-013  0.7246158E+02  0.7816164E-02  0.1226708E+00
        -11   -1    0    0    0    0  0.00000000000E+00  0.00000000000E+00  0.45593999997E+02  0.45594000000E+02  0.51100000000E-03 0.  1.
         11   -1    0    0    0    0 -0.00000000000E+00 -0.00000000000E+00 -0.45593999997E+02  0.45594000000E+02  0.51100000000E-03 0. -1.
    9900012    2    1    2    0    0 -0.40676539881E+00 -0.90063249468E+01  0.16413391575E+02  0.72461580958E+02  0.70000013892E+02 0.  0.
         12    1    1    2    0    0  0.40676539881E+00  0.90063249468E+01 -0.16413391575E+02  0.18726419042E+02  0.00000000000E+00 0. -1.
         11    1    3    3    0    0 -0.22691026678E+02  0.12213656082E+02  0.42489074962E+01  0.26117222321E+02  0.51100000000E-03 0. -1.
        -11    1    3    3    0    0 -0.77849041355E+01 -0.69495506533E+01 -0.11451592383E+01  0.10498208258E+02  0.51100000000E-03 0.  1.
        -12    1    3    3    0    0  0.30069165414E+02 -0.14270430376E+02  0.13309643317E+02  0.35846150380E+02  0.00000000000E+00 0.  1.
</event>
<event>
 7    1  0.2153242E-013  0.7246154E+02  0.7816164E-02  0.1226708E+00
        -11   -1    0    0    0    0  0.00000000000E+00  0.00000000000E+00  0.45593999997E+02  0.45594000000E+02  0.51100000000E-03 0.  1.
         11   -1    0    0    0    0 -0.00000000000E+00 -0.00000000000E+00 -0.45593999997E+02  0.45594000000E+02  0.51100000000E-03 0. -1.
    9900012    2    1    2    0    0 -0.81902318294E+01 -0.64632285062E+01  0.15550793997E+02  0.72461537064E+02  0.69999956712E+02 0.  0.
         12    1    1    2    0    0  0.81902318294E+01  0.64632285062E+01 -0.15550793997E+02  0.18726462936E+02  0.00000000000E+00 0. -1.
         11    1    3    3    0    0  0.97745369859E+01 -0.15880348528E+02 -0.47381860250E+01  0.19239996095E+02  0.51100000000E-03 0. -1.
        -11    1    3    3    0    0  0.61975620704E+01  0.21057449633E+02  0.12650381396E+02  0.25334918796E+02  0.51100000000E-03 0.  1.
         12    1    3    3    0    0 -0.24162330886E+02 -0.11640329611E+02  0.76385986263E+01  0.27886622174E+02  0.00000000000E+00 0. -1.
</event>
<event>
 7    1  0.2153242E-013  0.7246157E+02  0.7816164E-02  0.1226708E+00
        -11   -1    0    0    0    0  0.00000000000E+00  0.00000000000E+00  0.45593999997E+02  0.45594000000E+02  0.51100000000E-03 0.  1.
         11   -1    0    0    0    0 -0.00000000000E+00 -0.00000000000E+00 -0.45593999997E+02  0.45594000000E+02  0.51100000000E-03 0. -1.
    9900012    2    1    2    0    0  0.12844912645E+02 -0.53129376897E+01  0.12548304200E+02  0.72461574125E+02  0.70000004990E+02 0.  0.
         12    1    1    2    0    0 -0.12844912645E+02  0.53129376897E+01 -0.12548304200E+02  0.18726425875E+02  0.00000000000E+00 0. -1.
         11    1    3    3    0    0 -0.21308903551E+02  0.10166448441E+02 -0.10846206578E+02  0.25982036907E+02  0.51100000000E-03 0. -1.
        -11    1    3    3    0    0  0.61099714153E+01  0.22562788259E+01  0.13757467250E+01  0.66569680898E+01  0.51100000000E-03 0.  1.
        -12    1    3    3    0    0  0.28043844780E+02 -0.17735664957E+02  0.22018764053E+02  0.39822569128E+02  0.00000000000E+00 0.  1.
</event>
<event>
 7    1  0.2153242E-013  0.7246087E+02  0.7816164E-02  0.1226710E+00
        -11   -1    0    0    0    0  0.00000000000E+00  0.00000000000E+00  0.45593999997E+02  0.45594000000E+02  0.51100000000E-03 0.  1.
         11   -1    0    0    0    0 -0.00000000000E+00 -0.00000000000E+00 -0.45593999997E+02  0.45594000000E+02  0.51100000000E-03 0. -1.
    9900012    2    1    2    0    0  0.99115145702E+01 -0.72222259367E+01  0.14152978766E+02  0.72460867905E+02  0.69999085001E+02 0.  0.
         12    1    1    2    0    0 -0.99115145702E+01  0.72222259367E+01 -0.14152978766E+02  0.18727132095E+02  0.00000000000E+00 0. -1.
         11    1    3    3    0    0  0.15795477849E+01 -0.87543970399E+01 -0.14556084019E+02  0.17059133066E+02  0.51100000000E-03 0. -1.
        -11    1    3    3    0    0 -0.10659284616E+02  0.28244963043E+01 -0.82883150427E+01  0.13794719802E+02  0.51100000000E-03 0.  1.
        -12    1    3    3    0    0  0.18991251401E+02 -0.12923252011E+01  0.36997377828E+02  0.41607015037E+02  0.00000000000E+00 0.  1.
</event>
<event>
 7    1  0.2153242E-013  0.7246124E+02  0.7816164E-02  0.1226709E+00
        -11   -1    0    0    0    0  0.00000000000E+00  0.00000000000E+00  0.45593999997E+02  0.45594000000E+02  0.51100000000E-03 0. -1.
         11   -1    0    0    0    0 -0.00000000000E+00 -0.00000000000E+00 -0.45593999997E+02  0.45594000000E+02  0.51100000000E-03 0.  1.
    9900012    2    1    2    0    0  0.10993672170E+02  0.15147916793E+02  0.60932588362E+00  0.72461241365E+02  0.69999571507E+02 0.  0.
         12    1    1    2    0    0 -0.10993672170E+02 -0.15147916793E+02 -0.60932588362E+00  0.18726758635E+02  0.00000000000E+00 0. -1.
         11    1    3    3    0    0  0.12244755884E+01  0.66788504315E+00 -0.42666958327E+01  0.44888867760E+01  0.51100000000E-03 0. -1.
        -11    1    3    3    0    0 -0.25224394529E+02  0.10863275403E+02 -0.10730555324E+02  0.29486024650E+02  0.51100000000E-03 0.  1.
         12    1    3    3    0    0  0.34993591110E+02  0.36167563472E+01  0.15606577040E+02  0.38486329939E+02  0.00000000000E+00 0. -1.
</event>
<event>
 7    1  0.2153242E-013  0.7246154E+02  0.7816164E-02  0.1226708E+00
        -11   -1    0    0    0    0  0.00000000000E+00  0.00000000000E+00  0.45593999997E+02  0.45594000000E+02  0.51100000000E-03 0.  1.
         11   -1    0    0    0    0 -0.00000000000E+00 -0.00000000000E+00 -0.45593999997E+02  0.45594000000E+02  0.51100000000E-03 0. -1.
    9900012    2    1    2    0    0 -0.12659956990E+02 -0.47548847905E+01  0.12953638778E+02  0.72461542836E+02  0.69999964230E+02 0.  0.
         12    1    1    2    0    0  0.12659956990E+02  0.47548847905E+01 -0.12953638778E+02  0.18726457164E+02  0.00000000000E+00 0. -1.
         11    1    3    3    0    0  0.21252592040E+02  0.26562345247E+01 -0.93312392719E+01  0.23362368820E+02  0.51100000000E-03 0. -1.
        -11    1    3    3    0    0 -0.10080698324E+02  0.75854461923E+01 -0.86699267402E+00  0.12645598017E+02  0.51100000000E-03 0.  1.
        -12    1    3    3    0    0 -0.23831850706E+02 -0.14996565507E+02  0.23151870723E+02  0.36453575998E+02  0.00000000000E+00 0.  1.
</event>
<event>
 7    1  0.2153242E-013  0.7246151E+02  0.7816164E-02  0.1226708E+00
        -11   -1    0    0    0    0  0.00000000000E+00  0.00000000000E+00  0.45593999997E+02  0.45594000000E+02  0.51100000000E-03 0.  1.
         11   -1    0    0    0    0 -0.00000000000E+00 -0.00000000000E+00 -0.45593999997E+02  0.45594000000E+02  0.51100000000E-03 0. -1.
    9900012    2    1    2    0    0 -0.11073174191E+02  0.11734893102E+01  0.15056203914E+02  0.72461506999E+02  0.69999917546E+02 0.  0.
         12    1    1    2    0    0  0.11073174191E+02 -0.11734893102E+01 -0.15056203914E+02  0.18726493001E+02  0.00000000000E+00 0. -1.
         11    1    3    3    0    0 -0.58310095247E+01 -0.87954465860E+01 -0.15907691273E+02  0.19089661983E+02  0.51100000000E-03 0. -1.
        -11    1    3    3    0    0 -0.22584426538E+02  0.10163653980E+02  0.11511559293E+02  0.27310660590E+02  0.51100000000E-03 0.  1.
        -12    1    3    3    0    0  0.17342261871E+02 -0.19471808383E+00  0.19452335894E+02  0.26061184425E+02  0.00000000000E+00 0.  1.
</event>
<event>
 7    1  0.2153242E-013  0.7246156E+02  0.7816164E-02  0.1226708E+00
        -11   -1    0    0    0    0  0.00000000000E+00  0.00000000000E+00  0.45593999997E+02  0.45594000000E+02  0.51100000000E-03 0.  1.
         11   -1    0    0    0    0 -0.00000000000E+00 -0.00000000000E+00 -0.45593999997E+02  0.45594000000E+02  0.51100000000E-03 0. -1.
    9900012    2    1    2    0    0 -0.26039243219E+01  0.15209166145E+02 -0.10610385049E+02  0.72461563404E+02  0.69999991024E+02 0.  0.
         12    1    1    2    0    0  0.26039243219E+01 -0.15209166145E+02  0.10610385049E+02  0.18726436596E+02  0.00000000000E+00 0. -1.
         11    1    3    3    0    0  0.21574570178E+00  0.25420437126E+02  0.30836908329E+01  0.25607700391E+02  0.51100000000E-03 0. -1.
        -11    1    3    3    0    0  0.16175478902E+02  0.83637530671E+01 -0.47235166411E+01  0.18812498314E+02  0.51100000000E-03 0.  1.
        -12    1    3    3    0    0 -0.18995148926E+02 -0.18575024048E+02 -0.89705592408E+01  0.28041364699E+02  0.00000000000E+00 0.  1.
</event>
<event>
 7    1  0.2153242E-013  0.7246160E+02  0.7816164E-02  0.1226708E+00
        -11   -1    0    0    0    0  0.00000000000E+00  0.00000000000E+00  0.45593999997E+02  0.45594000000E+02  0.51100000000E-03 0. -1.
         11   -1    0    0    0    0 -0.00000000000E+00 -0.00000000000E+00 -0.45593999997E+02  0.45594000000E+02  0.51100000000E-03 0.  1.
    9900012    2    1    2    0    0 -0.24466624051E+01 -0.15839223830E+02 -0.96856028157E+01  0.72461599642E+02  0.70000038231E+02 0.  0.
         12    1    1    2    0    0  0.24466624051E+01  0.15839223830E+02  0.96856028157E+01  0.18726400358E+02  0.00000000000E+00 0. -1.
         11    1    3    3    0    0 -0.19234982343E+02 -0.10505042858E+02  0.92008918118E+00  0.21935975828E+02  0.51100000000E-03 0. -1.
        -11    1    3    3    0    0  0.23627635387E+02 -0.20781502313E+02 -0.19075017029E+01  0.31524190004E+02  0.51100000000E-03 0.  1.
         12    1    3    3    0    0 -0.68393154497E+01  0.15447321342E+02 -0.86981902940E+01  0.19001433810E+02  0.00000000000E+00 0. -1.
</event>
<event>
 7    1  0.2153242E-013  0.7246154E+02  0.7816164E-02  0.1226708E+00
        -11   -1    0    0    0    0  0.00000000000E+00  0.00000000000E+00  0.45593999997E+02  0.45594000000E+02  0.51100000000E-03 0.  1.
         11   -1    0    0    0    0 -0.00000000000E+00 -0.00000000000E+00 -0.45593999997E+02  0.45594000000E+02  0.51100000000E-03 0. -1.
    9900012    2    1    2    0    0 -0.79716807350E+01 -0.18149126921E+01  0.16847509664E+02  0.72461543216E+02  0.69999964725E+02 0.  0.
         12    1    1    2    0    0  0.79716807350E+01  0.18149126921E+01 -0.16847509664E+02  0.18726456784E+02  0.00000000000E+00 0. -1.
         11    1    3    3    0    0 -0.13863031121E+02 -0.13756059175E+02 -0.25401576265E+01  0.19694293511E+02  0.51100000000E-03 0. -1.
        -11    1    3    3    0    0 -0.18511596477E+02  0.15800214526E+02  0.10581617598E+02  0.26538587273E+02  0.51100000000E-03 0.  1.
         12    1    3    3    0    0  0.24402946863E+02 -0.38590680429E+01  0.88060496922E+01  0.26228662431E+02  0.00000000000E+00 0. -1.
</event>
<event>
 7    1  0.2153242E-013  0.7246157E+02  0.7816164E-02  0.1226708E+00
        -11   -1    0    0    0    0  0.00000000000E+00  0.00000000000E+00  0.45593999997E+02  0.45594000000E+02  0.51100000000E-03 0.  1.
         11   -1    0    0    0    0 -0.00000000000E+00 -0.00000000000E+00 -0.45593999997E+02  0.45594000000E+02  0.51100000000E-03 0. -1.
    9900012    2    1    2    0    0  0.89510488172E+01  0.61065467056E+00  0.16437307132E+02  0.72461568418E+02  0.69999997555E+02 0.  0.
         12    1    1    2    0    0 -0.89510488172E+01 -0.61065467056E+00 -0.16437307132E+02  0.18726431582E+02  0.00000000000E+00 0. -1.
         11    1    3    3    0    0  0.15060302357E+02  0.98987056327E+01  0.17587030046E+02  0.25181356325E+02  0.51100000000E-03 0. -1.
        -11    1    3    3    0    0 -0.22509023513E+02  0.63066589517E+01 -0.60044099615E+01  0.24134685121E+02  0.51100000000E-03 0.  1.
         12    1    3    3    0    0  0.16399769973E+02 -0.15594709914E+02  0.48546870480E+01  0.23145526972E+02  0.00000000000E+00 0. -1.
</event>
<event>
 7    1  0.3375438E-013  0.7246154E+02  0.7816164E-02  0.1226708E+00
        -11   -1    0    0    0    0  0.00000000000E+00  0.00000000000E+00  0.45593999997E+02  0.45594000000E+02  0.51100000000E-03 0. -1.
         11   -1    0    0    0    0 -0.00000000000E+00 -0.00000000000E+00 -0.45593999997E+02  0.45594000000E+02  0.51100000000E-03 0.  1.
    9900012    2    1    2    0    0 -0.13927935437E+02 -0.58033756938E+01 -0.11091159380E+02  0.72461538204E+02  0.69999958197E+02 0.  0.
         12    1    1    2    0    0  0.13927935437E+02  0.58033756938E+01  0.11091159380E+02  0.18726461796E+02  0.00000000000E+00 0. -1.
         11    1    3    3    0    0  0.98120774440E+01 -0.74330633237E+00  0.23902746518E+01  0.10126340960E+02  0.51100000000E-03 0. -1.
        -11    1    3    3    0    0 -0.38691885550E+01 -0.27718422185E+02 -0.15746803871E+02  0.32112978388E+02  0.51100000000E-03 0.  1.
         12    1    3    3    0    0 -0.19870824326E+02  0.22658352824E+02  0.22653698390E+01  0.30222218856E+02  0.00000000000E+00 0. -1.
</event>
<event>
 7    1  0.2153242E-013  0.7246142E+02  0.7816164E-02  0.1226708E+00
        -11   -1    0    0    0    0  0.00000000000E+00  0.00000000000E+00  0.45593999997E+02  0.45594000000E+02  0.51100000000E-03 0.  1.
         11   -1    0    0    0    0 -0.00000000000E+00 -0.00000000000E+00 -0.45593999997E+02  0.45594000000E+02  0.51100000000E-03 0. -1.
    9900012    2    1    2    0    0 -0.44093148234E+01  0.81295242308E+01  0.16283539432E+02  0.72461417881E+02  0.69999801453E+02 0.  0.
         12    1    1    2    0    0  0.44093148234E+01 -0.81295242308E+01 -0.16283539432E+02  0.18726582119E+02  0.00000000000E+00 0. -1.
         11    1    3    3    0    0 -0.32749060683E+01  0.39825391897E+00  0.30193301342E+02  0.30372998899E+02  0.51100000000E-03 0. -1.
        -11    1    3    3    0    0 -0.13927611887E+02 -0.74832084233E+01  0.28770408724E+01  0.16070287665E+02  0.51100000000E-03 0.  1.
        -12    1    3    3    0    0  0.12793203132E+02  0.15214478735E+02 -0.16786802783E+02  0.26018131317E+02  0.00000000000E+00 0.  1.
</event>
<event>
 7    1  0.2153242E-013  0.7246155E+02  0.7816164E-02  0.1226708E+00
        -11   -1    0    0    0    0  0.00000000000E+00  0.00000000000E+00  0.45593999997E+02  0.45594000000E+02  0.51100000000E-03 0.  1.
         11   -1    0    0    0    0 -0.00000000000E+00 -0.00000000000E+00 -0.45593999997E+02  0.45594000000E+02  0.51100000000E-03 0. -1.
    9900012    2    1    2    0    0  0.75837329097E+01  0.77456232270E+01  0.15269984377E+02  0.72461545266E+02  0.69999967396E+02 0.  0.
         12    1    1    2    0    0 -0.75837329097E+01 -0.77456232270E+01 -0.15269984377E+02  0.18726454734E+02  0.00000000000E+00 0. -1.
         11    1    3    3    0    0  0.18878217542E+01  0.11508353449E+02  0.23727014884E+02  0.26438178940E+02  0.51100000000E-03 0.  1.
        -11    1    3    3    0    0  0.23597463385E+02  0.40043370980E+01 -0.11005386641E+02  0.26343756930E+02  0.51100000000E-03 0. -1.
        -12    1    3    3    0    0 -0.17901552230E+02 -0.77670673204E+01  0.25483561339E+01  0.19679609396E+02  0.00000000000E+00 0.  1.
</event>
<event>
 7    1  0.2153242E-013  0.7246159E+02  0.7816164E-02  0.1226708E+00
        -11   -1    0    0    0    0  0.00000000000E+00  0.00000000000E+00  0.45593999997E+02  0.45594000000E+02  0.51100000000E-03 0.  1.
         11   -1    0    0    0    0 -0.00000000000E+00 -0.00000000000E+00 -0.45593999997E+02  0.45594000000E+02  0.51100000000E-03 0. -1.
    9900012    2    1    2    0    0  0.14420086733E+02  0.11216991037E+02  0.41132232012E+01  0.72461590990E+02  0.70000026960E+02 0.  0.
         12    1    1    2    0    0 -0.14420086733E+02 -0.11216991037E+02 -0.41132232012E+01  0.18726409010E+02  0.00000000000E+00 0. -1.
         11    1    3    3    0    0  0.14709611416E+01 -0.17312887353E+01 -0.27913935923E+00  0.22888875919E+01  0.51100000000E-03 0. -1.
        -11    1    3    3    0    0  0.36491319705E+02  0.19110352256E+01  0.18101301996E+02  0.40778984829E+02  0.51100000000E-03 0.  1.
         12    1    3    3    0    0 -0.23542194114E+02  0.11037244547E+02 -0.13708939435E+02  0.29393718569E+02  0.00000000000E+00 0. -1.
</event>
<event>
 7    1  0.2153242E-013  0.7246150E+02  0.7816164E-02  0.1226708E+00
        -11   -1    0    0    0    0  0.00000000000E+00  0.00000000000E+00  0.45593999997E+02  0.45594000000E+02  0.51100000000E-03 0.  1.
         11   -1    0    0    0    0 -0.00000000000E+00 -0.00000000000E+00 -0.45593999997E+02  0.45594000000E+02  0.51100000000E-03 0. -1.
    9900012    2    1    2    0    0  0.31024405347E+01  0.42368779782E+01  0.17975139769E+02  0.72461496803E+02  0.69999904263E+02 0.  0.
         12    1    1    2    0    0 -0.31024405347E+01 -0.42368779782E+01 -0.17975139769E+02  0.18726503197E+02  0.00000000000E+00 0. -1.
         11    1    3    3    0    0 -0.13461232064E+02  0.13571732371E+02 -0.19041476336E+02  0.26981002753E+02  0.51100000000E-03 0. -1.
        -11    1    3    3    0    0  0.10331802745E+02  0.42959865664E+01  0.12802118559E+02  0.17002820014E+02  0.51100000000E-03 0.  1.
        -12    1    3    3    0    0  0.62318698536E+01 -0.13630840959E+02  0.24214497546E+02  0.28477674036E+02  0.00000000000E+00 0.  1.
</event>
<event>
 7    1  0.2153242E-013  0.7246154E+02  0.7816164E-02  0.1226708E+00
        -11   -1    0    0    0    0  0.00000000000E+00  0.00000000000E+00  0.45593999997E+02  0.45594000000E+02  0.51100000000E-03 0. -1.
         11   -1    0    0    0    0 -0.00000000000E+00 -0.00000000000E+00 -0.45593999997E+02  0.45594000000E+02  0.51100000000E-03 0.  1.
    9900012    2    1    2    0    0 -0.88333811695E+00 -0.12738155250E+02 -0.13698156311E+02  0.72461538195E+02  0.69999958185E+02 0.  0.
         12    1    1    2    0    0  0.88333811695E+00  0.12738155250E+02  0.13698156311E+02  0.18726461805E+02  0.00000000000E+00 0. -1.
         11    1    3    3    0    0  0.53440288850E+01  0.15344379077E+02  0.16286882287E+02  0.23005893785E+02  0.51100000000E-03 0. -1.
        -11    1    3    3    0    0  0.10595152348E+02 -0.95099340272E+01 -0.11844456889E+02  0.18519915165E+02  0.51100000000E-03 0.  1.
        -12    1    3    3    0    0 -0.16822519350E+02 -0.18572600299E+02 -0.18140581709E+02  0.30935729244E+02  0.00000000000E+00 0.  1.
</event>
<event>
 7    1  0.2408250E-013  0.7246158E+02  0.7816164E-02  0.1226708E+00
        -11   -1    0    0    0    0  0.00000000000E+00  0.00000000000E+00  0.45593999997E+02  0.45594000000E+02  0.51100000000E-03 0. -1.
         11   -1    0    0    0    0 -0.00000000000E+00 -0.00000000000E+00 -0.45593999997E+02  0.45594000000E+02  0.51100000000E-03 0.  1.
    9900012    2    1    2    0    0  0.25427918381E+01 -0.87994319944E+01 -0.16333495658E+02  0.72461578181E+02  0.70000010273E+02 0.  0.
         12    1    1    2    0    0 -0.25427918381E+01  0.87994319944E+01  0.16333495658E+02  0.18726421819E+02  0.00000000000E+00 0. -1.
         11    1    3    3    0    0  0.64550591849E+01 -0.60490666480E+01  0.68337076606E+01  0.11178486349E+02  0.51100000000E-03 0. -1.
        -11    1    3    3    0    0 -0.27738879147E+02 -0.99416094006E+01 -0.37249955691E+01  0.29701121293E+02  0.51100000000E-03 0.  1.
         12    1    3    3    0    0  0.23826611801E+02  0.71912440542E+01 -0.19442207749E+02  0.31581970539E+02  0.00000000000E+00 0. -1.
</event>
<event>
 7    1  0.2153242E-013  0.7246153E+02  0.7816164E-02  0.1226708E+00
        -11   -1    0    0    0    0  0.00000000000E+00  0.00000000000E+00  0.45593999997E+02  0.45594000000E+02  0.51100000000E-03 0.  1.
         11   -1    0    0    0    0 -0.00000000000E+00 -0.00000000000E+00 -0.45593999997E+02  0.45594000000E+02  0.51100000000E-03 0. -1.
    9900012    2    1    2    0    0  0.26637482342E+01 -0.16812754607E+02  0.78049009669E+01  0.72461528063E+02  0.69999944985E+02 0.  0.
         12    1    1    2    0    0 -0.26637482342E+01  0.16812754607E+02 -0.78049009669E+01  0.18726471937E+02  0.00000000000E+00 0. -1.
         11    1    3    3    0    0 -0.70971446226E+01 -0.20612674351E+02 -0.72468323825E+01  0.22973210170E+02  0.51100000000E-03 0. -1.
        -11    1    3    3    0    0 -0.89787926206E+01 -0.14084027429E+02 -0.41895747030E+01  0.17220077874E+02  0.51100000000E-03 0.  1.
        -12    1    3    3    0    0  0.18739685477E+02  0.17883947173E+02  0.19241308052E+02  0.32268240018E+02  0.00000000000E+00 0.  1.
</event>
<event>
 7    1  0.2153242E-013  0.7246157E+02  0.7816164E-02  0.1226708E+00
        -11   -1    0    0    0    0  0.00000000000E+00  0.00000000000E+00  0.45593999997E+02  0.45594000000E+02  0.51100000000E-03 0.  1.
         11   -1    0    0    0    0 -0.00000000000E+00 -0.00000000000E+00 -0.45593999997E+02  0.45594000000E+02  0.51100000000E-03 0. -1.
    9900012    2    1    2    0    0  0.16201398028E+02  0.87851736391E+01  0.33188122326E+01  0.72461572456E+02  0.70000002816E+02 0.  0.
         12    1    1    2    0    0 -0.16201398028E+02 -0.87851736391E+01 -0.33188122326E+01  0.18726427544E+02  0.00000000000E+00 0. -1.
         11    1    3    3    0    0  0.74162299170E+01  0.11306123053E+02 -0.76372713390E+01  0.15529224012E+02  0.51100000000E-03 0. -1.
        -11    1    3    3    0    0  0.29606568595E+02  0.36510063623E+01 -0.46480198247E+01  0.30190774088E+02  0.51100000000E-03 0.  1.
         12    1    3    3    0    0 -0.20821400485E+02 -0.61719557758E+01  0.15604103396E+02  0.26741574356E+02  0.00000000000E+00 0. -1.
</event>
<event>
 7    1  0.3022875E-013  0.7246165E+02  0.7816164E-02  0.1226708E+00
        -11   -1    0    0    0    0  0.00000000000E+00  0.00000000000E+00  0.45593999997E+02  0.45594000000E+02  0.51100000000E-03 0. -1.
         11   -1    0    0    0    0 -0.00000000000E+00 -0.00000000000E+00 -0.45593999997E+02  0.45594000000E+02  0.51100000000E-03 0.  1.
    9900012    2    1    2    0    0 -0.49937916899E+01 -0.14549215476E+01 -0.17989478223E+02  0.72461652815E+02  0.70000107498E+02 0.  0.
         12    1    1    2    0    0  0.49937916899E+01  0.14549215476E+01  0.17989478223E+02  0.18726347185E+02  0.00000000000E+00 0. -1.
         11    1    3    3    0    0 -0.16233655763E+02 -0.13112751647E+00 -0.37235467765E+01  0.16655736991E+02  0.51100000000E-03 0. -1.
        -11    1    3    3    0    0 -0.10600816137E+02 -0.26069206411E+01 -0.27946110477E+02  0.30002640368E+02  0.51100000000E-03 0.  1.
         12    1    3    3    0    0  0.21840680210E+02  0.12831266100E+01  0.13680179030E+02  0.25803275456E+02  0.00000000000E+00 0. -1.
</event>
<event>
 7    1  0.2153242E-013  0.7246156E+02  0.7816164E-02  0.1226708E+00
        -11   -1    0    0    0    0  0.00000000000E+00  0.00000000000E+00  0.45593999997E+02  0.45594000000E+02  0.51100000000E-03 0. -1.
         11   -1    0    0    0    0 -0.00000000000E+00 -0.00000000000E+00 -0.45593999997E+02  0.45594000000E+02  0.51100000000E-03 0.  1.
    9900012    2    1    2    0    0 -0.95731509474E+01  0.12216166463E+02  0.10478528184E+02  0.72461561604E+02  0.69999988679E+02 0.  0.
         12    1    1    2    0    0  0.95731509474E+01 -0.12216166463E+02 -0.10478528184E+02  0.18726438396E+02  0.00000000000E+00 0. -1.
         11    1    3    3    0    0  0.24402107700E+01  0.25014187890E+02  0.15558618737E+02  0.29559006101E+02  0.51100000000E-03 0. -1.
        -11    1    3    3    0    0  0.42824652099E+01  0.81165513512E+01  0.90243409657E+01  0.12870767041E+02  0.51100000000E-03 0.  1.
        -12    1    3    3    0    0 -0.16295826927E+02 -0.20914572778E+02 -0.14104431519E+02  0.30031788462E+02  0.00000000000E+00 0.  1.
</event>
<event>
 7    1  0.2153242E-013  0.7246164E+02  0.7816164E-02  0.1226708E+00
        -11   -1    0    0    0    0  0.00000000000E+00  0.00000000000E+00  0.45593999997E+02  0.45594000000E+02  0.51100000000E-03 0. -1.
         11   -1    0    0    0    0 -0.00000000000E+00 -0.00000000000E+00 -0.45593999997E+02  0.45594000000E+02  0.51100000000E-03 0.  1.
    9900012    2    1    2    0    0 -0.21835591747E+01 -0.17466014550E+02  0.63911725650E+01  0.72461636720E+02  0.70000086532E+02 0.  0.
         12    1    1    2    0    0  0.21835591747E+01  0.17466014550E+02 -0.63911725650E+01  0.18726363280E+02  0.00000000000E+00 0. -1.
         11    1    3    3    0    0  0.68893662721E+00 -0.85829441243E+01  0.15995168914E+01  0.87578546497E+01  0.51100000000E-03 0. -1.
        -11    1    3    3    0    0  0.26775622304E+02  0.96486647974E+01  0.38337849096E+00  0.28463619964E+02  0.51100000000E-03 0.  1.
         12    1    3    3    0    0 -0.29648118106E+02 -0.18531735223E+02  0.44082771826E+01  0.35240162107E+02  0.00000000000E+00 0. -1.
</event>
<event>
 7    1  0.2153242E-013  0.7246157E+02  0.7816164E-02  0.1226708E+00
        -11   -1    0    0    0    0  0.00000000000E+00  0.00000000000E+00  0.45593999997E+02  0.45594000000E+02  0.51100000000E-03 0. -1.
         11   -1    0    0    0    0 -0.00000000000E+00 -0.00000000000E+00 -0.45593999997E+02  0.45594000000E+02  0.51100000000E-03 0.  1.
    9900012    2    1    2    0    0 -0.18446958293E+02  0.41165255137E+00  0.31967853219E+01  0.72461570429E+02  0.70000000175E+02 0.  0.
         12    1    1    2    0    0  0.18446958293E+02 -0.41165255137E+00 -0.31967853219E+01  0.18726429571E+02  0.00000000000E+00 0. -1.
         11    1    3    3    0    0 -0.73793389138E+01  0.41087283125E+01  0.93276374542E+01  0.12583366477E+02  0.51100000000E-03 0. -1.
        -11    1    3    3    0    0 -0.12457588713E+02 -0.10227599582E+02  0.24058844783E+02  0.28958993807E+02  0.51100000000E-03 0.  1.
         12    1    3    3    0    0  0.13899693341E+01  0.65305238205E+01 -0.30189696916E+02  0.30919210145E+02  0.00000000000E+00 0. -1.
</event>
<event>
 7    1  0.2153242E-013  0.7246154E+02  0.7816164E-02  0.1226708E+00
        -11   -1    0    0    0    0  0.00000000000E+00  0.00000000000E+00  0.45593999997E+02  0.45594000000E+02  0.51100000000E-03 0.  1.
         11   -1    0    0    0    0 -0.00000000000E+00 -0.00000000000E+00 -0.45593999997E+02  0.45594000000E+02  0.51100000000E-03 0. -1.
    9900012    2    1    2    0    0 -0.42861226683E+01 -0.16279428240E+00  0.18228627789E+02  0.72461542231E+02  0.69999963442E+02 0.  0.
         12    1    1    2    0    0  0.42861226683E+01  0.16279428240E+00 -0.18228627789E+02  0.18726457769E+02  0.00000000000E+00 0. -1.
         11    1    3    3    0    0 -0.10376353210E+02  0.62703707587E+01 -0.18322598332E+02  0.21970522645E+02  0.51100000000E-03 0. -1.
        -11    1    3    3    0    0  0.73638963492E+00 -0.10348750251E+02 -0.26699282600E+01  0.10712955644E+02  0.51100000000E-03 0.  1.
        -12    1    3    3    0    0  0.53538409069E+01  0.39155852096E+01  0.39221154381E+02  0.39778063942E+02  0.00000000000E+00 0.  1.
</event>
<event>
 7    1  0.2153242E-013  0.7246163E+02  0.7816164E-02  0.1226708E+00
        -11   -1    0    0    0    0  0.00000000000E+00  0.00000000000E+00  0.45593999997E+02  0.45594000000E+02  0.51100000000E-03 0.  1.
         11   -1    0    0    0    0 -0.00000000000E+00 -0.00000000000E+00 -0.45593999997E+02  0.45594000000E+02  0.51100000000E-03 0. -1.
    9900012    2    1    2    0    0 -0.15935530427E+02  0.38831402976E+01  0.90364249304E+01  0.72461631316E+02  0.70000079493E+02 0.  0.
         12    1    1    2    0    0  0.15935530427E+02 -0.38831402976E+01 -0.90364249304E+01  0.18726368684E+02  0.00000000000E+00 0. -1.
         11    1    3    3    0    0 -0.53937347044E+01 -0.12031928488E+02 -0.13716774234E+02  0.19026549158E+02  0.51100000000E-03 0. -1.
        -11    1    3    3    0    0 -0.25910017790E+02  0.35822668065E+01  0.21200241691E+02  0.33669153618E+02  0.51100000000E-03 0.  1.
         12    1    3    3    0    0  0.15368222067E+02  0.12332801979E+02  0.15529574740E+01  0.19765928541E+02  0.00000000000E+00 0. -1.
</event>
<event>
 7    1  0.2153242E-013  0.7246154E+02  0.7816164E-02  0.1226708E+00
        -11   -1    0    0    0    0  0.00000000000E+00  0.00000000000E+00  0.45593999997E+02  0.45594000000E+02  0.51100000000E-03 0.  1.
         11   -1    0    0    0    0 -0.00000000000E+00 -0.00000000000E+00 -0.45593999997E+02  0.45594000000E+02  0.51100000000E-03 0. -1.
    9900012    2    1    2    0    0 -0.50634432255E+01 -0.49266439931E+01  0.17342719749E+02  0.72461542603E+02  0.69999963927E+02 0.  0.
         12    1    1    2    0    0  0.50634432255E+01  0.49266439931E+01 -0.17342719749E+02  0.18726457397E+02  0.00000000000E+00 0. -1.
         11    1    3    3    0    0 -0.23923453262E+02  0.32825717590E+01  0.19281500129E+02  0.30901183486E+02  0.51100000000E-03 0. -1.
        -11    1    3    3    0    0  0.31639227637E+01 -0.70116912782E+01  0.15964230635E+02  0.17720916508E+02  0.51100000000E-03 0.  1.
        -12    1    3    3    0    0  0.15696087273E+02 -0.11975244739E+01 -0.17903011015E+02  0.23839442610E+02  0.00000000000E+00 0.  1.
</event>
<event>
 7    1  0.2153242E-013  0.7246154E+02  0.7816164E-02  0.1226708E+00
        -11   -1    0    0    0    0  0.00000000000E+00  0.00000000000E+00  0.45593999997E+02  0.45594000000E+02  0.51100000000E-03 0. -1.
         11   -1    0    0    0    0 -0.00000000000E+00 -0.00000000000E+00 -0.45593999997E+02  0.45594000000E+02  0.51100000000E-03 0.  1.
    9900012    2    1    2    0    0 -0.83358788384E+01 -0.11331456277E+02  0.12360879576E+02  0.72461544883E+02  0.69999966897E+02 0.  0.
         12    1    1    2    0    0  0.83358788384E+01  0.11331456277E+02 -0.12360879576E+02  0.18726455117E+02  0.00000000000E+00 0. -1.
         11    1    3    3    0    0  0.90904406604E+01 -0.95947945480E+01 -0.18230283731E+02  0.22517536255E+02  0.51100000000E-03 0. -1.
        -11    1    3    3    0    0 -0.14283064606E+02 -0.50422347472E+01 -0.35024427221E+01  0.15546612849E+02  0.51100000000E-03 0.  1.
         12    1    3    3    0    0 -0.31432548928E+01  0.33055730182E+01  0.34093606029E+02  0.34397395779E+02  0.00000000000E+00 0. -1.
</event>
<event>
 7    1  0.2153242E-013  0.7246166E+02  0.7816164E-02  0.1226708E+00
        -11   -1    0    0    0    0  0.00000000000E+00  0.00000000000E+00  0.45593999997E+02  0.45594000000E+02  0.51100000000E-03 0.  1.
         11   -1    0    0    0    0 -0.00000000000E+00 -0.00000000000E+00 -0.45593999997E+02  0.45594000000E+02  0.51100000000E-03 0. -1.
    9900012    2    1    2    0    0  0.55717917400E+01  0.71021908961E+01  0.16407006382E+02  0.72461659270E+02  0.70000115907E+02 0.  0.
         12    1    1    2    0    0 -0.55717917400E+01 -0.71021908961E+01 -0.16407006382E+02  0.18726340730E+02  0.00000000000E+00 0. -1.
         11    1    3    3    0    0 -0.68315772559E+01 -0.16788821206E+01  0.82665976596E+01  0.10854756105E+02  0.51100000000E-03 0. -1.
        -11    1    3    3    0    0 -0.21001055224E+02  0.12747702489E+02 -0.57198023390E+01  0.25224281523E+02  0.51100000000E-03 0.  1.
        -12    1    3    3    0    0  0.33404424220E+02 -0.39666294726E+01  0.13860211061E+02  0.36382621642E+02  0.00000000000E+00 0.  1.
</event>
<event>
 7    1  0.2153242E-013  0.7246158E+02  0.7816164E-02  0.1226708E+00
        -11   -1    0    0    0    0  0.00000000000E+00  0.00000000000E+00  0.45593999997E+02  0.45594000000E+02  0.51100000000E-03 0.  1.
         11   -1    0    0    0    0 -0.00000000000E+00 -0.00000000000E+00 -0.45593999997E+02  0.45594000000E+02  0.51100000000E-03 0. -1.
    9900012    2    1    2    0    0 -0.14870297112E+02  0.22291898618E+01  0.11161711408E+02  0.72461579488E+02  0.70000011977E+02 0.  0.
         12    1    1    2    0    0  0.14870297112E+02 -0.22291898618E+01 -0.11161711408E+02  0.18726420512E+02  0.00000000000E+00 0. -1.
         11    1    3    3    0    0  0.34205130094E+01 -0.78343416864E+01  0.32844368902E+01  0.91577478047E+01  0.51100000000E-03 0. -1.
        -11    1    3    3    0    0 -0.38242074421E+02 -0.38308204215E+01  0.62331379926E+01  0.38935632146E+02  0.51100000000E-03 0.  1.
         12    1    3    3    0    0  0.19951264299E+02  0.13894351970E+02  0.16441365249E+01  0.24368199538E+02  0.00000000000E+00 0. -1.
</event>
<event>
 7    1  0.2153242E-013  0.7246155E+02  0.7816164E-02  0.1226708E+00
        -11   -1    0    0    0    0  0.00000000000E+00  0.00000000000E+00  0.45593999997E+02  0.45594000000E+02  0.51100000000E-03 0.  1.
         11   -1    0    0    0    0 -0.00000000000E+00 -0.00000000000E+00 -0.45593999997E+02  0.45594000000E+02  0.51100000000E-03 0. -1.
    9900012    2    1    2    0    0 -0.14413323308E+02  0.16941934187E+01  0.11834932470E+02  0.72461553282E+02  0.69999977838E+02 0.  0.
         12    1    1    2    0    0  0.14413323308E+02 -0.16941934187E+01 -0.11834932470E+02  0.18726446718E+02  0.00000000000E+00 0. -1.
         11    1    3    3    0    0  0.41634601033E+01 -0.24918926465E+01  0.25463314315E+01  0.54797566564E+01  0.51100000000E-03 0. -1.
        -11    1    3    3    0    0 -0.55952193598E+01 -0.13907370070E+02  0.31899468461E+02  0.35246241080E+02  0.51100000000E-03 0.  1.
         12    1    3    3    0    0 -0.12981564052E+02  0.18093456135E+02 -0.22610867423E+02  0.31735555545E+02  0.00000000000E+00 0. -1.
</event>
<event>
 7    1  0.2153242E-013  0.7246160E+02  0.7816164E-02  0.1226708E+00
        -11   -1    0    0    0    0  0.00000000000E+00  0.00000000000E+00  0.45593999997E+02  0.45594000000E+02  0.51100000000E-03 0. -1.
         11   -1    0    0    0    0 -0.00000000000E+00 -0.00000000000E+00 -0.45593999997E+02  0.45594000000E+02  0.51100000000E-03 0.  1.
    9900012    2    1    2    0    0  0.83648908236E+01  0.53376471704E+01 -0.15881321365E+02  0.72461595003E+02  0.70000032188E+02 0.  0.
         12    1    1    2    0    0 -0.83648908236E+01 -0.53376471704E+01  0.15881321365E+02  0.18726404997E+02  0.00000000000E+00 0. -1.
         11    1    3    3    0    0  0.39667502613E+00 -0.41054332457E+00 -0.44088578887E+01  0.44456636221E+01  0.51100000000E-03 0. -1.
        -11    1    3    3    0    0  0.35224291653E+02 -0.87742241043E+00  0.48425044716E+01  0.35566422963E+02  0.51100000000E-03 0.  1.
         12    1    3    3    0    0 -0.27256075856E+02  0.66256129054E+01 -0.16314967948E+02  0.32449508418E+02  0.00000000000E+00 0. -1.
</event>
<event>
 7    1  0.2153242E-013  0.7246168E+02  0.7816164E-02  0.1226708E+00
        -11   -1    0    0    0    0  0.00000000000E+00  0.00000000000E+00  0.45593999997E+02  0.45594000000E+02  0.51100000000E-03 0.  1.
         11   -1    0    0    0    0 -0.00000000000E+00 -0.00000000000E+00 -0.45593999997E+02  0.45594000000E+02  0.51100000000E-03 0. -1.
    9900012    2    1    2    0    0 -0.13228853691E+02 -0.95922555802E+01 -0.91466554099E+01  0.72461675153E+02  0.70000136598E+02 0.  0.
         12    1    1    2    0    0  0.13228853691E+02  0.95922555802E+01  0.91466554099E+01  0.18726324847E+02  0.00000000000E+00 0. -1.
         11    1    3    3    0    0 -0.27533402547E+01 -0.15860483048E+02  0.61985053229E+01  0.17249848509E+02  0.51100000000E-03 0. -1.
        -11    1    3    3    0    0 -0.12316278654E+02 -0.17751311713E+02  0.66347808394E+01  0.22601329706E+02  0.51100000000E-03 0.  1.
         12    1    3    3    0    0  0.18407652181E+01  0.24019539181E+02 -0.21979941572E+02  0.32610496938E+02  0.00000000000E+00 0. -1.
</event>
<event>
 7    1  0.2153242E-013  0.7246156E+02  0.7816164E-02  0.1226708E+00
        -11   -1    0    0    0    0  0.00000000000E+00  0.00000000000E+00  0.45593999997E+02  0.45594000000E+02  0.51100000000E-03 0.  1.
         11   -1    0    0    0    0 -0.00000000000E+00 -0.00000000000E+00 -0.45593999997E+02  0.45594000000E+02  0.51100000000E-03 0. -1.
    9900012    2    1    2    0    0 -0.25959273837E-01  0.23904742016E+01  0.18573225120E+02  0.72461555272E+02  0.69999980431E+02 0.  0.
         12    1    1    2    0    0  0.25959273837E-01 -0.23904742016E+01 -0.18573225120E+02  0.18726444728E+02  0.00000000000E+00 0. -1.
         11    1    3    3    0    0  0.90588592999E+01 -0.23049071924E+01  0.20421821862E+02  0.22459437603E+02  0.51100000000E-03 0. -1.
        -11    1    3    3    0    0 -0.28323906390E+01  0.26386172733E+02 -0.55902751587E+01  0.27120171918E+02  0.51100000000E-03 0.  1.
         12    1    3    3    0    0 -0.62524279348E+01 -0.21690791339E+02  0.37416784162E+01  0.22881945752E+02  0.00000000000E+00 0. -1.
</event>
<event>
 7    1  0.2153242E-013  0.7246161E+02  0.7816164E-02  0.1226708E+00
        -11   -1    0    0    0    0  0.00000000000E+00  0.00000000000E+00  0.45593999997E+02  0.45594000000E+02  0.51100000000E-03 0.  1.
         11   -1    0    0    0    0 -0.00000000000E+00 -0.00000000000E+00 -0.45593999997E+02  0.45594000000E+02  0.51100000000E-03 0. -1.
    9900012    2    1    2    0    0 -0.58801223600E+01 -0.30144234480E+01  0.17521849059E+02  0.72461607338E+02  0.70000048256E+02 0.  0.
         12    1    1    2    0    0  0.58801223600E+01  0.30144234480E+01 -0.17521849059E+02  0.18726392662E+02  0.00000000000E+00 0. -1.
         11    1    3    3    0    0  0.11108330936E+02 -0.11803032515E+02 -0.69263366176E+01  0.17626137748E+02  0.51100000000E-03 0. -1.
        -11    1    3    3    0    0 -0.30084962333E+01 -0.16229868988E+02  0.19838833499E+02  0.25807731628E+02  0.51100000000E-03 0.  1.
         12    1    3    3    0    0 -0.13979957062E+02  0.25018478055E+02  0.46093521773E+01  0.29027737961E+02  0.00000000000E+00 0. -1.
</event>
<event>
 7    1  0.2153242E-013  0.7246175E+02  0.7816164E-02  0.1226708E+00
        -11   -1    0    0    0    0  0.00000000000E+00  0.00000000000E+00  0.45593999997E+02  0.45594000000E+02  0.51100000000E-03 0. -1.
         11   -1    0    0    0    0 -0.00000000000E+00 -0.00000000000E+00 -0.45593999997E+02  0.45594000000E+02  0.51100000000E-03 0.  1.
    9900012    2    1    2    0    0 -0.85957485838E+01  0.36436001528E+01 -0.16232979898E+02  0.72461752321E+02  0.70000237123E+02 0.  0.
         12    1    1    2    0    0  0.85957485838E+01 -0.36436001528E+01  0.16232979898E+02  0.18726247679E+02  0.00000000000E+00 0. -1.
         11    1    3    3    0    0  0.17134266113E+02  0.83749135447E+01 -0.28905841072E+02  0.34630476469E+02  0.51100000000E-03 0. -1.
        -11    1    3    3    0    0  0.82167412871E+00 -0.45111746486E+00 -0.53661190572E+01  0.54473745363E+01  0.51100000000E-03 0.  1.
        -12    1    3    3    0    0 -0.26551688825E+02 -0.42801959270E+01  0.18038980232E+02  0.32383901316E+02  0.00000000000E+00 0.  1.
</event>
<event>
 7    1  0.2153242E-013  0.7246184E+02  0.7816164E-02  0.1226707E+00
        -11   -1    0    0    0    0  0.00000000000E+00  0.00000000000E+00  0.45593999997E+02  0.45594000000E+02  0.51100000000E-03 0.  1.
         11   -1    0    0    0    0 -0.00000000000E+00 -0.00000000000E+00 -0.45593999997E+02  0.45594000000E+02  0.51100000000E-03 0. -1.
    9900012    2    1    2    0    0 -0.80951674665E+01 -0.16477333033E+02 -0.36925219627E+01  0.72461842929E+02  0.70000355157E+02 0.  0.
         12    1    1    2    0    0  0.80951674665E+01  0.16477333033E+02  0.36925219627E+01  0.18726157071E+02  0.00000000000E+00 0. -1.
         11    1    3    3    0    0 -0.96905797659E+01  0.30166851012E+01 -0.90441891921E-01  0.10149675128E+02  0.51100000000E-03 0. -1.
        -11    1    3    3    0    0 -0.89874330422E+01 -0.38825947055E+02  0.69243361751E+00  0.39858594832E+02  0.51100000000E-03 0.  1.
         12    1    3    3    0    0  0.10582845342E+02  0.19331928920E+02 -0.42945136883E+01  0.22453572970E+02  0.00000000000E+00 0. -1.
</event>
<event>
 7    1  0.2153242E-013  0.7246161E+02  0.7816164E-02  0.1226708E+00
        -11   -1    0    0    0    0  0.00000000000E+00  0.00000000000E+00  0.45593999997E+02  0.45594000000E+02  0.51100000000E-03 0.  1.
         11   -1    0    0    0    0 -0.00000000000E+00 -0.00000000000E+00 -0.45593999997E+02  0.45594000000E+02  0.51100000000E-03 0. -1.
    9900012    2    1    2    0    0 -0.13467628744E+02  0.83667656401E+01  0.99648404811E+01  0.72461605871E+02  0.70000046345E+02 0.  0.
         12    1    1    2    0    0  0.13467628744E+02 -0.83667656401E+01 -0.99648404811E+01  0.18726394129E+02  0.00000000000E+00 0. -1.
         11    1    3    3    0    0 -0.10543361804E+02  0.33796764059E+01  0.68119207567E+01  0.12999498275E+02  0.51100000000E-03 0. -1.
        -11    1    3    3    0    0 -0.22976111055E+02  0.21389902712E+02  0.94852113337E+01  0.32793274486E+02  0.51100000000E-03 0.  1.
         12    1    3    3    0    0  0.20051844116E+02 -0.16402813477E+02 -0.63322916093E+01  0.26668833110E+02  0.00000000000E+00 0. -1.
</event>
<event>
 7    1  0.2153242E-013  0.7246160E+02  0.7816164E-02  0.1226708E+00
        -11   -1    0    0    0    0  0.00000000000E+00  0.00000000000E+00  0.45593999997E+02  0.45594000000E+02  0.51100000000E-03 0.  1.
         11   -1    0    0    0    0 -0.00000000000E+00 -0.00000000000E+00 -0.45593999997E+02  0.45594000000E+02  0.51100000000E-03 0. -1.
    9900012    2    1    2    0    0 -0.25428064940E+01 -0.10919295942E+02  0.14999376146E+02  0.72461596888E+02  0.70000034643E+02 0.  0.
         12    1    1    2    0    0  0.25428064940E+01  0.10919295942E+02 -0.14999376146E+02  0.18726403112E+02  0.00000000000E+00 0. -1.
         11    1    3    3    0    0  0.34552991340E+01 -0.14388831138E+02 -0.35798329352E+01  0.15224741631E+02  0.51100000000E-03 0.  1.
        -11    1    3    3    0    0 -0.32210593955E+01  0.22620950418E+01 -0.19067015629E+02  0.19469036516E+02  0.51100000000E-03 0. -1.
        -12    1    3    3    0    0 -0.27770462325E+01  0.12074401546E+01  0.37646224710E+02  0.37767818741E+02  0.00000000000E+00 0.  1.
</event>
<event>
 7    1  0.2167330E-013  0.7246181E+02  0.7816164E-02  0.1226707E+00
        -11   -1    0    0    0    0  0.00000000000E+00  0.00000000000E+00  0.45593999997E+02  0.45594000000E+02  0.51100000000E-03 0. -1.
         11   -1    0    0    0    0 -0.00000000000E+00 -0.00000000000E+00 -0.45593999997E+02  0.45594000000E+02  0.51100000000E-03 0.  1.
    9900012    2    1    2    0    0 -0.31957448393E+01 -0.10175002470E+02 -0.15392423294E+02  0.72461810980E+02  0.70000313538E+02 0.  0.
         12    1    1    2    0    0  0.31957448393E+01  0.10175002470E+02  0.15392423294E+02  0.18726189020E+02  0.00000000000E+00 0. -1.
         11    1    3    3    0    0  0.57242938889E+01  0.15631179227E+02 -0.86444853072E+01  0.18757090154E+02  0.51100000000E-03 0. -1.
        -11    1    3    3    0    0 -0.16940225611E+02  0.13871984068E+01 -0.16533684177E+02  0.23711985912E+02  0.51100000000E-03 0.  1.
         12    1    3    3    0    0  0.80201868825E+01 -0.27193380104E+02  0.97857461906E+01  0.29992734914E+02  0.00000000000E+00 0. -1.
</event>
<event>
 7    1  0.2153242E-013  0.7246156E+02  0.7816164E-02  0.1226708E+00
        -11   -1    0    0    0    0  0.00000000000E+00  0.00000000000E+00  0.45593999997E+02  0.45594000000E+02  0.51100000000E-03 0. -1.
         11   -1    0    0    0    0 -0.00000000000E+00 -0.00000000000E+00 -0.45593999997E+02  0.45594000000E+02  0.51100000000E-03 0.  1.
    9900012    2    1    2    0    0  0.34274760598E+01  0.25436038838E+01 -0.18233542286E+02  0.72461559411E+02  0.69999985822E+02 0.  0.
         12    1    1    2    0    0 -0.34274760598E+01 -0.25436038838E+01  0.18233542286E+02  0.18726440589E+02  0.00000000000E+00 0. -1.
         11    1    3    3    0    0  0.22605197009E+01 -0.18452974222E+01  0.33356871006E+01  0.44319161306E+01  0.51100000000E-03 0. -1.
        -11    1    3    3    0    0  0.65440886446E+01 -0.77390334390E+01  0.21066460860E+02  0.23377628369E+02  0.51100000000E-03 0.  1.
         12    1    3    3    0    0 -0.53771322857E+01  0.12127934745E+02 -0.42635690246E+02  0.44652014911E+02  0.00000000000E+00 0. -1.
</event>
<event>
 7    1  0.2153242E-013  0.7246158E+02  0.7816164E-02  0.1226708E+00
        -11   -1    0    0    0    0  0.00000000000E+00  0.00000000000E+00  0.45593999997E+02  0.45594000000E+02  0.51100000000E-03 0.  1.
         11   -1    0    0    0    0 -0.00000000000E+00 -0.00000000000E+00 -0.45593999997E+02  0.45594000000E+02  0.51100000000E-03 0. -1.
    9900012    2    1    2    0    0 -0.47548775107E+01 -0.19270836008E+01  0.18009890274E+02  0.72461583925E+02  0.70000017756E+02 0.  0.
         12    1    1    2    0    0  0.47548775107E+01  0.19270836008E+01 -0.18009890274E+02  0.18726416075E+02  0.00000000000E+00 0. -1.
         11    1    3    3    0    0 -0.69373119049E+01 -0.14586164366E+02  0.10073362585E+02  0.19035627686E+02  0.51100000000E-03 0. -1.
        -11    1    3    3    0    0 -0.15629067777E+01  0.66930811679E+01  0.29734250387E+02  0.30518284019E+02  0.51100000000E-03 0.  1.
         12    1    3    3    0    0  0.37453411718E+01  0.59659995975E+01 -0.21797722698E+02  0.22907672220E+02  0.00000000000E+00 0. -1.
</event>
<event>
 7    1  0.2153242E-013  0.7246152E+02  0.7816164E-02  0.1226708E+00
        -11   -1    0    0    0    0  0.00000000000E+00  0.00000000000E+00  0.45593999997E+02  0.45594000000E+02  0.51100000000E-03 0. -1.
         11   -1    0    0    0    0 -0.00000000000E+00 -0.00000000000E+00 -0.45593999997E+02  0.45594000000E+02  0.51100000000E-03 0.  1.
    9900012    2    1    2    0    0  0.10147585280E+02  0.56961502992E+01 -0.14671791470E+02  0.72461519279E+02  0.69999933543E+02 0.  0.
         12    1    1    2    0    0 -0.10147585280E+02 -0.56961502992E+01  0.14671791470E+02  0.18726480721E+02  0.00000000000E+00 0. -1.
         11    1    3    3    0    0  0.70138630391E+01 -0.12980378918E+02  0.21047019893E+02  0.25703337492E+02  0.51100000000E-03 0. -1.
        -11    1    3    3    0    0  0.64379832271E+00  0.12766352626E+01  0.34999122414E+01  0.37806956811E+01  0.51100000000E-03 0.  1.
        -12    1    3    3    0    0  0.24899239180E+01  0.17399893955E+02 -0.39218723605E+02  0.42977486106E+02  0.00000000000E+00 0.  1.
</event>
<event>
 7    1  0.2153242E-013  0.7246155E+02  0.7816164E-02  0.1226708E+00
        -11   -1    0    0    0    0  0.00000000000E+00  0.00000000000E+00  0.45593999997E+02  0.45594000000E+02  0.51100000000E-03 0. -1.
         11   -1    0    0    0    0 -0.00000000000E+00 -0.00000000000E+00 -0.45593999997E+02  0.45594000000E+02  0.51100000000E-03 0.  1.
    9900012    2    1    2    0    0 -0.51393365255E+01 -0.16356468920E+02 -0.75321259914E+01  0.72461554064E+02  0.69999978857E+02 0.  0.
         12    1    1    2    0    0  0.51393365255E+01  0.16356468920E+02  0.75321259914E+01  0.18726445936E+02  0.00000000000E+00 0. -1.
         11    1    3    3    0    0 -0.78741335277E+01 -0.11569417107E+02  0.17995254892E+02  0.22796547762E+02  0.51100000000E-03 0. -1.
        -11    1    3    3    0    0 -0.11223069690E+02 -0.13902617801E+02  0.14781898881E+01  0.17928332901E+02  0.51100000000E-03 0.  1.
        -12    1    3    3    0    0  0.13957866692E+02  0.91155659876E+01 -0.27005570771E+02  0.31736673401E+02  0.00000000000E+00 0.  1.
</event>
<event>
 7    1  0.2153242E-013  0.7246156E+02  0.7816164E-02  0.1226708E+00
        -11   -1    0    0    0    0  0.00000000000E+00  0.00000000000E+00  0.45593999997E+02  0.45594000000E+02  0.51100000000E-03 0.  1.
         11   -1    0    0    0    0 -0.00000000000E+00 -0.00000000000E+00 -0.45593999997E+02  0.45594000000E+02  0.51100000000E-03 0. -1.
    9900012    2    1    2    0    0  0.52539996222E+01  0.37110238654E+01  0.17587023119E+02  0.72461559004E+02  0.69999985293E+02 0.  0.
         12    1    1    2    0    0 -0.52539996222E+01 -0.37110238654E+01 -0.17587023119E+02  0.18726440996E+02  0.00000000000E+00 0. -1.
         11    1    3    3    0    0  0.82419803577E+01  0.46446779455E+01 -0.82934071347E+01  0.12581091988E+02  0.51100000000E-03 0. -1.
        -11    1    3    3    0    0 -0.18151542636E+02 -0.14941794927E+02 -0.37093498438E+01  0.23801155691E+02  0.51100000000E-03 0.  1.
         12    1    3    3    0    0  0.15163561900E+02  0.14008140847E+02  0.29589780098E+02  0.36079311326E+02  0.00000000000E+00 0. -1.
</event>
<event>
 7    1  0.2153242E-013  0.7246155E+02  0.7816164E-02  0.1226708E+00
        -11   -1    0    0    0    0  0.00000000000E+00  0.00000000000E+00  0.45593999997E+02  0.45594000000E+02  0.51100000000E-03 0.  1.
         11   -1    0    0    0    0 -0.00000000000E+00 -0.00000000000E+00 -0.45593999997E+02  0.45594000000E+02  0.51100000000E-03 0. -1.
    9900012    2    1    2    0    0  0.17136704651E+02 -0.11784302959E+01  0.74581951400E+01  0.72461547613E+02  0.69999970453E+02 0.  0.
         12    1    1    2    0    0 -0.17136704651E+02  0.11784302959E+01 -0.74581951400E+01  0.18726452387E+02  0.00000000000E+00 0. -1.
         11    1    3    3    0    0 -0.25055216773E+01  0.21830369927E+01 -0.44911667107E+01  0.55869372711E+01  0.51100000000E-03 0. -1.
        -11    1    3    3    0    0  0.27745863674E+02  0.16072249931E+02 -0.12671906443E+02  0.34477926011E+02  0.51100000000E-03 0.  1.
         12    1    3    3    0    0 -0.81036373460E+01 -0.19433717220E+02  0.24621268294E+02  0.32396684330E+02  0.00000000000E+00 0. -1.
</event>
<event>
 7    1  0.2153242E-013  0.7246158E+02  0.7816164E-02  0.1226708E+00
        -11   -1    0    0    0    0  0.00000000000E+00  0.00000000000E+00  0.45593999997E+02  0.45594000000E+02  0.51100000000E-03 0.  1.
         11   -1    0    0    0    0 -0.00000000000E+00 -0.00000000000E+00 -0.45593999997E+02  0.45594000000E+02  0.51100000000E-03 0. -1.
    9900012    2    1    2    0    0  0.71635246307E+01  0.25887773372E+01  0.17107336365E+02  0.72461579874E+02  0.70000012480E+02 0.  0.
         12    1    1    2    0    0 -0.71635246307E+01 -0.25887773372E+01 -0.17107336365E+02  0.18726420126E+02  0.00000000000E+00 0. -1.
         11    1    3    3    0    0 -0.62025634168E+01 -0.10477332396E+02 -0.98288097001E+01  0.15647740651E+02  0.51100000000E-03 0. -1.
        -11    1    3    3    0    0  0.28347559877E+02  0.63781796862E+01  0.50990598468E+01  0.29500266755E+02  0.51100000000E-03 0.  1.
         12    1    3    3    0    0 -0.14981471829E+02  0.66879300474E+01  0.21837086218E+02  0.27313572468E+02  0.00000000000E+00 0. -1.
</event>
<event>
 7    1  0.2153242E-013  0.7246164E+02  0.7816164E-02  0.1226708E+00
        -11   -1    0    0    0    0  0.00000000000E+00  0.00000000000E+00  0.45593999997E+02  0.45594000000E+02  0.51100000000E-03 0.  1.
         11   -1    0    0    0    0 -0.00000000000E+00 -0.00000000000E+00 -0.45593999997E+02  0.45594000000E+02  0.51100000000E-03 0. -1.
    9900012    2    1    2    0    0 -0.18010581881E+02 -0.46252105165E+01  0.22142540869E+01  0.72461640152E+02  0.70000091002E+02 0.  0.
         12    1    1    2    0    0  0.18010581881E+02  0.46252105165E+01 -0.22142540869E+01  0.18726359848E+02  0.00000000000E+00 0. -1.
         11    1    3    3    0    0 -0.48042777785E+00  0.27664054484E+01 -0.20958663783E+01  0.35037788303E+01  0.51100000000E-03 0. -1.
        -11    1    3    3    0    0  0.20644223359E+02  0.11963590001E+02 -0.66624689300E+01  0.24772967855E+02  0.51100000000E-03 0.  1.
        -12    1    3    3    0    0 -0.38174377463E+02 -0.19355205965E+02  0.10972589395E+02  0.44184893467E+02  0.00000000000E+00 0.  1.
</event>
<event>
 7    1  0.2153242E-013  0.7246160E+02  0.7816164E-02  0.1226708E+00
        -11   -1    0    0    0    0  0.00000000000E+00  0.00000000000E+00  0.45593999997E+02  0.45594000000E+02  0.51100000000E-03 0.  1.
         11   -1    0    0    0    0 -0.00000000000E+00 -0.00000000000E+00 -0.45593999997E+02  0.45594000000E+02  0.51100000000E-03 0. -1.
    9900012    2    1    2    0    0  0.11012400580E+02 -0.23458188470E+01  0.14963361584E+02  0.72461600920E+02  0.70000039895E+02 0.  0.
         12    1    1    2    0    0 -0.11012400580E+02  0.23458188470E+01 -0.14963361584E+02  0.18726399080E+02  0.00000000000E+00 0. -1.
         11    1    3    3    0    0  0.29366957213E+00 -0.10117153764E+02 -0.93078025070E+01  0.13750571984E+02  0.51100000000E-03 0. -1.
        -11    1    3    3    0    0  0.74773017878E+01 -0.21836517624E+02  0.14957639806E+02  0.27504082112E+02  0.51100000000E-03 0.  1.
        -12    1    3    3    0    0  0.32414292205E+01  0.29607852541E+02  0.93135242851E+01  0.31206946825E+02  0.00000000000E+00 0.  1.
</event>
<event>
 7    1  0.2153242E-013  0.7246159E+02  0.7816164E-02  0.1226708E+00
        -11   -1    0    0    0    0  0.00000000000E+00  0.00000000000E+00  0.45593999997E+02  0.45594000000E+02  0.51100000000E-03 0. -1.
         11   -1    0    0    0    0 -0.00000000000E+00 -0.00000000000E+00 -0.45593999997E+02  0.45594000000E+02  0.51100000000E-03 0.  1.
    9900012    2    1    2    0    0 -0.12950363830E+02  0.19761335351E+01 -0.13381389161E+02  0.72461585422E+02  0.70000019706E+02 0.  0.
         12    1    1    2    0    0  0.12950363830E+02 -0.19761335351E+01  0.13381389161E+02  0.18726414578E+02  0.00000000000E+00 0. -1.
         11    1    3    3    0    0 -0.23730287952E+02 -0.13468192197E+02  0.64989718531E+01  0.28049160464E+02  0.51100000000E-03 0. -1.
        -11    1    3    3    0    0 -0.36507409983E+01 -0.64884424157E+01  0.44031565359E+01  0.86496001387E+01  0.51100000000E-03 0.  1.
        -12    1    3    3    0    0  0.14430665120E+02  0.21932768148E+02 -0.24283517550E+02  0.35762824819E+02  0.00000000000E+00 0.  1.
</event>
<event>
 7    1  0.2153242E-013  0.7246163E+02  0.7816164E-02  0.1226708E+00
        -11   -1    0    0    0    0  0.00000000000E+00  0.00000000000E+00  0.45593999997E+02  0.45594000000E+02  0.51100000000E-03 0. -1.
         11   -1    0    0    0    0 -0.00000000000E+00 -0.00000000000E+00 -0.45593999997E+02  0.45594000000E+02  0.51100000000E-03 0.  1.
    9900012    2    1    2    0    0 -0.17687482770E+02 -0.15489338722E+01 -0.59523573546E+01  0.72461633536E+02  0.70000082384E+02 0.  0.
         12    1    1    2    0    0  0.17687482770E+02  0.15489338722E+01  0.59523573546E+01  0.18726366464E+02  0.00000000000E+00 0. -1.
         11    1    3    3    0    0  0.65171172263E+01 -0.91802255092E+01  0.23521326147E+02  0.26076850678E+02  0.51100000000E-03 0. -1.
        -11    1    3    3    0    0 -0.46717742674E+01  0.98998673886E-01  0.44945645564E+01  0.64835473589E+01  0.51100000000E-03 0.  1.
        -12    1    3    3    0    0 -0.19532825729E+02  0.75322929631E+01 -0.33968248058E+02  0.39901235499E+02  0.00000000000E+00 0.  1.
</event>
<event>
 7    1  0.2153242E-013  0.7246155E+02  0.7816164E-02  0.1226708E+00
        -11   -1    0    0    0    0  0.00000000000E+00  0.00000000000E+00  0.45593999997E+02  0.45594000000E+02  0.51100000000E-03 0.  1.
         11   -1    0    0    0    0 -0.00000000000E+00 -0.00000000000E+00 -0.45593999997E+02  0.45594000000E+02  0.51100000000E-03 0. -1.
    9900012    2    1    2    0    0 -0.87751981299E+01 -0.25523808760E+01  0.16345068899E+02  0.72461547382E+02  0.69999970152E+02 0.  0.
         12    1    1    2    0    0  0.87751981299E+01  0.25523808760E+01 -0.16345068899E+02  0.18726452618E+02  0.00000000000E+00 0. -1.
         11    1    3    3    0    0 -0.23594631292E+00 -0.12228259203E+02 -0.19637568237E+02  0.23134823975E+02  0.51100000000E-03 0. -1.
        -11    1    3    3    0    0 -0.63726883638E+01  0.62565943034E+01 -0.35331651190E+01  0.96041337599E+01  0.51100000000E-03 0.  1.
        -12    1    3    3    0    0 -0.21665634533E+01  0.34192840238E+01  0.39515802255E+02  0.39722589647E+02  0.00000000000E+00 0.  1.
</event>
<event>
 7    1  0.2153242E-013  0.7246155E+02  0.7816164E-02  0.1226708E+00
        -11   -1    0    0    0    0  0.00000000000E+00  0.00000000000E+00  0.45593999997E+02  0.45594000000E+02  0.51100000000E-03 0. -1.
         11   -1    0    0    0    0 -0.00000000000E+00 -0.00000000000E+00 -0.45593999997E+02  0.45594000000E+02  0.51100000000E-03 0.  1.
    9900012    2    1    2    0    0 -0.17329098196E+02 -0.28784609917E+01 -0.64882147153E+01  0.72461545126E+02  0.69999967213E+02 0.  0.
         12    1    1    2    0    0  0.17329098196E+02  0.28784609917E+01  0.64882147153E+01  0.18726454874E+02  0.00000000000E+00 0. -1.
         11    1    3    3    0    0 -0.11073426021E+01  0.38355325295E+01  0.20182486251E+02  0.20573533215E+02  0.51100000000E-03 0. -1.
        -11    1    3    3    0    0  0.10847430937E+02 -0.91662301883E+01 -0.58220851836E+00  0.14213567491E+02  0.51100000000E-03 0.  1.
         12    1    3    3    0    0 -0.27069186531E+02  0.24522366671E+01 -0.26088492448E+02  0.37674444420E+02  0.00000000000E+00 0. -1.
</event>
<event>
 7    1  0.2153242E-013  0.7246158E+02  0.7816164E-02  0.1226708E+00
        -11   -1    0    0    0    0  0.00000000000E+00  0.00000000000E+00  0.45593999997E+02  0.45594000000E+02  0.51100000000E-03 0.  1.
         11   -1    0    0    0    0 -0.00000000000E+00 -0.00000000000E+00 -0.45593999997E+02  0.45594000000E+02  0.51100000000E-03 0. -1.
    9900012    2    1    2    0    0  0.13284545404E+02  0.13035871054E+02 -0.20653901996E+01  0.72461577026E+02  0.70000008770E+02 0.  0.
         12    1    1    2    0    0 -0.13284545404E+02 -0.13035871054E+02  0.20653901996E+01  0.18726422974E+02  0.00000000000E+00 0. -1.
         11    1    3    3    0    0  0.99671148237E+01  0.14894340011E+02  0.12616630511E+02  0.21917210314E+02  0.51100000000E-03 0. -1.
        -11    1    3    3    0    0 -0.15796672985E+02  0.53415388563E+01  0.92597379283E+01  0.19073795152E+02  0.51100000000E-03 0.  1.
         12    1    3    3    0    0  0.19114103565E+02 -0.72000078132E+01 -0.23941758639E+02  0.31470571560E+02  0.00000000000E+00 0. -1.
</event>
<event>
 7    1  0.2153242E-013  0.7246156E+02  0.7816164E-02  0.1226708E+00
        -11   -1    0    0    0    0  0.00000000000E+00  0.00000000000E+00  0.45593999997E+02  0.45594000000E+02  0.51100000000E-03 0.  1.
         11   -1    0    0    0    0 -0.00000000000E+00 -0.00000000000E+00 -0.45593999997E+02  0.45594000000E+02  0.51100000000E-03 0. -1.
    9900012    2    1    2    0    0 -0.10490165282E+01 -0.11524338145E+02  0.14723068940E+02  0.72461559751E+02  0.69999986266E+02 0.  0.
         12    1    1    2    0    0  0.10490165282E+01  0.11524338145E+02 -0.14723068940E+02  0.18726440249E+02  0.00000000000E+00 0. -1.
         11    1    3    3    0    0 -0.39635775614E+01 -0.18314710539E+02  0.15968467477E+02  0.24619718175E+02  0.51100000000E-03 0.  1.
        -11    1    3    3    0    0  0.22499059898E+02  0.43382065511E+01 -0.11458218434E+02  0.25618713908E+02  0.51100000000E-03 0. -1.
         12    1    3    3    0    0 -0.19584498864E+02  0.24521658427E+01  0.10212819897E+02  0.22223127668E+02  0.00000000000E+00 0. -1.
</event>
<event>
 7    1  0.2153242E-013  0.7246175E+02  0.7816164E-02  0.1226708E+00
        -11   -1    0    0    0    0  0.00000000000E+00  0.00000000000E+00  0.45593999997E+02  0.45594000000E+02  0.51100000000E-03 0.  1.
         11   -1    0    0    0    0 -0.00000000000E+00 -0.00000000000E+00 -0.45593999997E+02  0.45594000000E+02  0.51100000000E-03 0. -1.
    9900012    2    1    2    0    0 -0.14947347164E+02  0.88553102069E+01  0.69880481229E+01  0.72461747768E+02  0.70000231192E+02 0.  0.
         12    1    1    2    0    0  0.14947347164E+02 -0.88553102069E+01 -0.69880481229E+01  0.18726252232E+02  0.00000000000E+00 0. -1.
         11    1    3    3    0    0 -0.13000479598E+02  0.12131330547E+02 -0.35248548839E+01  0.18127499905E+02  0.51100000000E-03 0. -1.
        -11    1    3    3    0    0 -0.15075813131E+02  0.58741819922E+01 -0.16390442799E+02  0.23031126135E+02  0.51100000000E-03 0.  1.
        -12    1    3    3    0    0  0.13128945564E+02 -0.91502023322E+01  0.26903345806E+02  0.31303121728E+02  0.00000000000E+00 0.  1.
</event>
<event>
 7    1  0.2153242E-013  0.7246155E+02  0.7816164E-02  0.1226708E+00
        -11   -1    0    0    0    0  0.00000000000E+00  0.00000000000E+00  0.45593999997E+02  0.45594000000E+02  0.51100000000E-03 0.  1.
         11   -1    0    0    0    0 -0.00000000000E+00 -0.00000000000E+00 -0.45593999997E+02  0.45594000000E+02  0.51100000000E-03 0. -1.
    9900012    2    1    2    0    0  0.33711023793E+01 -0.71801982923E+00  0.18406518776E+02  0.72461553002E+02  0.69999977474E+02 0.  0.
         12    1    1    2    0    0 -0.33711023793E+01  0.71801982923E+00 -0.18406518776E+02  0.18726446998E+02  0.00000000000E+00 0. -1.
         11    1    3    3    0    0  0.10088528099E+02 -0.20464905478E+02  0.82036275214E+01  0.24246448404E+02  0.51100000000E-03 0. -1.
        -11    1    3    3    0    0  0.14648061284E+02 -0.25448733055E+01  0.88629062163E+01  0.17308760394E+02  0.51100000000E-03 0.  1.
         12    1    3    3    0    0 -0.21365487004E+02  0.22291758954E+02  0.13399850380E+01  0.30906344204E+02  0.00000000000E+00 0. -1.
</event>
<event>
 7    1  0.2153242E-013  0.7246155E+02  0.7816164E-02  0.1226708E+00
        -11   -1    0    0    0    0  0.00000000000E+00  0.00000000000E+00  0.45593999997E+02  0.45594000000E+02  0.51100000000E-03 0.  1.
         11   -1    0    0    0    0 -0.00000000000E+00 -0.00000000000E+00 -0.45593999997E+02  0.45594000000E+02  0.51100000000E-03 0. -1.
    9900012    2    1    2    0    0 -0.58505650932E+01  0.10365177998E+02  0.14457316287E+02  0.72461547559E+02  0.69999970382E+02 0.  0.
         12    1    1    2    0    0  0.58505650932E+01 -0.10365177998E+02 -0.14457316287E+02  0.18726452441E+02  0.00000000000E+00 0. -1.
         11    1    3    3    0    0 -0.15479642825E+02  0.13766390677E+02  0.16853981621E+02  0.26705608980E+02  0.51100000000E-03 0. -1.
        -11    1    3    3    0    0  0.12247718030E+02 -0.81384892439E+00  0.19778197890E+02  0.23277587054E+02  0.51100000000E-03 0.  1.
         12    1    3    3    0    0 -0.26186402977E+01 -0.25873637547E+01 -0.22174863225E+02  0.22478351524E+02  0.00000000000E+00 0. -1.
</event>
<event>
 7    1  0.2153242E-013  0.7246157E+02  0.7816164E-02  0.1226708E+00
        -11   -1    0    0    0    0  0.00000000000E+00  0.00000000000E+00  0.45593999997E+02  0.45594000000E+02  0.51100000000E-03 0. -1.
         11   -1    0    0    0    0 -0.00000000000E+00 -0.00000000000E+00 -0.45593999997E+02  0.45594000000E+02  0.51100000000E-03 0.  1.
    9900012    2    1    2    0    0  0.18053378144E+02 -0.19711904016E+01  0.45682652834E+01  0.72461572105E+02  0.70000002359E+02 0.  0.
         12    1    1    2    0    0 -0.18053378144E+02  0.19711904016E+01 -0.45682652834E+01  0.18726427895E+02  0.00000000000E+00 0. -1.
         11    1    3    3    0    0 -0.53895949829E+01  0.79436971933E+01  0.17289035683E+02  0.19775257629E+02  0.51100000000E-03 0. -1.
        -11    1    3    3    0    0  0.11885940801E+02  0.17486434020E+02 -0.27561291022E+01  0.21322457911E+02  0.51100000000E-03 0.  1.
        -12    1    3    3    0    0  0.11557032326E+02 -0.27401321615E+02 -0.99646412978E+01  0.31363856565E+02  0.00000000000E+00 0.  1.
</event>
<event>
 7    1  0.2153242E-013  0.7246157E+02  0.7816164E-02  0.1226708E+00
        -11   -1    0    0    0    0  0.00000000000E+00  0.00000000000E+00  0.45593999997E+02  0.45594000000E+02  0.51100000000E-03 0. -1.
         11   -1    0    0    0    0 -0.00000000000E+00 -0.00000000000E+00 -0.45593999997E+02  0.45594000000E+02  0.51100000000E-03 0.  1.
    9900012    2    1    2    0    0  0.15978926605E+02  0.27016646796E+00 -0.97611523937E+01  0.72461569976E+02  0.69999999586E+02 0.  0.
         12    1    1    2    0    0 -0.15978926605E+02 -0.27016646796E+00  0.97611523937E+01  0.18726430024E+02  0.00000000000E+00 0. -1.
         11    1    3    3    0    0  0.26472063176E+02  0.36677964100E+01 -0.12022819258E+01  0.26751978271E+02  0.51100000000E-03 0. -1.
        -11    1    3    3    0    0  0.60378345883E+01  0.14351200765E+02  0.68118926978E+01  0.16994537131E+02  0.51100000000E-03 0.  1.
        -12    1    3    3    0    0 -0.16530971159E+02 -0.17748830707E+02 -0.15370763166E+02  0.28715054574E+02  0.00000000000E+00 0.  1.
</event>
<event>
 7    1  0.2153242E-013  0.7246156E+02  0.7816164E-02  0.1226708E+00
        -11   -1    0    0    0    0  0.00000000000E+00  0.00000000000E+00  0.45593999997E+02  0.45594000000E+02  0.51100000000E-03 0.  1.
         11   -1    0    0    0    0 -0.00000000000E+00 -0.00000000000E+00 -0.45593999997E+02  0.45594000000E+02  0.51100000000E-03 0. -1.
    9900012    2    1    2    0    0 -0.13783078452E+02 -0.12601067874E+02 -0.13854510321E+01  0.72461557793E+02  0.69999983715E+02 0.  0.
         12    1    1    2    0    0  0.13783078452E+02  0.12601067874E+02  0.13854510321E+01  0.18726442207E+02  0.00000000000E+00 0. -1.
         11    1    3    3    0    0  0.52750363945E+01 -0.33559439537E+02 -0.14558466809E+02  0.36959585321E+02  0.51100000000E-03 0. -1.
        -11    1    3    3    0    0 -0.18555315573E+01 -0.29308061251E+01  0.74631224494E+00  0.35481832156E+01  0.51100000000E-03 0.  1.
        -12    1    3    3    0    0 -0.17202583289E+02  0.23889177788E+02  0.12426703532E+02  0.31953789257E+02  0.00000000000E+00 0.  1.
</event>
<event>
 7    1  0.2153242E-013  0.7246155E+02  0.7816164E-02  0.1226708E+00
        -11   -1    0    0    0    0  0.00000000000E+00  0.00000000000E+00  0.45593999997E+02  0.45594000000E+02  0.51100000000E-03 0.  1.
         11   -1    0    0    0    0 -0.00000000000E+00 -0.00000000000E+00 -0.45593999997E+02  0.45594000000E+02  0.51100000000E-03 0. -1.
    9900012    2    1    2    0    0 -0.15992461672E+02 -0.79458330393E+01  0.56378194924E+01  0.72461545407E+02  0.69999967579E+02 0.  0.
         12    1    1    2    0    0  0.15992461672E+02  0.79458330393E+01 -0.56378194924E+01  0.18726454593E+02  0.00000000000E+00 0. -1.
         11    1    3    3    0    0 -0.10656474986E+02 -0.31553918231E+01  0.12686942907E+02  0.16866400839E+02  0.51100000000E-03 0. -1.
        -11    1    3    3    0    0 -0.14831518534E+02  0.20055191570E+02 -0.13306115719E+02  0.28270786454E+02  0.51100000000E-03 0.  1.
         12    1    3    3    0    0  0.94955318485E+01 -0.24845632786E+02  0.62569923045E+01  0.27324358114E+02  0.00000000000E+00 0. -1.
</event>
<event>
 7    1  0.2153242E-013  0.7246156E+02  0.7816164E-02  0.1226708E+00
        -11   -1    0    0    0    0  0.00000000000E+00  0.00000000000E+00  0.45593999997E+02  0.45594000000E+02  0.51100000000E-03 0.  1.
         11   -1    0    0    0    0 -0.00000000000E+00 -0.00000000000E+00 -0.45593999997E+02  0.45594000000E+02  0.51100000000E-03 0. -1.
    9900012    2    1    2    0    0 -0.84805908845E+01  0.15037951333E+02 -0.72539099757E+01  0.72461558480E+02  0.69999984610E+02 0.  0.
         12    1    1    2    0    0  0.84805908845E+01 -0.15037951333E+02  0.72539099757E+01  0.18726441520E+02  0.00000000000E+00 0. -1.
         11    1    3    3    0    0  0.13211856316E+02 -0.21890014322E+01 -0.99015929238E+00  0.13428525245E+02  0.51100000000E-03 0. -1.
        -11    1    3    3    0    0  0.66505032376E+01  0.27689047663E+02 -0.36113512194E+01  0.28704606106E+02  0.51100000000E-03 0.  1.
        -12    1    3    3    0    0 -0.28342950438E+02 -0.10462094898E+02 -0.26523994639E+01  0.30328427129E+02  0.00000000000E+00 0.  1.
</event>
<event>
 7    1  0.2153242E-013  0.7246151E+02  0.7816164E-02  0.1226708E+00
        -11   -1    0    0    0    0  0.00000000000E+00  0.00000000000E+00  0.45593999997E+02  0.45594000000E+02  0.51100000000E-03 0.  1.
         11   -1    0    0    0    0 -0.00000000000E+00 -0.00000000000E+00 -0.45593999997E+02  0.45594000000E+02  0.51100000000E-03 0. -1.
    9900012    2    1    2    0    0  0.15450723572E+02 -0.99965327681E+01 -0.34678184325E+01  0.72461513652E+02  0.69999926212E+02 0.  0.
         12    1    1    2    0    0 -0.15450723572E+02  0.99965327681E+01  0.34678184325E+01  0.18726486348E+02  0.00000000000E+00 0. -1.
         11    1    3    3    0    0 -0.13819811302E+01  0.42771800365E+01 -0.13610300020E+02  0.14333332055E+02  0.51100000000E-03 0. -1.
        -11    1    3    3    0    0 -0.10647355236E+02  0.13597114986E+02 -0.13868854203E+01  0.17325448361E+02  0.51100000000E-03 0.  1.
        -12    1    3    3    0    0  0.27480059938E+02 -0.27870827790E+02  0.11529367008E+02  0.40802733236E+02  0.00000000000E+00 0.  1.
</event>
<event>
 7    1  0.2153242E-013  0.7246165E+02  0.7816164E-02  0.1226708E+00
        -11   -1    0    0    0    0  0.00000000000E+00  0.00000000000E+00  0.45593999997E+02  0.45594000000E+02  0.51100000000E-03 0.  1.
         11   -1    0    0    0    0 -0.00000000000E+00 -0.00000000000E+00 -0.45593999997E+02  0.45594000000E+02  0.51100000000E-03 0. -1.
    9900012    2    1    2    0    0  0.32686873644E+00  0.35312635991E+00  0.18720168932E+02  0.72461647813E+02  0.70000100982E+02 0.  0.
         12    1    1    2    0    0 -0.32686873644E+00 -0.35312635991E+00 -0.18720168932E+02  0.18726352187E+02  0.00000000000E+00 0. -1.
         11    1    3    3    0    0  0.16025095955E+02 -0.15414505037E+02  0.21347218748E+02  0.30823926006E+02  0.51100000000E-03 0. -1.
        -11    1    3    3    0    0  0.46042040601E-01 -0.77782230262E+01  0.82109779520E+01  0.11310306473E+02  0.51100000000E-03 0.  1.
        -12    1    3    3    0    0 -0.15744269259E+02  0.23545854423E+02 -0.10838027768E+02  0.30327415335E+02  0.00000000000E+00 0.  1.
</event>
<event>
 7    1  0.2153242E-013  0.7246155E+02  0.7816164E-02  0.1226708E+00
        -11   -1    0    0    0    0  0.00000000000E+00  0.00000000000E+00  0.45593999997E+02  0.45594000000E+02  0.51100000000E-03 0.  1.
         11   -1    0    0    0    0 -0.00000000000E+00 -0.00000000000E+00 -0.45593999997E+02  0.45594000000E+02  0.51100000000E-03 0. -1.
    9900012    2    1    2    0    0  0.37718914036E+01  0.29256809205E-01  0.18342621051E+02  0.72461554321E+02  0.69999979192E+02 0.  0.
         12    1    1    2    0    0 -0.37718914036E+01 -0.29256809205E-01 -0.18342621051E+02  0.18726445679E+02  0.00000000000E+00 0. -1.
         11    1    3    3    0    0  0.13360399698E+02 -0.10774467906E+02  0.34603688441E+01  0.17508957466E+02  0.51100000000E-03 0. -1.
        -11    1    3    3    0    0  0.18102488412E+02  0.15505321660E+02  0.16158930118E+01  0.23889876454E+02  0.51100000000E-03 0.  1.
         12    1    3    3    0    0 -0.27690996707E+02 -0.47015969440E+01  0.13266359195E+02  0.31062720401E+02  0.00000000000E+00 0. -1.
</event>
<event>
 7    1  0.2153242E-013  0.7246151E+02  0.7816164E-02  0.1226708E+00
        -11   -1    0    0    0    0  0.00000000000E+00  0.00000000000E+00  0.45593999997E+02  0.45594000000E+02  0.51100000000E-03 0.  1.
         11   -1    0    0    0    0 -0.00000000000E+00 -0.00000000000E+00 -0.45593999997E+02  0.45594000000E+02  0.51100000000E-03 0. -1.
    9900012    2    1    2    0    0 -0.17902421544E+02 -0.54234832421E+01  0.87789960247E+00  0.72461506059E+02  0.69999916322E+02 0.  0.
         12    1    1    2    0    0  0.17902421544E+02  0.54234832421E+01 -0.87789960247E+00  0.18726493941E+02  0.00000000000E+00 0. -1.
         11    1    3    3    0    0 -0.14574216494E+02  0.12015754780E+01  0.47115630899E+01  0.15363931693E+02  0.51100000000E-03 0. -1.
        -11    1    3    3    0    0 -0.19618969835E+02 -0.59853865936E+01 -0.23735570554E+02  0.31370466044E+02  0.51100000000E-03 0.  1.
         12    1    3    3    0    0  0.16290764785E+02 -0.63967212653E+00  0.19901907067E+02  0.25727108322E+02  0.00000000000E+00 0. -1.
</event>
<event>
 7    1  0.2153242E-013  0.7246150E+02  0.7816164E-02  0.1226708E+00
        -11   -1    0    0    0    0  0.00000000000E+00  0.00000000000E+00  0.45593999997E+02  0.45594000000E+02  0.51100000000E-03 0.  1.
         11   -1    0    0    0    0 -0.00000000000E+00 -0.00000000000E+00 -0.45593999997E+02  0.45594000000E+02  0.51100000000E-03 0. -1.
    9900012    2    1    2    0    0  0.12565801138E+02 -0.68750512771E+01 -0.12063007138E+02  0.72461499272E+02  0.69999907481E+02 0.  0.
         12    1    1    2    0    0 -0.12565801138E+02  0.68750512771E+01  0.12063007138E+02  0.18726500728E+02  0.00000000000E+00 0. -1.
         11    1    3    3    0    0 -0.77208610562E+01  0.12184265668E+02  0.10006519409E+02  0.17555581912E+02  0.51100000000E-03 0. -1.
        -11    1    3    3    0    0  0.94172706228E+01 -0.16294178099E+02  0.97301577737E+01  0.21186344575E+02  0.51100000000E-03 0.  1.
         12    1    3    3    0    0  0.10869391571E+02 -0.27651388461E+01 -0.31799684320E+02  0.33719572786E+02  0.00000000000E+00 0. -1.
</event>
<event>
 7    1  0.2153242E-013  0.7246157E+02  0.7816164E-02  0.1226708E+00
        -11   -1    0    0    0    0  0.00000000000E+00  0.00000000000E+00  0.45593999997E+02  0.45594000000E+02  0.51100000000E-03 0.  1.
         11   -1    0    0    0    0 -0.00000000000E+00 -0.00000000000E+00 -0.45593999997E+02  0.45594000000E+02  0.51100000000E-03 0. -1.
    9900012    2    1    2    0    0  0.93138908599E+01  0.17722632042E+00  0.16244976784E+02  0.72461568337E+02  0.69999997450E+02 0.  0.
         12    1    1    2    0    0 -0.93138908599E+01 -0.17722632042E+00 -0.16244976784E+02  0.18726431663E+02  0.00000000000E+00 0. -1.
         11    1    3    3    0    0 -0.46174013317E+01 -0.27626552243E+02  0.64927476948E+01  0.28752435667E+02  0.51100000000E-03 0. -1.
        -11    1    3    3    0    0  0.86012554304E+00 -0.58807677766E+01 -0.96558413403E+00  0.60212622077E+01  0.51100000000E-03 0.  1.
        -12    1    3    3    0    0  0.13071166649E+02  0.33684546340E+02  0.10717813224E+02  0.37687870462E+02  0.00000000000E+00 0.  1.
</event>
<event>
 7    1  0.2153242E-013  0.7246158E+02  0.7816164E-02  0.1226708E+00
        -11   -1    0    0    0    0  0.00000000000E+00  0.00000000000E+00  0.45593999997E+02  0.45594000000E+02  0.51100000000E-03 0. -1.
         11   -1    0    0    0    0 -0.00000000000E+00 -0.00000000000E+00 -0.45593999997E+02  0.45594000000E+02  0.51100000000E-03 0.  1.
    9900012    2    1    2    0    0 -0.77397907078E+01 -0.16980671292E+02  0.15592749139E+01  0.72461577598E+02  0.70000009514E+02 0.  0.
         12    1    1    2    0    0  0.77397907078E+01  0.16980671292E+02 -0.15592749139E+01  0.18726422402E+02  0.00000000000E+00 0. -1.
         11    1    3    3    0    0 -0.24876081563E+01 -0.17273180563E+02 -0.97797152095E+01  0.20004844187E+02  0.51100000000E-03 0.  1.
        -11    1    3    3    0    0 -0.18749805354E+02 -0.18807652265E+02  0.21511709402E+00  0.26558035698E+02  0.51100000000E-03 0. -1.
         12    1    3    3    0    0  0.13497622803E+02  0.19100161536E+02  0.11123873029E+02  0.25898697712E+02  0.00000000000E+00 0. -1.
</event>
<event>
 7    1  0.2153242E-013  0.7246156E+02  0.7816164E-02  0.1226708E+00
        -11   -1    0    0    0    0  0.00000000000E+00  0.00000000000E+00  0.45593999997E+02  0.45594000000E+02  0.51100000000E-03 0.  1.
         11   -1    0    0    0    0 -0.00000000000E+00 -0.00000000000E+00 -0.45593999997E+02  0.45594000000E+02  0.51100000000E-03 0. -1.
    9900012    2    1    2    0    0  0.12731743159E+01  0.16548477884E+02  0.86721557515E+01  0.72461564715E+02  0.69999992731E+02 0.  0.
         12    1    1    2    0    0 -0.12731743159E+01 -0.16548477884E+02 -0.86721557515E+01  0.18726435285E+02  0.00000000000E+00 0. -1.
         11    1    3    3    0    0 -0.28259648027E+01  0.12776251639E+02 -0.18852912688E+02  0.22948877970E+02  0.51100000000E-03 0. -1.
        -11    1    3    3    0    0 -0.10591618077E+02  0.81973571293E+01 -0.43956541653E+01  0.14096127596E+02  0.51100000000E-03 0.  1.
        -12    1    3    3    0    0  0.14690757196E+02 -0.44251308840E+01  0.31920722605E+02  0.35416559149E+02  0.00000000000E+00 0.  1.
</event>
<event>
 7    1  0.2153242E-013  0.7246111E+02  0.7816164E-02  0.1226709E+00
        -11   -1    0    0    0    0  0.00000000000E+00  0.00000000000E+00  0.45593999997E+02  0.45594000000E+02  0.51100000000E-03 0. -1.
         11   -1    0    0    0    0 -0.00000000000E+00 -0.00000000000E+00 -0.45593999997E+02  0.45594000000E+02  0.51100000000E-03 0.  1.
    9900012    2    1    2    0    0  0.16983643866E+02  0.54841491530E+01  0.56724132480E+01  0.72461112299E+02  0.69999403374E+02 0.  0.
         12    1    1    2    0    0 -0.16983643866E+02 -0.54841491530E+01 -0.56724132480E+01  0.18726887701E+02  0.00000000000E+00 0. -1.
         11    1    3    3    0    0 -0.36777398949E+01 -0.13383366575E+02 -0.71313321097E+01  0.15604363798E+02  0.51100000000E-03 0. -1.
        -11    1    3    3    0    0  0.14256930778E+02 -0.11109689484E+02  0.18292215225E+02  0.25715567537E+02  0.51100000000E-03 0.  1.
        -12    1    3    3    0    0  0.64044529830E+01  0.29977205213E+02 -0.54884698674E+01  0.31141180964E+02  0.00000000000E+00 0.  1.
</event>
<event>
 7    1  0.2153242E-013  0.7246163E+02  0.7816164E-02  0.1226708E+00
        -11   -1    0    0    0    0  0.00000000000E+00  0.00000000000E+00  0.45593999997E+02  0.45594000000E+02  0.51100000000E-03 0.  1.
         11   -1    0    0    0    0 -0.00000000000E+00 -0.00000000000E+00 -0.45593999997E+02  0.45594000000E+02  0.51100000000E-03 0. -1.
    9900012    2    1    2    0    0  0.61955515274E+01 -0.16687226380E+02 -0.58162304310E+01  0.72461630373E+02  0.70000078263E+02 0.  0.
         12    1    1    2    0    0 -0.61955515274E+01  0.16687226380E+02  0.58162304310E+01  0.18726369627E+02  0.00000000000E+00 0. -1.
         11    1    3    3    0    0  0.23988481307E+02 -0.23058486489E+02 -0.63046557513E+01  0.33865760275E+02  0.51100000000E-03 0. -1.
        -11    1    3    3    0    0 -0.15217347503E+02 -0.11496220018E+02  0.55220386621E+01  0.19855066129E+02  0.51100000000E-03 0.  1.
        -12    1    3    3    0    0 -0.25755822769E+01  0.17867480127E+02 -0.50336133419E+01  0.18740803970E+02  0.00000000000E+00 0.  1.
</event>
<event>
 7    1  0.2153242E-013  0.7246103E+02  0.7816164E-02  0.1226709E+00
        -11   -1    0    0    0    0  0.00000000000E+00  0.00000000000E+00  0.45593999997E+02  0.45594000000E+02  0.51100000000E-03 0.  1.
         11   -1    0    0    0    0 -0.00000000000E+00 -0.00000000000E+00 -0.45593999997E+02  0.45594000000E+02  0.51100000000E-03 0. -1.
    9900012    2    1    2    0    0 -0.20704934989E+01 -0.11895761398E+02  0.14314449870E+02  0.72461025935E+02  0.69999290867E+02 0.  0.
         12    1    1    2    0    0  0.20704934989E+01  0.11895761398E+02 -0.14314449870E+02  0.18726974065E+02  0.00000000000E+00 0. -1.
         11    1    3    3    0    0  0.25408152793E+02  0.43126200858E+01 -0.74983026726E+01  0.26840221005E+02  0.51100000000E-03 0. -1.
        -11    1    3    3    0    0 -0.71829529851E+00 -0.44052107040E+01 -0.44569222117E+01  0.63076132844E+01  0.51100000000E-03 0.  1.
        -12    1    3    3    0    0 -0.26760350993E+02 -0.11803170779E+02  0.26269674754E+02  0.39313191646E+02  0.00000000000E+00 0.  1.
</event>
<event>
 7    1  0.2153242E-013  0.7246161E+02  0.7816164E-02  0.1226708E+00
        -11   -1    0    0    0    0  0.00000000000E+00  0.00000000000E+00  0.45593999997E+02  0.45594000000E+02  0.51100000000E-03 0.  1.
         11   -1    0    0    0    0 -0.00000000000E+00 -0.00000000000E+00 -0.45593999997E+02  0.45594000000E+02  0.51100000000E-03 0. -1.
    9900012    2    1    2    0    0  0.11216443651E+02 -0.58577485439E+01 -0.13804199611E+02  0.72461608114E+02  0.70000049267E+02 0.  0.
         12    1    1    2    0    0 -0.11216443651E+02  0.58577485439E+01  0.13804199611E+02  0.18726391886E+02  0.00000000000E+00 0. -1.
         11    1    3    3    0    0 -0.26278532305E+02 -0.10566601437E+02 -0.86557726310E+01  0.29616494157E+02  0.51100000000E-03 0. -1.
        -11    1    3    3    0    0 -0.13157132210E+01 -0.27022588973E+01 -0.67804080000E+00  0.30810783851E+01  0.51100000000E-03 0.  1.
        -12    1    3    3    0    0  0.38810689177E+02  0.74111117904E+01 -0.44703861799E+01  0.39764035572E+02  0.00000000000E+00 0.  1.
</event>
<event>
 7    1  0.2153242E-013  0.7246154E+02  0.7816164E-02  0.1226708E+00
        -11   -1    0    0    0    0  0.00000000000E+00  0.00000000000E+00  0.45593999997E+02  0.45594000000E+02  0.51100000000E-03 0.  1.
         11   -1    0    0    0    0 -0.00000000000E+00 -0.00000000000E+00 -0.45593999997E+02  0.45594000000E+02  0.51100000000E-03 0. -1.
    9900012    2    1    2    0    0  0.19885765876E+00  0.15525819304E+02  0.10468516193E+02  0.72461536353E+02  0.69999955785E+02 0.  0.
         12    1    1    2    0    0 -0.19885765876E+00 -0.15525819304E+02 -0.10468516193E+02  0.18726463647E+02  0.00000000000E+00 0. -1.
         11    1    3    3    0    0  0.59079394257E+00 -0.22621370216E+00  0.17737550771E+02  0.17748828630E+02  0.51100000000E-03 0.  1.
        -11    1    3    3    0    0 -0.21897138987E+02  0.79851567720E+01  0.10686145203E+02  0.25640614736E+02  0.51100000000E-03 0. -1.
        -12    1    3    3    0    0  0.21505202703E+02  0.77668762342E+01 -0.17955179780E+02  0.29072092988E+02  0.00000000000E+00 0.  1.
</event>
<event>
 7    1  0.2153242E-013  0.7246156E+02  0.7816164E-02  0.1226708E+00
        -11   -1    0    0    0    0  0.00000000000E+00  0.00000000000E+00  0.45593999997E+02  0.45594000000E+02  0.51100000000E-03 0.  1.
         11   -1    0    0    0    0 -0.00000000000E+00 -0.00000000000E+00 -0.45593999997E+02  0.45594000000E+02  0.51100000000E-03 0. -1.
    9900012    2    1    2    0    0  0.13091042358E+02 -0.12338364731E+02  0.52027927611E+01  0.72461556483E+02  0.69999982009E+02 0.  0.
         12    1    1    2    0    0 -0.13091042358E+02  0.12338364731E+02 -0.52027927611E+01  0.18726443517E+02  0.00000000000E+00 0. -1.
         11    1    3    3    0    0 -0.75152180569E+00 -0.28178002160E+02  0.52275166256E+01  0.28668650493E+02  0.51100000000E-03 0.  1.
        -11    1    3    3    0    0 -0.96767093422E+01  0.51439127164E+01  0.11157939546E+02  0.15639634168E+02  0.51100000000E-03 0. -1.
         12    1    3    3    0    0  0.23519273506E+02  0.10695724712E+02 -0.11182663411E+02  0.28153271823E+02  0.00000000000E+00 0. -1.
</event>
<event>
 7    1  0.2153242E-013  0.7246182E+02  0.7816164E-02  0.1226707E+00
        -11   -1    0    0    0    0  0.00000000000E+00  0.00000000000E+00  0.45593999997E+02  0.45594000000E+02  0.51100000000E-03 0.  1.
         11   -1    0    0    0    0 -0.00000000000E+00 -0.00000000000E+00 -0.45593999997E+02  0.45594000000E+02  0.51100000000E-03 0. -1.
    9900012    2    1    2    0    0  0.38473418778E+01  0.14460398451E+02  0.11258986527E+02  0.72461816713E+02  0.70000321006E+02 0.  0.
         12    1    1    2    0    0 -0.38473418778E+01 -0.14460398451E+02 -0.11258986527E+02  0.18726183287E+02  0.00000000000E+00 0. -1.
         11    1    3    3    0    0 -0.23040749009E-02 -0.90952618190E+01 -0.85324403874E+00  0.91351966873E+01  0.51100000000E-03 0. -1.
        -11    1    3    3    0    0 -0.18595880023E+00 -0.19118834811E+02  0.15681494836E+01  0.19183939070E+02  0.51100000000E-03 0.  1.
         12    1    3    3    0    0  0.40356047529E+01  0.42674495080E+02  0.10544081082E+02  0.44142680956E+02  0.00000000000E+00 0. -1.
</event>
<event>
 7    1  0.2153242E-013  0.7246132E+02  0.7816164E-02  0.1226709E+00
        -11   -1    0    0    0    0  0.00000000000E+00  0.00000000000E+00  0.45593999997E+02  0.45594000000E+02  0.51100000000E-03 0.  1.
         11   -1    0    0    0    0 -0.00000000000E+00 -0.00000000000E+00 -0.45593999997E+02  0.45594000000E+02  0.51100000000E-03 0. -1.
    9900012    2    1    2    0    0  0.14006500545E+02  0.11226504062E+02  0.53359288143E+01  0.72461318840E+02  0.69999672433E+02 0.  0.
         12    1    1    2    0    0 -0.14006500545E+02 -0.11226504062E+02 -0.53359288143E+01  0.18726681160E+02  0.00000000000E+00 0. -1.
         11    1    3    3    0    0 -0.14088950976E+02  0.71265341284E+01  0.60220902081E+01  0.16898272072E+02  0.51100000000E-03 0. -1.
        -11    1    3    3    0    0 -0.26972753699E+01  0.19613854237E+02 -0.59735086076E+01  0.20679975285E+02  0.51100000000E-03 0.  1.
         12    1    3    3    0    0  0.30792726890E+02 -0.15513884303E+02  0.52873472138E+01  0.34883071483E+02  0.00000000000E+00 0. -1.
</event>
<event>
 7    1  0.2153242E-013  0.7246149E+02  0.7816164E-02  0.1226708E+00
        -11   -1    0    0    0    0  0.00000000000E+00  0.00000000000E+00  0.45593999997E+02  0.45594000000E+02  0.51100000000E-03 0.  1.
         11   -1    0    0    0    0 -0.00000000000E+00 -0.00000000000E+00 -0.45593999997E+02  0.45594000000E+02  0.51100000000E-03 0. -1.
    9900012    2    1    2    0    0  0.85472390363E+01  0.15499686281E+02  0.61144671747E+01  0.72461487277E+02  0.69999891854E+02 0.  0.
         12    1    1    2    0    0 -0.85472390363E+01 -0.15499686281E+02 -0.61144671747E+01  0.18726512723E+02  0.00000000000E+00 0. -1.
         11    1    3    3    0    0  0.11280524909E+02 -0.15850398747E+02 -0.10989999083E+02  0.22344248986E+02  0.51100000000E-03 0. -1.
        -11    1    3    3    0    0  0.13696756089E+02  0.26443265019E+02  0.87224979105E+01  0.31031103143E+02  0.51100000000E-03 0.  1.
        -12    1    3    3    0    0 -0.16430041962E+02  0.49068200089E+01  0.83819683473E+01  0.19086135147E+02  0.00000000000E+00 0.  1.
</event>
<event>
 7    1  0.2153242E-013  0.7246155E+02  0.7816164E-02  0.1226708E+00
        -11   -1    0    0    0    0  0.00000000000E+00  0.00000000000E+00  0.45593999997E+02  0.45594000000E+02  0.51100000000E-03 0.  1.
         11   -1    0    0    0    0 -0.00000000000E+00 -0.00000000000E+00 -0.45593999997E+02  0.45594000000E+02  0.51100000000E-03 0. -1.
    9900012    2    1    2    0    0 -0.27652582032E+01  0.16236022735E+02  0.89120646062E+01  0.72461548581E+02  0.69999971715E+02 0.  0.
         12    1    1    2    0    0  0.27652582032E+01 -0.16236022735E+02 -0.89120646062E+01  0.18726451419E+02  0.00000000000E+00 0. -1.
         11    1    3    3    0    0 -0.26851035879E+01 -0.90802410526E+00  0.55001277540E+01  0.61875435049E+01  0.51100000000E-03 0. -1.
        -11    1    3    3    0    0  0.30781676666E+02  0.67925852606E+00  0.53085596248E+01  0.31243460373E+02  0.51100000000E-03 0.  1.
         12    1    3    3    0    0 -0.30861831281E+02  0.16464788314E+02 -0.18966227727E+01  0.35030544704E+02  0.00000000000E+00 0. -1.
</event>
<event>
 7    1  0.2153242E-013  0.7246150E+02  0.7816164E-02  0.1226708E+00
        -11   -1    0    0    0    0  0.00000000000E+00  0.00000000000E+00  0.45593999997E+02  0.45594000000E+02  0.51100000000E-03 0. -1.
         11   -1    0    0    0    0 -0.00000000000E+00 -0.00000000000E+00 -0.45593999997E+02  0.45594000000E+02  0.51100000000E-03 0.  1.
    9900012    2    1    2    0    0  0.66860890206E+01  0.17281031511E+02 -0.27100038243E+01  0.72461495863E+02  0.69999903039E+02 0.  0.
         12    1    1    2    0    0 -0.66860890206E+01 -0.17281031511E+02  0.27100038243E+01  0.18726504137E+02  0.00000000000E+00 0. -1.
         11    1    3    3    0    0 -0.30927928865E+01  0.17253727881E+02  0.67919528494E+01  0.18798593495E+02  0.51100000000E-03 0. -1.
        -11    1    3    3    0    0  0.27089513377E+02  0.12256918913E+02  0.15224679713E+01  0.29772331202E+02  0.51100000000E-03 0.  1.
        -12    1    3    3    0    0 -0.17310631470E+02 -0.12229615283E+02 -0.11024424645E+02  0.23890571165E+02  0.00000000000E+00 0.  1.
</event>
<event>
 7    1  0.2153242E-013  0.7246148E+02  0.7816164E-02  0.1226708E+00
        -11   -1    0    0    0    0  0.00000000000E+00  0.00000000000E+00  0.45593999997E+02  0.45594000000E+02  0.51100000000E-03 0.  1.
         11   -1    0    0    0    0 -0.00000000000E+00 -0.00000000000E+00 -0.45593999997E+02  0.45594000000E+02  0.51100000000E-03 0. -1.
    9900012    2    1    2    0    0 -0.78636029005E+01 -0.11653269656E+02  0.12371242262E+02  0.72461479251E+02  0.69999881399E+02 0.  0.
         12    1    1    2    0    0  0.78636029005E+01  0.11653269656E+02 -0.12371242262E+02  0.18726520749E+02  0.00000000000E+00 0. -1.
         11    1    3    3    0    0  0.64473621232E+01  0.22519468503E+02  0.35054047782E+01  0.23685075531E+02  0.51100000000E-03 0. -1.
        -11    1    3    3    0    0  0.31463319720E+00 -0.23853169617E+02  0.16820117913E+02  0.29188851668E+02  0.51100000000E-03 0.  1.
        -12    1    3    3    0    0 -0.14625598221E+02 -0.10319568542E+02 -0.79542804296E+01  0.19587552052E+02  0.00000000000E+00 0.  1.
</event>
<event>
 7    1  0.2153242E-013  0.7246142E+02  0.7816164E-02  0.1226708E+00
        -11   -1    0    0    0    0  0.00000000000E+00  0.00000000000E+00  0.45593999997E+02  0.45594000000E+02  0.51100000000E-03 0.  1.
         11   -1    0    0    0    0 -0.00000000000E+00 -0.00000000000E+00 -0.45593999997E+02  0.45594000000E+02  0.51100000000E-03 0. -1.
    9900012    2    1    2    0    0  0.97552763715E+01 -0.11537674537E+02  0.11063511530E+02  0.72461424280E+02  0.69999809789E+02 0.  0.
         12    1    1    2    0    0 -0.97552763715E+01  0.11537674537E+02 -0.11063511530E+02  0.18726575720E+02  0.00000000000E+00 0. -1.
         11    1    3    3    0    0  0.14204204035E+02  0.19575221026E+01 -0.15663290749E+02  0.21235112018E+02  0.51100000000E-03 0. -1.
        -11    1    3    3    0    0  0.10166268323E+01  0.82142377036E+00 -0.10702183423E+02  0.10781697335E+02  0.51100000000E-03 0.  1.
        -12    1    3    3    0    0 -0.54655544961E+01 -0.14316620410E+02  0.37428985703E+02  0.40444614928E+02  0.00000000000E+00 0.  1.
</event>
<event>
 7    1  0.3168328E-013  0.7246160E+02  0.7816164E-02  0.1226708E+00
        -11   -1    0    0    0    0  0.00000000000E+00  0.00000000000E+00  0.45593999997E+02  0.45594000000E+02  0.51100000000E-03 0. -1.
         11   -1    0    0    0    0 -0.00000000000E+00 -0.00000000000E+00 -0.45593999997E+02  0.45594000000E+02  0.51100000000E-03 0.  1.
    9900012    2    1    2    0    0  0.18269652528E+02  0.27092796802E+00 -0.41017761705E+01  0.72461596897E+02  0.70000034654E+02 0.  0.
         12    1    1    2    0    0 -0.18269652528E+02 -0.27092796802E+00  0.41017761705E+01  0.18726403103E+02  0.00000000000E+00 0. -1.
         11    1    3    3    0    0 -0.12191046730E+01  0.14528647097E+02 -0.19440528210E+01  0.14708743804E+02  0.51100000000E-03 0. -1.
        -11    1    3    3    0    0  0.23244792641E+02  0.12675240793E+02 -0.11683147899E+02  0.28939213175E+02  0.51100000000E-03 0.  1.
         12    1    3    3    0    0 -0.37560354407E+01 -0.26932959922E+02  0.95254245499E+01  0.28813639917E+02  0.00000000000E+00 0. -1.
</event>
<event>
 7    1  0.2153242E-013  0.7246156E+02  0.7816164E-02  0.1226708E+00
        -11   -1    0    0    0    0  0.00000000000E+00  0.00000000000E+00  0.45593999997E+02  0.45594000000E+02  0.51100000000E-03 0.  1.
         11   -1    0    0    0    0 -0.00000000000E+00 -0.00000000000E+00 -0.45593999997E+02  0.45594000000E+02  0.51100000000E-03 0. -1.
    9900012    2    1    2    0    0  0.11303960031E+02 -0.14116866605E+02  0.48594207341E+01  0.72461564007E+02  0.69999991810E+02 0.  0.
         12    1    1    2    0    0 -0.11303960031E+02  0.14116866605E+02 -0.48594207341E+01  0.18726435993E+02  0.00000000000E+00 0. -1.
         11    1    3    3    0    0  0.64604278366E+01  0.17727913844E+02  0.14643459114E+02  0.23884031321E+02  0.51100000000E-03 0. -1.
        -11    1    3    3    0    0  0.79506429133E+01 -0.25058141391E+01  0.10027366505E+02  0.13039935065E+02  0.51100000000E-03 0.  1.
         12    1    3    3    0    0 -0.31071107189E+01 -0.29338966310E+02 -0.19811404884E+02  0.35537597620E+02  0.00000000000E+00 0. -1.
</event>
<event>
 7    1  0.2153242E-013  0.7246158E+02  0.7816164E-02  0.1226708E+00
        -11   -1    0    0    0    0  0.00000000000E+00  0.00000000000E+00  0.45593999997E+02  0.45594000000E+02  0.51100000000E-03 0.  1.
         11   -1    0    0    0    0 -0.00000000000E+00 -0.00000000000E+00 -0.45593999997E+02  0.45594000000E+02  0.51100000000E-03 0. -1.
    9900012    2    1    2    0    0  0.35700885445E+01 -0.94528787956E+00  0.18358636314E+02  0.72461584735E+02  0.70000018811E+02 0.  0.
         12    1    1    2    0    0 -0.35700885445E+01  0.94528787956E+00 -0.18358636314E+02  0.18726415265E+02  0.00000000000E+00 0. -1.
         11    1    3    3    0    0 -0.70838013344E+00  0.15305858892E+02 -0.99762918391E+01  0.18283804800E+02  0.51100000000E-03 0. -1.
        -11    1    3    3    0    0 -0.26865598956E+01 -0.85459819554E+01 -0.10601621340E+02  0.13879689728E+02  0.51100000000E-03 0.  1.
        -12    1    3    3    0    0  0.69650285735E+01 -0.77051648164E+01  0.38936549493E+02  0.40298090206E+02  0.00000000000E+00 0.  1.
</event>
<event>
 7    1  0.2153242E-013  0.7246154E+02  0.7816164E-02  0.1226708E+00
        -11   -1    0    0    0    0  0.00000000000E+00  0.00000000000E+00  0.45593999997E+02  0.45594000000E+02  0.51100000000E-03 0.  1.
         11   -1    0    0    0    0 -0.00000000000E+00 -0.00000000000E+00 -0.45593999997E+02  0.45594000000E+02  0.51100000000E-03 0. -1.
    9900012    2    1    2    0    0  0.15466576810E+01 -0.15994403439E+02 -0.96159795547E+01  0.72461544005E+02  0.69999965753E+02 0.  0.
         12    1    1    2    0    0 -0.15466576810E+01  0.15994403439E+02  0.96159795547E+01  0.18726455995E+02  0.00000000000E+00 0. -1.
         11    1    3    3    0    0 -0.93918207540E+01 -0.13476955751E+02  0.12630432720E+02  0.20721063302E+02  0.51100000000E-03 0. -1.
        -11    1    3    3    0    0  0.12160094448E+02 -0.19952083585E+02  0.10662807492E+00  0.23365891941E+02  0.51100000000E-03 0.  1.
         12    1    3    3    0    0 -0.12216160128E+01  0.17434635897E+02 -0.22353040350E+02  0.28374588763E+02  0.00000000000E+00 0. -1.
</event>
<event>
 7    1  0.2153242E-013  0.7246149E+02  0.7816164E-02  0.1226708E+00
        -11   -1    0    0    0    0  0.00000000000E+00  0.00000000000E+00  0.45593999997E+02  0.45594000000E+02  0.51100000000E-03 0. -1.
         11   -1    0    0    0    0 -0.00000000000E+00 -0.00000000000E+00 -0.45593999997E+02  0.45594000000E+02  0.51100000000E-03 0.  1.
    9900012    2    1    2    0    0 -0.13862967237E+02  0.31014169619E+01 -0.12201701558E+02  0.72461490216E+02  0.69999895684E+02 0.  0.
         12    1    1    2    0    0  0.13862967237E+02 -0.31014169619E+01  0.12201701558E+02  0.18726509784E+02  0.00000000000E+00 0. -1.
         11    1    3    3    0    0 -0.18329593639E+02  0.16670099540E+02  0.15090953764E+02  0.29010396540E+02  0.51100000000E-03 0. -1.
        -11    1    3    3    0    0 -0.27973365347E+01  0.47018493365E+01  0.38015420697E+01  0.66621468942E+01  0.51100000000E-03 0.  1.
        -12    1    3    3    0    0  0.72639629368E+01 -0.18270531914E+02 -0.31094197391E+02  0.36788946783E+02  0.00000000000E+00 0.  1.
</event>
<event>
 7    1  0.2153242E-013  0.7246156E+02  0.7816164E-02  0.1226708E+00
        -11   -1    0    0    0    0  0.00000000000E+00  0.00000000000E+00  0.45593999997E+02  0.45594000000E+02  0.51100000000E-03 0.  1.
         11   -1    0    0    0    0 -0.00000000000E+00 -0.00000000000E+00 -0.45593999997E+02  0.45594000000E+02  0.51100000000E-03 0. -1.
    9900012    2    1    2    0    0 -0.16061897878E+02  0.94506658417E+01  0.18384056168E+01  0.72461564581E+02  0.69999992558E+02 0.  0.
         12    1    1    2    0    0  0.16061897878E+02 -0.94506658417E+01 -0.18384056168E+01  0.18726435419E+02  0.00000000000E+00 0. -1.
         11    1    3    3    0    0  0.62721091161E+01  0.21809581974E+00 -0.49297509200E+01  0.79805615683E+01  0.51100000000E-03 0. -1.
        -11    1    3    3    0    0  0.41713221059E+01  0.15565044045E+02  0.26375810892E+02  0.30908800118E+02  0.51100000000E-03 0.  1.
         12    1    3    3    0    0 -0.26505329100E+02 -0.63324740233E+01 -0.19607654355E+02  0.33572202895E+02  0.00000000000E+00 0. -1.
</event>
<event>
 7    1  0.2153242E-013  0.7246159E+02  0.7816164E-02  0.1226708E+00
        -11   -1    0    0    0    0  0.00000000000E+00  0.00000000000E+00  0.45593999997E+02  0.45594000000E+02  0.51100000000E-03 0.  1.
         11   -1    0    0    0    0 -0.00000000000E+00 -0.00000000000E+00 -0.45593999997E+02  0.45594000000E+02  0.51100000000E-03 0. -1.
    9900012    2    1    2    0    0  0.81604723273E+01  0.43421404000E+01  0.16285911614E+02  0.72461590602E+02  0.70000026454E+02 0.  0.
         12    1    1    2    0    0 -0.81604723273E+01 -0.43421404000E+01 -0.16285911614E+02  0.18726409398E+02  0.00000000000E+00 0. -1.
         11    1    3    3    0    0 -0.33780509674E+01 -0.28035555401E+01 -0.55856742188E+01  0.71042880533E+01  0.51100000000E-03 0. -1.
        -11    1    3    3    0    0  0.17726589361E+01 -0.87206332304E+01 -0.18701629999E+02  0.20710932585E+02  0.51100000000E-03 0.  1.
        -12    1    3    3    0    0  0.97658643587E+01  0.15866329170E+02  0.40573215832E+02  0.44646369964E+02  0.00000000000E+00 0.  1.
</event>
<event>
 7    1  0.2153242E-013  0.7246154E+02  0.7816164E-02  0.1226708E+00
        -11   -1    0    0    0    0  0.00000000000E+00  0.00000000000E+00  0.45593999997E+02  0.45594000000E+02  0.51100000000E-03 0.  1.
         11   -1    0    0    0    0 -0.00000000000E+00 -0.00000000000E+00 -0.45593999997E+02  0.45594000000E+02  0.51100000000E-03 0. -1.
    9900012    2    1    2    0    0 -0.12102110374E+02  0.95948232471E+01  0.10590503087E+02  0.72461535724E+02  0.69999954966E+02 0.  0.
         12    1    1    2    0    0  0.12102110374E+02 -0.95948232471E+01 -0.10590503087E+02  0.18726464276E+02  0.00000000000E+00 0. -1.
         11    1    3    3    0    0 -0.56518702298E+01  0.29243582952E+01 -0.56808298417E+01  0.85303772768E+01  0.51100000000E-03 0. -1.
        -11    1    3    3    0    0 -0.59626052545E+01  0.63512178230E+01 -0.23031510033E+02  0.24623994070E+02  0.51100000000E-03 0.  1.
        -12    1    3    3    0    0 -0.48763488936E+00  0.31924712892E+00  0.39302842962E+02  0.39307164378E+02  0.00000000000E+00 0.  1.
</event>
<event>
 7    1  0.2153242E-013  0.7246170E+02  0.7816164E-02  0.1226708E+00
        -11   -1    0    0    0    0  0.00000000000E+00  0.00000000000E+00  0.45593999997E+02  0.45594000000E+02  0.51100000000E-03 0.  1.
         11   -1    0    0    0    0 -0.00000000000E+00 -0.00000000000E+00 -0.45593999997E+02  0.45594000000E+02  0.51100000000E-03 0. -1.
    9900012    2    1    2    0    0 -0.67442822184E+01 -0.40171430957E+01  0.17001518595E+02  0.72461697220E+02  0.70000165344E+02 0.  0.
         12    1    1    2    0    0  0.67442822184E+01  0.40171430957E+01 -0.17001518595E+02  0.18726302780E+02  0.00000000000E+00 0. -1.
         11    1    3    3    0    0  0.24178080672E+00  0.18364541127E+02  0.16627193016E+01  0.18441243572E+02  0.51100000000E-03 0. -1.
        -11    1    3    3    0    0 -0.13089205580E+02  0.10149876715E+02 -0.19504301700E+01  0.16677873910E+02  0.51100000000E-03 0.  1.
        -12    1    3    3    0    0  0.61031425552E+01 -0.32531560937E+02  0.17289229463E+02  0.37342579738E+02  0.00000000000E+00 0.  1.
</event>
<event>
 7    1  0.2153242E-013  0.7246158E+02  0.7816164E-02  0.1226708E+00
        -11   -1    0    0    0    0  0.00000000000E+00  0.00000000000E+00  0.45593999997E+02  0.45594000000E+02  0.51100000000E-03 0.  1.
         11   -1    0    0    0    0 -0.00000000000E+00 -0.00000000000E+00 -0.45593999997E+02  0.45594000000E+02  0.51100000000E-03 0. -1.
    9900012    2    1    2    0    0 -0.59374956764E+01  0.12534892409E+02  0.12581794014E+02  0.72461576870E+02  0.70000008566E+02 0.  0.
         12    1    1    2    0    0  0.59374956764E+01 -0.12534892409E+02 -0.12581794014E+02  0.18726423130E+02  0.00000000000E+00 0. -1.
         11    1    3    3    0    0  0.24342496350E+02  0.12743968854E+02  0.60379077004E+01  0.28132227078E+02  0.51100000000E-03 0. -1.
        -11    1    3    3    0    0  0.86918399459E+00 -0.56632948023E+00  0.12559780108E+02  0.12602550794E+02  0.51100000000E-03 0.  1.
         12    1    3    3    0    0 -0.31149176021E+02  0.35725303546E+00 -0.60158937940E+01  0.31726798998E+02  0.00000000000E+00 0. -1.
</event>
<event>
 7    1  0.2153242E-013  0.7246155E+02  0.7816164E-02  0.1226708E+00
        -11   -1    0    0    0    0  0.00000000000E+00  0.00000000000E+00  0.45593999997E+02  0.45594000000E+02  0.51100000000E-03 0. -1.
         11   -1    0    0    0    0 -0.00000000000E+00 -0.00000000000E+00 -0.45593999997E+02  0.45594000000E+02  0.51100000000E-03 0.  1.
    9900012    2    1    2    0    0  0.13715992391E+02 -0.11012203936E+02 -0.64251824542E+01  0.72461546722E+02  0.69999969293E+02 0.  0.
         12    1    1    2    0    0 -0.13715992391E+02  0.11012203936E+02  0.64251824542E+01  0.18726453278E+02  0.00000000000E+00 0. -1.
         11    1    3    3    0    0 -0.24031140699E+01  0.15499326795E+02 -0.32440944432E+01  0.16016498910E+02  0.51100000000E-03 0. -1.
        -11    1    3    3    0    0  0.12856883231E+01 -0.26762044451E+02  0.16750652243E+02  0.31598170335E+02  0.51100000000E-03 0.  1.
         12    1    3    3    0    0  0.14833418138E+02  0.25051372044E+00 -0.19931740254E+02  0.24846877477E+02  0.00000000000E+00 0. -1.
</event>
<event>
 7    1  0.2153242E-013  0.7246159E+02  0.7816164E-02  0.1226708E+00
        -11   -1    0    0    0    0  0.00000000000E+00  0.00000000000E+00  0.45593999997E+02  0.45594000000E+02  0.51100000000E-03 0.  1.
         11   -1    0    0    0    0 -0.00000000000E+00 -0.00000000000E+00 -0.45593999997E+02  0.45594000000E+02  0.51100000000E-03 0. -1.
    9900012    2    1    2    0    0  0.20853008699E+01 -0.14118845769E+02  0.12123862714E+02  0.72461592638E+02  0.70000029107E+02 0.  0.
         12    1    1    2    0    0 -0.20853008699E+01  0.14118845769E+02 -0.12123862714E+02  0.18726407362E+02  0.00000000000E+00 0. -1.
         11    1    3    3    0    0 -0.15370583512E+02 -0.12284517527E+02 -0.16585219551E+01  0.19746263032E+02  0.51100000000E-03 0. -1.
        -11    1    3    3    0    0  0.62630505867E+01 -0.24554923023E+02  0.93006054590E+01  0.26993912452E+02  0.51100000000E-03 0.  1.
         12    1    3    3    0    0  0.11192833796E+02  0.22720594781E+02  0.44817792099E+01  0.25721417155E+02  0.00000000000E+00 0. -1.
</event>
<event>
 7    1  0.2153242E-013  0.7246099E+02  0.7816164E-02  0.1226710E+00
        -11   -1    0    0    0    0  0.00000000000E+00  0.00000000000E+00  0.45593999997E+02  0.45594000000E+02  0.51100000000E-03 0.  1.
         11   -1    0    0    0    0 -0.00000000000E+00 -0.00000000000E+00 -0.45593999997E+02  0.45594000000E+02  0.51100000000E-03 0. -1.
    9900012    2    1    2    0    0 -0.18614485008E+02  0.14452910191E+01  0.14536289477E+01  0.72460988616E+02  0.69999242252E+02 0.  0.
         12    1    1    2    0    0  0.18614485008E+02 -0.14452910191E+01 -0.14536289477E+01  0.18727011384E+02  0.00000000000E+00 0. -1.
         11    1    3    3    0    0 -0.24653993205E+02  0.24235534171E+02 -0.20780661874E+01  0.34633782017E+02  0.51100000000E-03 0. -1.
        -11    1    3    3    0    0 -0.11389990402E+02 -0.13427207013E+02 -0.58972765997E+00  0.17617308208E+02  0.51100000000E-03 0.  1.
        -12    1    3    3    0    0  0.17429498598E+02 -0.93630361391E+01  0.41214227950E+01  0.20209898391E+02  0.00000000000E+00 0.  1.
</event>
<event>
 7    1  0.2153242E-013  0.7246157E+02  0.7816164E-02  0.1226708E+00
        -11   -1    0    0    0    0  0.00000000000E+00  0.00000000000E+00  0.45593999997E+02  0.45594000000E+02  0.51100000000E-03 0. -1.
         11   -1    0    0    0    0 -0.00000000000E+00 -0.00000000000E+00 -0.45593999997E+02  0.45594000000E+02  0.51100000000E-03 0.  1.
    9900012    2    1    2    0    0 -0.79110632916E+00  0.11717619661E+02 -0.14585977396E+02  0.72461569579E+02  0.69999999068E+02 0.  0.
         12    1    1    2    0    0  0.79110632916E+00 -0.11717619661E+02  0.14585977396E+02  0.18726430421E+02  0.00000000000E+00 0. -1.
         11    1    3    3    0    0  0.10776220536E+02  0.93645328322E+01  0.19549932705E+02  0.24207876265E+02  0.51100000000E-03 0. -1.
        -11    1    3    3    0    0 -0.30255301042E+01 -0.10282658880E+02  0.15949732265E+00  0.10719717614E+02  0.51100000000E-03 0.  1.
        -12    1    3    3    0    0 -0.85417967612E+01  0.12635745710E+02 -0.34295407423E+02  0.37533975700E+02  0.00000000000E+00 0.  1.
</event>
<event>
 7    1  0.2153242E-013  0.7246165E+02  0.7816164E-02  0.1226708E+00
        -11   -1    0    0    0    0  0.00000000000E+00  0.00000000000E+00  0.45593999997E+02  0.45594000000E+02  0.51100000000E-03 0.  1.
         11   -1    0    0    0    0 -0.00000000000E+00 -0.00000000000E+00 -0.45593999997E+02  0.45594000000E+02  0.51100000000E-03 0. -1.
    9900012    2    1    2    0    0  0.13907361251E+01  0.12466536293E+02  0.13904232476E+02  0.72461645446E+02  0.70000097899E+02 0.  0.
         12    1    1    2    0    0 -0.13907361251E+01 -0.12466536293E+02 -0.13904232476E+02  0.18726354554E+02  0.00000000000E+00 0. -1.
         11    1    3    3    0    0  0.59061206221E+01 -0.55558415307E+01 -0.11039001185E+02  0.13697050169E+02  0.51100000000E-03 0. -1.
        -11    1    3    3    0    0 -0.21952742290E+02  0.10446577898E+01 -0.24594201353E+01  0.22114767727E+02  0.51100000000E-03 0.  1.
        -12    1    3    3    0    0  0.17437357793E+02  0.16977720034E+02  0.27402653796E+02  0.36649827550E+02  0.00000000000E+00 0.  1.
</event>
<event>
 7    1  0.2153242E-013  0.7246158E+02  0.7816164E-02  0.1226708E+00
        -11   -1    0    0    0    0  0.00000000000E+00  0.00000000000E+00  0.45593999997E+02  0.45594000000E+02  0.51100000000E-03 0. -1.
         11   -1    0    0    0    0 -0.00000000000E+00 -0.00000000000E+00 -0.45593999997E+02  0.45594000000E+02  0.51100000000E-03 0.  1.
    9900012    2    1    2    0    0 -0.16947801493E+02 -0.73754169795E+01 -0.30090136488E+01  0.72461577111E+02  0.70000008880E+02 0.  0.
         12    1    1    2    0    0  0.16947801493E+02  0.73754169795E+01  0.30090136488E+01  0.18726422889E+02  0.00000000000E+00 0. -1.
         11    1    3    3    0    0 -0.28714619458E+02 -0.10687753665E+02  0.25592983979E+02  0.39921902238E+02  0.51100000000E-03 0. -1.
        -11    1    3    3    0    0  0.14516795739E+01 -0.15514780037E+01 -0.45893083529E+00  0.21737238450E+01  0.51100000000E-03 0.  1.
        -12    1    3    3    0    0  0.10315138391E+02  0.48638146896E+01 -0.28143066793E+02  0.30365951028E+02  0.00000000000E+00 0.  1.
</event>
<event>
 7    1  0.2153242E-013  0.7246156E+02  0.7816164E-02  0.1226708E+00
        -11   -1    0    0    0    0  0.00000000000E+00  0.00000000000E+00  0.45593999997E+02  0.45594000000E+02  0.51100000000E-03 0. -1.
         11   -1    0    0    0    0 -0.00000000000E+00 -0.00000000000E+00 -0.45593999997E+02  0.45594000000E+02  0.51100000000E-03 0.  1.
    9900012    2    1    2    0    0 -0.13035930414E+02  0.68931060102E+01 -0.11542497965E+02  0.72461557426E+02  0.69999983236E+02 0.  0.
         12    1    1    2    0    0  0.13035930414E+02 -0.68931060102E+01  0.11542497965E+02  0.18726442574E+02  0.00000000000E+00 0. -1.
         11    1    3    3    0    0 -0.65204191003E+01  0.79467703464E+01  0.54928635916E+01  0.11654980690E+02  0.51100000000E-03 0. -1.
        -11    1    3    3    0    0  0.34092920325E+01 -0.20619743720E+02  0.12241968915E+02  0.24221125209E+02  0.51100000000E-03 0.  1.
        -12    1    3    3    0    0 -0.99248033464E+01  0.19566079383E+02 -0.29277330471E+02  0.36585451527E+02  0.00000000000E+00 0.  1.
</event>
<event>
 7    1  0.2153242E-013  0.7246158E+02  0.7816164E-02  0.1226708E+00
        -11   -1    0    0    0    0  0.00000000000E+00  0.00000000000E+00  0.45593999997E+02  0.45594000000E+02  0.51100000000E-03 0. -1.
         11   -1    0    0    0    0 -0.00000000000E+00 -0.00000000000E+00 -0.45593999997E+02  0.45594000000E+02  0.51100000000E-03 0.  1.
    9900012    2    1    2    0    0  0.16999664470E+02 -0.68788415873E+01  0.37910050472E+01  0.72461580883E+02  0.70000013793E+02 0.  0.
         12    1    1    2    0    0 -0.16999664470E+02  0.68788415873E+01 -0.37910050472E+01  0.18726419117E+02  0.00000000000E+00 0. -1.
         11    1    3    3    0    0 -0.11186929634E+02  0.15991276810E+01 -0.10885446851E+02  0.15690683777E+02  0.51100000000E-03 0.  1.
        -11    1    3    3    0    0 -0.92783721416E+01  0.34292355791E+01  0.14385413217E+02  0.17458177452E+02  0.51100000000E-03 0. -1.
        -12    1    3    3    0    0  0.37464966246E+02 -0.11907204847E+02  0.29103868021E+00  0.39312719654E+02  0.00000000000E+00 0.  1.
</event>
<event>
 7    1  0.2153242E-013  0.7246151E+02  0.7816164E-02  0.1226708E+00
        -11   -1    0    0    0    0  0.00000000000E+00  0.00000000000E+00  0.45593999997E+02  0.45594000000E+02  0.51100000000E-03 0. -1.
         11   -1    0    0    0    0 -0.00000000000E+00 -0.00000000000E+00 -0.45593999997E+02  0.45594000000E+02  0.51100000000E-03 0.  1.
    9900012    2    1    2    0    0  0.37818476652E+01 -0.17885343040E+02  0.40612204752E+01  0.72461511296E+02  0.69999923144E+02 0.  0.
         12    1    1    2    0    0 -0.37818476652E+01  0.17885343040E+02 -0.40612204752E+01  0.18726488704E+02  0.00000000000E+00 0. -1.
         11    1    3    3    0    0 -0.13359598699E+02 -0.25022954715E+02 -0.11621486696E+02  0.30654299753E+02  0.51100000000E-03 0. -1.
        -11    1    3    3    0    0  0.10215156494E+02 -0.93022690952E+01 -0.48175109387E+01  0.14631816170E+02  0.51100000000E-03 0.  1.
         12    1    3    3    0    0  0.69262898696E+01  0.16439880770E+02  0.20500218110E+02  0.27175395373E+02  0.00000000000E+00 0. -1.
</event>
<event>
 7    1  0.2153242E-013  0.7246166E+02  0.7816164E-02  0.1226708E+00
        -11   -1    0    0    0    0  0.00000000000E+00  0.00000000000E+00  0.45593999997E+02  0.45594000000E+02  0.51100000000E-03 0. -1.
         11   -1    0    0    0    0 -0.00000000000E+00 -0.00000000000E+00 -0.45593999997E+02  0.45594000000E+02  0.51100000000E-03 0.  1.
    9900012    2    1    2    0    0  0.32414485509E+01 -0.16038972436E+02  0.91060581965E+01  0.72461657021E+02  0.70000112977E+02 0.  0.
         12    1    1    2    0    0 -0.32414485509E+01  0.16038972436E+02 -0.91060581965E+01  0.18726342979E+02  0.00000000000E+00 0. -1.
         11    1    3    3    0    0 -0.67854001398E+01 -0.80568375398E+01  0.36225792501E+02  0.37726149138E+02  0.51100000000E-03 0. -1.
        -11    1    3    3    0    0  0.12399071583E+01  0.53652440471E+01 -0.49337540772E+01  0.73935879653E+01  0.51100000000E-03 0.  1.
        -12    1    3    3    0    0  0.87869415324E+01 -0.13347378943E+02 -0.22185980227E+02  0.27341919918E+02  0.00000000000E+00 0.  1.
</event>
<event>
 7    1  0.2153242E-013  0.7246157E+02  0.7816164E-02  0.1226708E+00
        -11   -1    0    0    0    0  0.00000000000E+00  0.00000000000E+00  0.45593999997E+02  0.45594000000E+02  0.51100000000E-03 0. -1.
         11   -1    0    0    0    0 -0.00000000000E+00 -0.00000000000E+00 -0.45593999997E+02  0.45594000000E+02  0.51100000000E-03 0.  1.
    9900012    2    1    2    0    0 -0.43054343851E+01  0.15532801668E+02  0.95328019641E+01  0.72461574655E+02  0.70000005681E+02 0.  0.
         12    1    1    2    0    0  0.43054343851E+01 -0.15532801668E+02 -0.95328019641E+01  0.18726425345E+02  0.00000000000E+00 0. -1.
         11    1    3    3    0    0  0.17493827119E+02 -0.24664571028E+01 -0.24046800963E+01  0.17829747180E+02  0.51100000000E-03 0. -1.
        -11    1    3    3    0    0 -0.24451045041E+02 -0.89197763712E+01  0.84169116651E+01  0.27354349131E+02  0.51100000000E-03 0.  1.
        -12    1    3    3    0    0  0.26517835378E+01  0.26919035142E+02  0.35205703953E+01  0.27277478344E+02  0.00000000000E+00 0.  1.
</event>
<event>
 7    1  0.2153242E-013  0.7246160E+02  0.7816164E-02  0.1226708E+00
        -11   -1    0    0    0    0  0.00000000000E+00  0.00000000000E+00  0.45593999997E+02  0.45594000000E+02  0.51100000000E-03 0. -1.
         11   -1    0    0    0    0 -0.00000000000E+00 -0.00000000000E+00 -0.45593999997E+02  0.45594000000E+02  0.51100000000E-03 0.  1.
    9900012    2    1    2    0    0  0.11138727944E+02 -0.89018505432E+01 -0.12139348305E+02  0.72461602040E+02  0.70000041354E+02 0.  0.
         12    1    1    2    0    0 -0.11138727944E+02  0.89018505432E+01  0.12139348305E+02  0.18726397960E+02  0.00000000000E+00 0. -1.
         11    1    3    3    0    0 -0.81467197329E+01 -0.12268853008E+02  0.17458821255E+02  0.22840845790E+02  0.51100000000E-03 0. -1.
        -11    1    3    3    0    0  0.59266050693E+00  0.83660540785E+01  0.51545418303E+01  0.98443592510E+01  0.51100000000E-03 0.  1.
        -12    1    3    3    0    0  0.18692787170E+02 -0.49990516140E+01 -0.34752711390E+02  0.39776396999E+02  0.00000000000E+00 0.  1.
</event>
<event>
 7    1  0.2153242E-013  0.7246157E+02  0.7816164E-02  0.1226708E+00
        -11   -1    0    0    0    0  0.00000000000E+00  0.00000000000E+00  0.45593999997E+02  0.45594000000E+02  0.51100000000E-03 0.  1.
         11   -1    0    0    0    0 -0.00000000000E+00 -0.00000000000E+00 -0.45593999997E+02  0.45594000000E+02  0.51100000000E-03 0. -1.
    9900012    2    1    2    0    0 -0.11459009111E+02 -0.14521633887E+02  0.29141567256E+01  0.72461573486E+02  0.70000004158E+02 0.  0.
         12    1    1    2    0    0  0.11459009111E+02  0.14521633887E+02 -0.29141567256E+01  0.18726426514E+02  0.00000000000E+00 0. -1.
         11    1    3    3    0    0 -0.86834858816E+01  0.78356714653E+00  0.23382558771E+01  0.90268679694E+01  0.51100000000E-03 0. -1.
        -11    1    3    3    0    0 -0.29829649002E+02 -0.95135380521E+01  0.11960706252E+02  0.33516769835E+02  0.51100000000E-03 0.  1.
         12    1    3    3    0    0  0.27054125773E+02 -0.57916629811E+01 -0.11384805404E+02  0.29917935682E+02  0.00000000000E+00 0. -1.
</event>
<event>
 7    1  0.2153242E-013  0.7246155E+02  0.7816164E-02  0.1226708E+00
        -11   -1    0    0    0    0  0.00000000000E+00  0.00000000000E+00  0.45593999997E+02  0.45594000000E+02  0.51100000000E-03 0.  1.
         11   -1    0    0    0    0 -0.00000000000E+00 -0.00000000000E+00 -0.45593999997E+02  0.45594000000E+02  0.51100000000E-03 0. -1.
    9900012    2    1    2    0    0  0.16397127670E+02  0.79278324718E+01 -0.43547246051E+01  0.72461549457E+02  0.69999972856E+02 0.  0.
         12    1    1    2    0    0 -0.16397127670E+02 -0.79278324718E+01  0.43547246051E+01  0.18726450543E+02  0.00000000000E+00 0. -1.
         11    1    3    3    0    0  0.55459838659E+01 -0.44696832345E+00 -0.81354783442E+01  0.98561516766E+01  0.51100000000E-03 0. -1.
        -11    1    3    3    0    0  0.24079796277E+02 -0.18862841743E+02  0.89865031043E+01  0.31881038654E+02  0.51100000000E-03 0.  1.
         12    1    3    3    0    0 -0.13228652473E+02  0.27237642538E+02 -0.52057493652E+01  0.30724359127E+02  0.00000000000E+00 0. -1.
</event>
<event>
 7    1  0.2153242E-013  0.7246178E+02  0.7816164E-02  0.1226707E+00
        -11   -1    0    0    0    0  0.00000000000E+00  0.00000000000E+00  0.45593999997E+02  0.45594000000E+02  0.51100000000E-03 0. -1.
         11   -1    0    0    0    0 -0.00000000000E+00 -0.00000000000E+00 -0.45593999997E+02  0.45594000000E+02  0.51100000000E-03 0.  1.
    9900012    2    1    2    0    0  0.17659968661E+02 -0.60314839570E+01 -0.15549587299E+01  0.72461783391E+02  0.70000277597E+02 0.  0.
         12    1    1    2    0    0 -0.17659968661E+02  0.60314839570E+01  0.15549587299E+01  0.18726216609E+02  0.00000000000E+00 0. -1.
         11    1    3    3    0    0 -0.40711334677E+01 -0.31186259932E+01 -0.24099507866E+02  0.24639120022E+02  0.51100000000E-03 0.  1.
        -11    1    3    3    0    0  0.23674974381E+02 -0.63421797212E+01 -0.42887674188E+00  0.24513498141E+02  0.51100000000E-03 0. -1.
        -12    1    3    3    0    0 -0.19438722522E+01  0.34293217574E+01  0.22973425878E+02  0.23309165228E+02  0.00000000000E+00 0.  1.
</event>
<event>
 7    1  0.2153242E-013  0.7246159E+02  0.7816164E-02  0.1226708E+00
        -11   -1    0    0    0    0  0.00000000000E+00  0.00000000000E+00  0.45593999997E+02  0.45594000000E+02  0.51100000000E-03 0.  1.
         11   -1    0    0    0    0 -0.00000000000E+00 -0.00000000000E+00 -0.45593999997E+02  0.45594000000E+02  0.51100000000E-03 0. -1.
    9900012    2    1    2    0    0 -0.11551402999E+02  0.11156201709E+01  0.14696904108E+02  0.72461587904E+02  0.70000022940E+02 0.  0.
         12    1    1    2    0    0  0.11551402999E+02 -0.11156201709E+01 -0.14696904108E+02  0.18726412096E+02  0.00000000000E+00 0. -1.
         11    1    3    3    0    0  0.14953731692E+02  0.48913817105E+00 -0.19518372978E+02  0.24593093170E+02  0.51100000000E-03 0. -1.
        -11    1    3    3    0    0  0.18241879735E+01  0.32686966988E+01  0.53887619913E+00  0.37818550594E+01  0.51100000000E-03 0.  1.
         12    1    3    3    0    0 -0.28329322664E+02 -0.26422146990E+01  0.33676400887E+02  0.44086639675E+02  0.00000000000E+00 0. -1.
</event>
<event>
 7    1  0.2153242E-013  0.7246156E+02  0.7816164E-02  0.1226708E+00
        -11   -1    0    0    0    0  0.00000000000E+00  0.00000000000E+00  0.45593999997E+02  0.45594000000E+02  0.51100000000E-03 0. -1.
         11   -1    0    0    0    0 -0.00000000000E+00 -0.00000000000E+00 -0.45593999997E+02  0.45594000000E+02  0.51100000000E-03 0.  1.
    9900012    2    1    2    0    0 -0.35829067088E+00 -0.15714228723E+02  0.10179106942E+02  0.72461559476E+02  0.69999985907E+02 0.  0.
         12    1    1    2    0    0  0.35829067088E+00  0.15714228723E+02 -0.10179106942E+02  0.18726440524E+02  0.00000000000E+00 0. -1.
         11    1    3    3    0    0 -0.88714149603E+01 -0.30309135994E+02  0.18251161887E+02  0.36475342885E+02  0.51100000000E-03 0. -1.
        -11    1    3    3    0    0  0.30233965257E+01 -0.94402476994E+01 -0.51176782879E+01  0.11155708606E+02  0.51100000000E-03 0.  1.
        -12    1    3    3    0    0  0.54897277637E+01  0.24035154970E+02 -0.29543766565E+01  0.24830507985E+02  0.00000000000E+00 0.  1.
</event>
<event>
 7    1  0.2153242E-013  0.7246145E+02  0.7816164E-02  0.1226708E+00
        -11   -1    0    0    0    0  0.00000000000E+00  0.00000000000E+00  0.45593999997E+02  0.45594000000E+02  0.51100000000E-03 0. -1.
         11   -1    0    0    0    0 -0.00000000000E+00 -0.00000000000E+00 -0.45593999997E+02  0.45594000000E+02  0.51100000000E-03 0.  1.
    9900012    2    1    2    0    0  0.93110596246E+00  0.48569629745E+01 -0.18061745332E+02  0.72461449541E+02  0.69999842697E+02 0.  0.
         12    1    1    2    0    0 -0.93110596246E+00 -0.48569629745E+01  0.18061745332E+02  0.18726550459E+02  0.00000000000E+00 0. -1.
         11    1    3    3    0    0  0.14143459888E+02  0.39684830419E+01  0.79394013817E+01  0.16697916331E+02  0.51100000000E-03 0. -1.
        -11    1    3    3    0    0 -0.70234188920E+01 -0.18208835299E+02  0.37494460741E+01  0.19873309790E+02  0.51100000000E-03 0.  1.
        -12    1    3    3    0    0 -0.61889350332E+01  0.19097315232E+02 -0.29750592788E+02  0.35890223420E+02  0.00000000000E+00 0.  1.
</event>
<event>
 7    1  0.2153242E-013  0.7246165E+02  0.7816164E-02  0.1226708E+00
        -11   -1    0    0    0    0  0.00000000000E+00  0.00000000000E+00  0.45593999997E+02  0.45594000000E+02  0.51100000000E-03 0.  1.
         11   -1    0    0    0    0 -0.00000000000E+00 -0.00000000000E+00 -0.45593999997E+02  0.45594000000E+02  0.51100000000E-03 0. -1.
    9900012    2    1    2    0    0  0.12647666179E+02  0.13251417598E+02  0.38875127603E+01  0.72461647350E+02  0.70000100379E+02 0.  0.
         12    1    1    2    0    0 -0.12647666179E+02 -0.13251417598E+02 -0.38875127603E+01  0.18726352650E+02  0.00000000000E+00 0. -1.
         11    1    3    3    0    0 -0.14731833715E+02 -0.11975865972E+01 -0.35614783130E+01  0.15203462313E+02  0.51100000000E-03 0.  1.
        -11    1    3    3    0    0 -0.11243954644E+02  0.11677397520E+02 -0.43381272680E+01  0.16781164362E+02  0.51100000000E-03 0. -1.
         12    1    3    3    0    0  0.38623454537E+02  0.27716066746E+01  0.11787118341E+02  0.40477020675E+02  0.00000000000E+00 0. -1.
</event>
<event>
 7    1  0.2153242E-013  0.7246160E+02  0.7816164E-02  0.1226708E+00
        -11   -1    0    0    0    0  0.00000000000E+00  0.00000000000E+00  0.45593999997E+02  0.45594000000E+02  0.51100000000E-03 0.  1.
         11   -1    0    0    0    0 -0.00000000000E+00 -0.00000000000E+00 -0.45593999997E+02  0.45594000000E+02  0.51100000000E-03 0. -1.
    9900012    2    1    2    0    0 -0.38179416960E+01  0.58547950168E+01  0.17373043701E+02  0.72461602831E+02  0.70000042386E+02 0.  0.
         12    1    1    2    0    0  0.38179416960E+01 -0.58547950168E+01 -0.17373043701E+02  0.18726397169E+02  0.00000000000E+00 0. -1.
         11    1    3    3    0    0  0.82981118923E+01 -0.76413255600E+01 -0.15992280996E+02  0.19570425877E+02  0.51100000000E-03 0. -1.
        -11    1    3    3    0    0  0.27055454874E+01 -0.59686406547E+01 -0.44002371750E+01  0.78934615414E+01  0.51100000000E-03 0.  1.
        -12    1    3    3    0    0 -0.14821599076E+02  0.19464761231E+02  0.37765561871E+02  0.44997715413E+02  0.00000000000E+00 0.  1.
</event>
<event>
 7    1  0.2153242E-013  0.7246156E+02  0.7816164E-02  0.1226708E+00
        -11   -1    0    0    0    0  0.00000000000E+00  0.00000000000E+00  0.45593999997E+02  0.45594000000E+02  0.51100000000E-03 0.  1.
         11   -1    0    0    0    0 -0.00000000000E+00 -0.00000000000E+00 -0.45593999997E+02  0.45594000000E+02  0.51100000000E-03 0. -1.
    9900012    2    1    2    0    0  0.17608913649E+02 -0.35580744670E+01  0.52863698878E+01  0.72461563062E+02  0.69999990579E+02 0.  0.
         12    1    1    2    0    0 -0.17608913649E+02  0.35580744670E+01 -0.52863698878E+01  0.18726436938E+02  0.00000000000E+00 0. -1.
         11    1    3    3    0    0 -0.29899095942E+01  0.23837229556E+02  0.16031184646E+02  0.28881688900E+02  0.51100000000E-03 0. -1.
        -11    1    3    3    0    0  0.76853832546E+01  0.22273542326E+01  0.28880676990E+01  0.85068888521E+01  0.51100000000E-03 0.  1.
        -12    1    3    3    0    0  0.12913439988E+02 -0.29622658256E+02 -0.13632882457E+02  0.35072985310E+02  0.00000000000E+00 0.  1.
</event>
<event>
 7    1  0.2153242E-013  0.7246152E+02  0.7816164E-02  0.1226708E+00
        -11   -1    0    0    0    0  0.00000000000E+00  0.00000000000E+00  0.45593999997E+02  0.45594000000E+02  0.51100000000E-03 0. -1.
         11   -1    0    0    0    0 -0.00000000000E+00 -0.00000000000E+00 -0.45593999997E+02  0.45594000000E+02  0.51100000000E-03 0.  1.
    9900012    2    1    2    0    0  0.84608654040E+01  0.10749611443E+02 -0.12788297357E+02  0.72461523053E+02  0.69999938459E+02 0.  0.
         12    1    1    2    0    0 -0.84608654040E+01 -0.10749611443E+02  0.12788297357E+02  0.18726476947E+02  0.00000000000E+00 0. -1.
         11    1    3    3    0    0 -0.15687500653E+02  0.98096975897E+01 -0.17760733733E+02  0.25647056488E+02  0.51100000000E-03 0. -1.
        -11    1    3    3    0    0  0.27890658951E+02  0.14996285371E+02  0.77970480674E+00  0.31676258799E+02  0.51100000000E-03 0.  1.
         12    1    3    3    0    0 -0.37422928939E+01 -0.14056371517E+02  0.41927315686E+01  0.15138207765E+02  0.00000000000E+00 0. -1.
</event>
<event>
 7    1  0.2153242E-013  0.7246203E+02  0.7816164E-02  0.1226707E+00
        -11   -1    0    0    0    0  0.00000000000E+00  0.00000000000E+00  0.45593999997E+02  0.45594000000E+02  0.51100000000E-03 0. -1.
         11   -1    0    0    0    0 -0.00000000000E+00 -0.00000000000E+00 -0.45593999997E+02  0.45594000000E+02  0.51100000000E-03 0.  1.
    9900012    2    1    2    0    0  0.57470085641E+01 -0.14611496631E+02 -0.10204806884E+02  0.72462028068E+02  0.70000596333E+02 0.  0.
         12    1    1    2    0    0 -0.57470085641E+01  0.14611496631E+02  0.10204806884E+02  0.18725971932E+02  0.00000000000E+00 0. -1.
         11    1    3    3    0    0 -0.34754023589E+01 -0.31787149795E+02  0.10880995462E+02  0.33777172412E+02  0.51100000000E-03 0. -1.
        -11    1    3    3    0    0 -0.38220661077E+01  0.11580796058E+02  0.12093801807E+01  0.12255024576E+02  0.51100000000E-03 0.  1.
        -12    1    3    3    0    0  0.13044477031E+02  0.55948571054E+01 -0.22295182527E+02  0.26429831081E+02  0.00000000000E+00 0.  1.
</event>
<event>
 7    1  0.2153242E-013  0.7246159E+02  0.7816164E-02  0.1226708E+00
        -11   -1    0    0    0    0  0.00000000000E+00  0.00000000000E+00  0.45593999997E+02  0.45594000000E+02  0.51100000000E-03 0.  1.
         11   -1    0    0    0    0 -0.00000000000E+00 -0.00000000000E+00 -0.45593999997E+02  0.45594000000E+02  0.51100000000E-03 0. -1.
    9900012    2    1    2    0    0 -0.21484262535E+01  0.15555087944E+02  0.10203039208E+02  0.72461588027E+02  0.70000023100E+02 0.  0.
         12    1    1    2    0    0  0.21484262535E+01 -0.15555087944E+02 -0.10203039208E+02  0.18726411973E+02  0.00000000000E+00 0. -1.
         11    1    3    3    0    0 -0.89870794114E+01 -0.22054176609E+02  0.69890279591E+01  0.24819363697E+02  0.51100000000E-03 0. -1.
        -11    1    3    3    0    0  0.78541630468E+01  0.38868296539E+01  0.99285858535E+01  0.13242814627E+02  0.51100000000E-03 0.  1.
         12    1    3    3    0    0 -0.10155098889E+01  0.33722434899E+02 -0.67145746048E+01  0.34399409704E+02  0.00000000000E+00 0. -1.
</event>
<event>
 7    1  0.2153242E-013  0.7246152E+02  0.7816164E-02  0.1226708E+00
        -11   -1    0    0    0    0  0.00000000000E+00  0.00000000000E+00  0.45593999997E+02  0.45594000000E+02  0.51100000000E-03 0.  1.
         11   -1    0    0    0    0 -0.00000000000E+00 -0.00000000000E+00 -0.45593999997E+02  0.45594000000E+02  0.51100000000E-03 0. -1.
    9900012    2    1    2    0    0  0.15630762412E+01 -0.12811566972E+02  0.13568398862E+02  0.72461524002E+02  0.69999939696E+02 0.  0.
         12    1    1    2    0    0 -0.15630762412E+01  0.12811566972E+02 -0.13568398862E+02  0.18726475998E+02  0.00000000000E+00 0. -1.
         11    1    3    3    0    0 -0.20423263723E+02 -0.16488621280E+01 -0.48564996753E+01  0.21057398623E+02  0.51100000000E-03 0. -1.
        -11    1    3    3    0    0  0.16127187619E+01  0.14678363521E+02  0.30297401104E+01  0.15074300742E+02  0.51100000000E-03 0.  1.
        -12    1    3    3    0    0  0.20373621202E+02 -0.25841068365E+02  0.15395158427E+02  0.36329824637E+02  0.00000000000E+00 0.  1.
</event>
<event>
 7    1  0.2153242E-013  0.7246160E+02  0.7816164E-02  0.1226708E+00
        -11   -1    0    0    0    0  0.00000000000E+00  0.00000000000E+00  0.45593999997E+02  0.45594000000E+02  0.51100000000E-03 0. -1.
         11   -1    0    0    0    0 -0.00000000000E+00 -0.00000000000E+00 -0.45593999997E+02  0.45594000000E+02  0.51100000000E-03 0.  1.
    9900012    2    1    2    0    0 -0.12182817354E+02 -0.95635448513E+01 -0.10525954689E+02  0.72461597491E+02  0.70000035429E+02 0.  0.
         12    1    1    2    0    0  0.12182817354E+02  0.95635448513E+01  0.10525954689E+02  0.18726402509E+02  0.00000000000E+00 0. -1.
         11    1    3    3    0    0 -0.75986443824E+01  0.59154616245E+01 -0.69156511161E+01  0.11855729134E+02  0.51100000000E-03 0. -1.
        -11    1    3    3    0    0 -0.20646512258E+02  0.95256052294E+01 -0.16619373623E+02  0.28164147480E+02  0.51100000000E-03 0.  1.
        -12    1    3    3    0    0  0.16062339286E+02 -0.25004611705E+02  0.13009070050E+02  0.32441720877E+02  0.00000000000E+00 0.  1.
</event>
<event>
 7    1  0.2153242E-013  0.7246156E+02  0.7816164E-02  0.1226708E+00
        -11   -1    0    0    0    0  0.00000000000E+00  0.00000000000E+00  0.45593999997E+02  0.45594000000E+02  0.51100000000E-03 0. -1.
         11   -1    0    0    0    0 -0.00000000000E+00 -0.00000000000E+00 -0.45593999997E+02  0.45594000000E+02  0.51100000000E-03 0.  1.
    9900012    2    1    2    0    0 -0.15954777819E+01  0.11517048314E+01 -0.18622775516E+02  0.72461555028E+02  0.69999980113E+02 0.  0.
         12    1    1    2    0    0  0.15954777819E+01 -0.11517048314E+01  0.18622775516E+02  0.18726444972E+02  0.00000000000E+00 0. -1.
         11    1    3    3    0    0  0.17936930694E+02 -0.10245694917E+02 -0.78374545670E+01  0.22093742132E+02  0.51100000000E-03 0. -1.
        -11    1    3    3    0    0  0.10891744178E+02  0.14799812468E+02 -0.63086330330E+01  0.19428417108E+02  0.51100000000E-03 0.  1.
        -12    1    3    3    0    0 -0.30424152654E+02 -0.34024127196E+01 -0.44766879161E+01  0.30939395788E+02  0.00000000000E+00 0.  1.
</event>
<event>
 7    1  0.2153242E-013  0.7246161E+02  0.7816164E-02  0.1226708E+00
        -11   -1    0    0    0    0  0.00000000000E+00  0.00000000000E+00  0.45593999997E+02  0.45594000000E+02  0.51100000000E-03 0.  1.
         11   -1    0    0    0    0 -0.00000000000E+00 -0.00000000000E+00 -0.45593999997E+02  0.45594000000E+02  0.51100000000E-03 0. -1.
    9900012    2    1    2    0    0  0.18215189066E+02 -0.90333620456E+00  0.42506937451E+01  0.72461614168E+02  0.70000057153E+02 0.  0.
         12    1    1    2    0    0 -0.18215189066E+02  0.90333620456E+00 -0.42506937451E+01  0.18726385832E+02  0.00000000000E+00 0. -1.
         11    1    3    3    0    0 -0.29483927695E+01  0.23384179251E+02  0.67182627399E+01  0.24508119342E+02  0.51100000000E-03 0. -1.
        -11    1    3    3    0    0 -0.73606058238E+01 -0.72718662118E+01  0.80549754362E+01  0.13112634588E+02  0.51100000000E-03 0.  1.
        -12    1    3    3    0    0  0.28524187660E+02 -0.17015649244E+02 -0.10522544431E+02  0.34840860238E+02  0.00000000000E+00 0.  1.
</event>
<event>
 7    1  0.2153242E-013  0.7246160E+02  0.7816164E-02  0.1226708E+00
        -11   -1    0    0    0    0  0.00000000000E+00  0.00000000000E+00  0.45593999997E+02  0.45594000000E+02  0.51100000000E-03 0.  1.
         11   -1    0    0    0    0 -0.00000000000E+00 -0.00000000000E+00 -0.45593999997E+02  0.45594000000E+02  0.51100000000E-03 0. -1.
    9900012    2    1    2    0    0  0.18669004202E+02 -0.14254824107E+01  0.33828850229E+00  0.72461597326E+02  0.70000035214E+02 0.  0.
         12    1    1    2    0    0 -0.18669004202E+02  0.14254824107E+01 -0.33828850229E+00  0.18726402674E+02  0.00000000000E+00 0. -1.
         11    1    3    3    0    0 -0.10991267169E+01  0.11120291092E+01 -0.40496893737E+01  0.43410451004E+01  0.51100000000E-03 0. -1.
        -11    1    3    3    0    0 -0.12203191289E+02  0.10910184146E+02  0.23407786565E+02  0.28563516378E+02  0.51100000000E-03 0.  1.
         12    1    3    3    0    0  0.31971322208E+02 -0.13447695666E+02 -0.19019808690E+02  0.39557035847E+02  0.00000000000E+00 0. -1.
</event>
<event>
 7    1  0.2153242E-013  0.7246160E+02  0.7816164E-02  0.1226708E+00
        -11   -1    0    0    0    0  0.00000000000E+00  0.00000000000E+00  0.45593999997E+02  0.45594000000E+02  0.51100000000E-03 0. -1.
         11   -1    0    0    0    0 -0.00000000000E+00 -0.00000000000E+00 -0.45593999997E+02  0.45594000000E+02  0.51100000000E-03 0.  1.
    9900012    2    1    2    0    0  0.75712316461E+01  0.15773991457E+02  0.66735039170E+01  0.72461601263E+02  0.70000040343E+02 0.  0.
         12    1    1    2    0    0 -0.75712316461E+01 -0.15773991457E+02 -0.66735039170E+01  0.18726398737E+02  0.00000000000E+00 0. -1.
         11    1    3    3    0    0 -0.13246119243E+02 -0.62384732543E+01  0.30262010047E+01  0.14951124250E+02  0.51100000000E-03 0. -1.
        -11    1    3    3    0    0  0.59411051078E+01 -0.15344896517E+02 -0.30816863405E+01  0.16740948897E+02  0.51100000000E-03 0.  1.
         12    1    3    3    0    0  0.14876245782E+02  0.37357361228E+02  0.67289892528E+01  0.40769528116E+02  0.00000000000E+00 0. -1.
</event>
<event>
 7    1  0.2153242E-013  0.7246150E+02  0.7816164E-02  0.1226708E+00
        -11   -1    0    0    0    0  0.00000000000E+00  0.00000000000E+00  0.45593999997E+02  0.45594000000E+02  0.51100000000E-03 0. -1.
         11   -1    0    0    0    0 -0.00000000000E+00 -0.00000000000E+00 -0.45593999997E+02  0.45594000000E+02  0.51100000000E-03 0.  1.
    9900012    2    1    2    0    0  0.20668719254E+01  0.11854172167E+02 -0.14348807951E+02  0.72461504147E+02  0.69999913830E+02 0.  0.
         12    1    1    2    0    0 -0.20668719254E+01 -0.11854172167E+02  0.14348807951E+02  0.18726495853E+02  0.00000000000E+00 0. -1.
         11    1    3    3    0    0 -0.23663529335E+02 -0.26633893563E+01 -0.41285068257E+01  0.24168178093E+02  0.51100000000E-03 0. -1.
        -11    1    3    3    0    0 -0.75438355125E+01  0.92882079950E+00 -0.97314188417E+01  0.12347982639E+02  0.51100000000E-03 0.  1.
        -12    1    3    3    0    0  0.33274236773E+02  0.13588740724E+02 -0.48888228387E+00  0.35945343415E+02  0.00000000000E+00 0.  1.
</event>
<event>
 7    1  0.2153242E-013  0.7246194E+02  0.7816164E-02  0.1226707E+00
        -11   -1    0    0    0    0  0.00000000000E+00  0.00000000000E+00  0.45593999997E+02  0.45594000000E+02  0.51100000000E-03 0.  1.
         11   -1    0    0    0    0 -0.00000000000E+00 -0.00000000000E+00 -0.45593999997E+02  0.45594000000E+02  0.51100000000E-03 0. -1.
    9900012    2    1    2    0    0 -0.11940871156E+02  0.12769598661E+02  0.67095545785E+01  0.72461943913E+02  0.70000486706E+02 0.  0.
         12    1    1    2    0    0  0.11940871156E+02 -0.12769598661E+02 -0.67095545785E+01  0.18726056087E+02  0.00000000000E+00 0. -1.
         11    1    3    3    0    0 -0.84079321299E+01  0.13013260336E+02  0.14700019987E+02  0.21357173389E+02  0.51100000000E-03 0. -1.
        -11    1    3    3    0    0 -0.11225505249E+02 -0.17740412191E+01  0.19471078955E+02  0.22545112692E+02  0.51100000000E-03 0.  1.
         12    1    3    3    0    0  0.76925662230E+01  0.15303795444E+01 -0.27461544364E+02  0.28559657832E+02  0.00000000000E+00 0. -1.
</event>
<event>
 7    1  0.2153242E-013  0.7246153E+02  0.7816164E-02  0.1226708E+00
        -11   -1    0    0    0    0  0.00000000000E+00  0.00000000000E+00  0.45593999997E+02  0.45594000000E+02  0.51100000000E-03 0.  1.
         11   -1    0    0    0    0 -0.00000000000E+00 -0.00000000000E+00 -0.45593999997E+02  0.45594000000E+02  0.51100000000E-03 0. -1.
    9900012    2    1    2    0    0 -0.40197456000E+01 -0.33957111658E+01  0.17971963181E+02  0.72461530242E+02  0.69999947825E+02 0.  0.
         12    1    1    2    0    0  0.40197456000E+01  0.33957111658E+01 -0.17971963181E+02  0.18726469758E+02  0.00000000000E+00 0. -1.
         11    1    3    3    0    0 -0.15232869531E+02  0.71361601309E+00 -0.12316293583E+02  0.19602057286E+02  0.51100000000E-03 0. -1.
        -11    1    3    3    0    0 -0.10009320825E+02  0.12447445780E+02  0.14958351655E+02  0.21883274305E+02  0.51100000000E-03 0.  1.
        -12    1    3    3    0    0  0.21222444756E+02 -0.16556772959E+02  0.15329905109E+02  0.30976198651E+02  0.00000000000E+00 0.  1.
</event>
<event>
 7    1  0.2153242E-013  0.7246153E+02  0.7816164E-02  0.1226708E+00
        -11   -1    0    0    0    0  0.00000000000E+00  0.00000000000E+00  0.45593999997E+02  0.45594000000E+02  0.51100000000E-03 0.  1.
         11   -1    0    0    0    0 -0.00000000000E+00 -0.00000000000E+00 -0.45593999997E+02  0.45594000000E+02  0.51100000000E-03 0. -1.
    9900012    2    1    2    0    0 -0.10529393293E+02 -0.15378968540E+02  0.18165157898E+01  0.72461534074E+02  0.69999952816E+02 0.  0.
         12    1    1    2    0    0  0.10529393293E+02  0.15378968540E+02 -0.18165157898E+01  0.18726465926E+02  0.00000000000E+00 0. -1.
         11    1    3    3    0    0 -0.10074829215E+02  0.60321114645E-01  0.15745962092E+02  0.18693344934E+02  0.51100000000E-03 0. -1.
        -11    1    3    3    0    0  0.11589831328E+02  0.95606094643E+01  0.92220390089E+01  0.17628824331E+02  0.51100000000E-03 0.  1.
         12    1    3    3    0    0 -0.12044395406E+02 -0.24999899119E+02 -0.23151485311E+02  0.36139364809E+02  0.00000000000E+00 0. -1.
</event>
<event>
 7    1  0.2153242E-013  0.7246155E+02  0.7816164E-02  0.1226708E+00
        -11   -1    0    0    0    0  0.00000000000E+00  0.00000000000E+00  0.45593999997E+02  0.45594000000E+02  0.51100000000E-03 0. -1.
         11   -1    0    0    0    0 -0.00000000000E+00 -0.00000000000E+00 -0.45593999997E+02  0.45594000000E+02  0.51100000000E-03 0.  1.
    9900012    2    1    2    0    0  0.12654529527E+02 -0.11210935266E+02 -0.80534192216E+01  0.72461554842E+02  0.69999979870E+02 0.  0.
         12    1    1    2    0    0 -0.12654529527E+02  0.11210935266E+02  0.80534192216E+01  0.18726445158E+02  0.00000000000E+00 0. -1.
         11    1    3    3    0    0 -0.15205023618E+02 -0.25173738007E+01  0.13796309198E+02  0.20684971884E+02  0.51100000000E-03 0. -1.
        -11    1    3    3    0    0  0.10328403038E+02  0.87560962576E+01  0.57535100070E+01  0.14712172125E+02  0.51100000000E-03 0.  1.
        -12    1    3    3    0    0  0.17531150107E+02 -0.17449657723E+02 -0.27603238427E+02  0.37064410833E+02  0.00000000000E+00 0.  1.
</event>
<event>
 7    1  0.2153242E-013  0.7246159E+02  0.7816164E-02  0.1226708E+00
        -11   -1    0    0    0    0  0.00000000000E+00  0.00000000000E+00  0.45593999997E+02  0.45594000000E+02  0.51100000000E-03 0. -1.
         11   -1    0    0    0    0 -0.00000000000E+00 -0.00000000000E+00 -0.45593999997E+02  0.45594000000E+02  0.51100000000E-03 0.  1.
    9900012    2    1    2    0    0 -0.13924312474E+02 -0.45778763999E+01 -0.11654833580E+02  0.72461586142E+02  0.70000020645E+02 0.  0.
         12    1    1    2    0    0  0.13924312474E+02  0.45778763999E+01  0.11654833580E+02  0.18726413858E+02  0.00000000000E+00 0. -1.
         11    1    3    3    0    0  0.55895281122E+01  0.49802180534E+01 -0.56544805990E+01  0.93818200517E+01  0.51100000000E-03 0. -1.
        -11    1    3    3    0    0  0.59664625476E+01  0.21092863416E+02 -0.75679446582E+01  0.23190113174E+02  0.51100000000E-03 0.  1.
         12    1    3    3    0    0 -0.25480303134E+02 -0.30650957869E+02  0.15675916775E+01  0.39889652916E+02  0.00000000000E+00 0. -1.
</event>
<event>
 7    1  0.2153242E-013  0.7246150E+02  0.7816164E-02  0.1226708E+00
        -11   -1    0    0    0    0  0.00000000000E+00  0.00000000000E+00  0.45593999997E+02  0.45594000000E+02  0.51100000000E-03 0. -1.
         11   -1    0    0    0    0 -0.00000000000E+00 -0.00000000000E+00 -0.45593999997E+02  0.45594000000E+02  0.51100000000E-03 0.  1.
    9900012    2    1    2    0    0 -0.15700461918E+02  0.31028075669E+01 -0.97236757030E+01  0.72461500370E+02  0.69999908910E+02 0.  0.
         12    1    1    2    0    0  0.15700461918E+02 -0.31028075669E+01  0.97236757030E+01  0.18726499630E+02  0.00000000000E+00 0. -1.
         11    1    3    3    0    0 -0.55347241816E+01 -0.12617823419E+02  0.37690953838E+01  0.14284562292E+02  0.51100000000E-03 0. -1.
        -11    1    3    3    0    0 -0.96370570403E+01 -0.14771993734E+02  0.94535319066E+01  0.20011345109E+02  0.51100000000E-03 0.  1.
         12    1    3    3    0    0 -0.52868069578E+00  0.30492624720E+02 -0.22946302993E+02  0.38165592969E+02  0.00000000000E+00 0. -1.
</event>
<event>
 7    1  0.2153242E-013  0.7246154E+02  0.7816164E-02  0.1226708E+00
        -11   -1    0    0    0    0  0.00000000000E+00  0.00000000000E+00  0.45593999997E+02  0.45594000000E+02  0.51100000000E-03 0. -1.
         11   -1    0    0    0    0 -0.00000000000E+00 -0.00000000000E+00 -0.45593999997E+02  0.45594000000E+02  0.51100000000E-03 0.  1.
    9900012    2    1    2    0    0 -0.49269125011E+01  0.11533875542E+02 -0.13905952476E+02  0.72461541016E+02  0.69999961859E+02 0.  0.
         12    1    1    2    0    0  0.49269125011E+01 -0.11533875542E+02  0.13905952476E+02  0.18726458984E+02  0.00000000000E+00 0. -1.
         11    1    3    3    0    0  0.46671831043E+01  0.98322533007E+01  0.19586752266E+02  0.22407513643E+02  0.51100000000E-03 0. -1.
        -11    1    3    3    0    0  0.43981400641E+01 -0.91381672267E+01  0.20512879832E+01  0.10346860342E+02  0.51100000000E-03 0.  1.
        -12    1    3    3    0    0 -0.13992235670E+02  0.10839789468E+02 -0.35543992725E+02  0.39707167030E+02  0.00000000000E+00 0.  1.
</event>
<event>
 7    1  0.3231711E-013  0.7246158E+02  0.7816164E-02  0.1226708E+00
        -11   -1    0    0    0    0  0.00000000000E+00  0.00000000000E+00  0.45593999997E+02  0.45594000000E+02  0.51100000000E-03 0. -1.
         11   -1    0    0    0    0 -0.00000000000E+00 -0.00000000000E+00 -0.45593999997E+02  0.45594000000E+02  0.51100000000E-03 0.  1.
    9900012    2    1    2    0    0  0.62889340798E+01  0.47008009948E+01 -0.17000894314E+02  0.72461584718E+02  0.70000018789E+02 0.  0.
         12    1    1    2    0    0 -0.62889340798E+01 -0.47008009948E+01  0.17000894314E+02  0.18726415282E+02  0.00000000000E+00 0. -1.
         11    1    3    3    0    0  0.86624187670E+00  0.10340810031E+02  0.10011295671E+02  0.14419041867E+02  0.51100000000E-03 0. -1.
        -11    1    3    3    0    0 -0.12994909662E+02  0.15243676991E+02 -0.21995071871E+02  0.29749294987E+02  0.51100000000E-03 0.  1.
         12    1    3    3    0    0  0.18417601865E+02 -0.20883686027E+02 -0.50171181136E+01  0.28293247864E+02  0.00000000000E+00 0. -1.
</event>
<event>
 7    1  0.2153242E-013  0.7246161E+02  0.7816164E-02  0.1226708E+00
        -11   -1    0    0    0    0  0.00000000000E+00  0.00000000000E+00  0.45593999997E+02  0.45594000000E+02  0.51100000000E-03 0.  1.
         11   -1    0    0    0    0 -0.00000000000E+00 -0.00000000000E+00 -0.45593999997E+02  0.45594000000E+02  0.51100000000E-03 0. -1.
    9900012    2    1    2    0    0 -0.75149601200E+01  0.11071632591E+02  0.13100462564E+02  0.72461607042E+02  0.70000047871E+02 0.  0.
         12    1    1    2    0    0  0.75149601200E+01 -0.11071632591E+02 -0.13100462564E+02  0.18726392958E+02  0.00000000000E+00 0. -1.
         11    1    3    3    0    0  0.37945648333E+01 -0.13445897263E+02 -0.19085454650E+02  0.23652599328E+02  0.51100000000E-03 0. -1.
        -11    1    3    3    0    0  0.44867438294E+01  0.95284278895E+01  0.73816328647E+00  0.10557778816E+02  0.51100000000E-03 0.  1.
        -12    1    3    3    0    0 -0.15796268783E+02  0.14989101964E+02  0.31447753928E+02  0.38251228898E+02  0.00000000000E+00 0.  1.
</event>
<event>
 7    1  0.2153242E-013  0.7246155E+02  0.7816164E-02  0.1226708E+00
        -11   -1    0    0    0    0  0.00000000000E+00  0.00000000000E+00  0.45593999997E+02  0.45594000000E+02  0.51100000000E-03 0. -1.
         11   -1    0    0    0    0 -0.00000000000E+00 -0.00000000000E+00 -0.45593999997E+02  0.45594000000E+02  0.51100000000E-03 0.  1.
    9900012    2    1    2    0    0  0.15256014948E+02 -0.69545337970E+01 -0.83407733250E+01  0.72461547264E+02  0.69999969998E+02 0.  0.
         12    1    1    2    0    0 -0.15256014948E+02  0.69545337970E+01  0.83407733250E+01  0.18726452736E+02  0.00000000000E+00 0. -1.
         11    1    3    3    0    0 -0.51289368145E+00 -0.61719584334E+01  0.18560621140E+02  0.19566624343E+02  0.51100000000E-03 0. -1.
        -11    1    3    3    0    0  0.29277605268E+02  0.52969908336E+01 -0.22914448139E+02  0.37554070564E+02  0.51100000000E-03 0.  1.
         12    1    3    3    0    0 -0.13508696639E+02 -0.60795661972E+01 -0.39869463263E+01  0.15340852357E+02  0.00000000000E+00 0. -1.
</event>
<event>
 7    1  0.2153242E-013  0.7246158E+02  0.7816164E-02  0.1226708E+00
        -11   -1    0    0    0    0  0.00000000000E+00  0.00000000000E+00  0.45593999997E+02  0.45594000000E+02  0.51100000000E-03 0.  1.
         11   -1    0    0    0    0 -0.00000000000E+00 -0.00000000000E+00 -0.45593999997E+02  0.45594000000E+02  0.51100000000E-03 0. -1.
    9900012    2    1    2    0    0  0.97197285331E+01 -0.41269524595E+01  0.15465255561E+02  0.72461575116E+02  0.70000006282E+02 0.  0.
         12    1    1    2    0    0 -0.97197285331E+01  0.41269524595E+01 -0.15465255561E+02  0.18726424884E+02  0.00000000000E+00 0. -1.
         11    1    3    3    0    0  0.38932700080E+01 -0.21080964829E+01  0.26742760417E+02  0.27106767736E+02  0.51100000000E-03 0. -1.
        -11    1    3    3    0    0 -0.35245501658E+01 -0.21354921094E+02 -0.13300729965E+01  0.21684653634E+02  0.51100000000E-03 0.  1.
         12    1    3    3    0    0  0.93510086909E+01  0.19336065117E+02 -0.99474318596E+01  0.23670153746E+02  0.00000000000E+00 0. -1.
</event>
<event>
 7    1  0.2153242E-013  0.7246154E+02  0.7816164E-02  0.1226708E+00
        -11   -1    0    0    0    0  0.00000000000E+00  0.00000000000E+00  0.45593999997E+02  0.45594000000E+02  0.51100000000E-03 0. -1.
         11   -1    0    0    0    0 -0.00000000000E+00 -0.00000000000E+00 -0.45593999997E+02  0.45594000000E+02  0.51100000000E-03 0.  1.
    9900012    2    1    2    0    0 -0.37269758078E+00 -0.89034234302E+01 -0.16470290662E+02  0.72461539396E+02  0.69999959749E+02 0.  0.
         12    1    1    2    0    0  0.37269758078E+00  0.89034234302E+01  0.16470290662E+02  0.18726460604E+02  0.00000000000E+00 0. -1.
         11    1    3    3    0    0  0.20095615585E+02  0.40568599367E+00 -0.52301697739E+01  0.20769040011E+02  0.51100000000E-03 0. -1.
        -11    1    3    3    0    0 -0.16175218890E+01  0.16903014092E+02 -0.92699206278E+01  0.19345792596E+02  0.51100000000E-03 0.  1.
         12    1    3    3    0    0 -0.18850791277E+02 -0.26212123516E+02 -0.19702002607E+01  0.32346706788E+02  0.00000000000E+00 0. -1.
</event>
<event>
 7    1  0.2153242E-013  0.7246140E+02  0.7816164E-02  0.1226708E+00
        -11   -1    0    0    0    0  0.00000000000E+00  0.00000000000E+00  0.45593999997E+02  0.45594000000E+02  0.51100000000E-03 0.  1.
         11   -1    0    0    0    0 -0.00000000000E+00 -0.00000000000E+00 -0.45593999997E+02  0.45594000000E+02  0.51100000000E-03 0. -1.
    9900012    2    1    2    0    0 -0.16231026122E+02  0.18930603215E+01 -0.91463527442E+01  0.72461397135E+02  0.69999774427E+02 0.  0.
         12    1    1    2    0    0  0.16231026122E+02 -0.18930603215E+01  0.91463527442E+01  0.18726602865E+02  0.00000000000E+00 0. -1.
         11    1    3    3    0    0 -0.32641387883E+02 -0.10038478775E+01  0.10092098416E+02  0.34180672378E+02  0.51100000000E-03 0. -1.
        -11    1    3    3    0    0 -0.15623069484E+01 -0.93444630243E+01 -0.35550009856E+00  0.94808318619E+01  0.51100000000E-03 0.  1.
        -12    1    3    3    0    0  0.17972668710E+02  0.12241371223E+02 -0.18882951062E+02  0.28799892895E+02  0.00000000000E+00 0.  1.
</event>
<event>
 7    1  0.2153242E-013  0.7246187E+02  0.7816164E-02  0.1226707E+00
        -11   -1    0    0    0    0  0.00000000000E+00  0.00000000000E+00  0.45593999997E+02  0.45594000000E+02  0.51100000000E-03 0. -1.
         11   -1    0    0    0    0 -0.00000000000E+00 -0.00000000000E+00 -0.45593999997E+02  0.45594000000E+02  0.51100000000E-03 0.  1.
    9900012    2    1    2    0    0 -0.86168698631E+01  0.15940758504E+02 -0.47233352469E+01  0.72461865221E+02  0.70000384196E+02 0.  0.
         12    1    1    2    0    0  0.86168698631E+01 -0.15940758504E+02  0.47233352469E+01  0.18726134779E+02  0.00000000000E+00 0. -1.
         11    1    3    3    0    0 -0.12413897635E+02  0.51097284714E+01  0.21096770073E+00  0.13426045105E+02  0.51100000000E-03 0. -1.
        -11    1    3    3    0    0 -0.85955587734E+01  0.17536661099E+02 -0.26716389262E+02  0.33093557811E+02  0.51100000000E-03 0.  1.
         12    1    3    3    0    0  0.12392586545E+02 -0.67056310668E+01  0.21782086314E+02  0.25942262305E+02  0.00000000000E+00 0. -1.
</event>
<event>
 7    1  0.2153242E-013  0.7246158E+02  0.7816164E-02  0.1226708E+00
        -11   -1    0    0    0    0  0.00000000000E+00  0.00000000000E+00  0.45593999997E+02  0.45594000000E+02  0.51100000000E-03 0. -1.
         11   -1    0    0    0    0 -0.00000000000E+00 -0.00000000000E+00 -0.45593999997E+02  0.45594000000E+02  0.51100000000E-03 0.  1.
    9900012    2    1    2    0    0  0.17741491483E+02  0.58052349750E+01  0.14891668956E+01  0.72461577725E+02  0.70000009680E+02 0.  0.
         12    1    1    2    0    0 -0.17741491483E+02 -0.58052349750E+01 -0.14891668956E+01  0.18726422275E+02  0.00000000000E+00 0. -1.
         11    1    3    3    0    0  0.25704697551E+02  0.66810824891E+01 -0.63001410120E+01  0.27295789354E+02  0.51100000000E-03 0. -1.
        -11    1    3    3    0    0  0.12649953640E+01  0.28462224944E+01 -0.17611860567E+02  0.17885156658E+02  0.51100000000E-03 0.  1.
         12    1    3    3    0    0 -0.92282014316E+01 -0.37220700085E+01  0.25401168475E+02  0.27280631714E+02  0.00000000000E+00 0. -1.
</event>
<event>
 7    1  0.2153242E-013  0.7246157E+02  0.7816164E-02  0.1226708E+00
        -11   -1    0    0    0    0  0.00000000000E+00  0.00000000000E+00  0.45593999997E+02  0.45594000000E+02  0.51100000000E-03 0.  1.
         11   -1    0    0    0    0 -0.00000000000E+00 -0.00000000000E+00 -0.45593999997E+02  0.45594000000E+02  0.51100000000E-03 0. -1.
    9900012    2    1    2    0    0  0.59627891723E+01  0.56436060868E+01  0.16830741571E+02  0.72461574655E+02  0.70000005681E+02 0.  0.
         12    1    1    2    0    0 -0.59627891723E+01 -0.56436060868E+01 -0.16830741571E+02  0.18726425345E+02  0.00000000000E+00 0. -1.
         11    1    3    3    0    0  0.21298491032E+01  0.10186273074E+02 -0.20281366158E+02  0.22795399313E+02  0.51100000000E-03 0. -1.
        -11    1    3    3    0    0  0.14169624949E+02 -0.11765076410E+01  0.39341299711E+01  0.14752620795E+02  0.51100000000E-03 0.  1.
        -12    1    3    3    0    0 -0.10336684880E+02 -0.33661593466E+01  0.33177977758E+02  0.34913554547E+02  0.00000000000E+00 0.  1.
</event>
<event>
 7    1  0.2153242E-013  0.7246160E+02  0.7816164E-02  0.1226708E+00
        -11   -1    0    0    0    0  0.00000000000E+00  0.00000000000E+00  0.45593999997E+02  0.45594000000E+02  0.51100000000E-03 0. -1.
         11   -1    0    0    0    0 -0.00000000000E+00 -0.00000000000E+00 -0.45593999997E+02  0.45594000000E+02  0.51100000000E-03 0.  1.
    9900012    2    1    2    0    0 -0.24852327482E+01  0.16316387586E+02  0.88474308151E+01  0.72461603718E+02  0.70000043541E+02 0.  0.
         12    1    1    2    0    0  0.24852327482E+01 -0.16316387586E+02 -0.88474308151E+01  0.18726396282E+02  0.00000000000E+00 0. -1.
         11    1    3    3    0    0  0.50656301221E+01  0.55494298113E+01  0.75907143158E+01  0.10680623758E+02  0.51100000000E-03 0. -1.
        -11    1    3    3    0    0  0.96486438872E+01 -0.15036045307E+02  0.18978287912E+02  0.26064427859E+02  0.51100000000E-03 0.  1.
         12    1    3    3    0    0 -0.17199506757E+02  0.25803003081E+02 -0.17721571412E+02  0.35716552102E+02  0.00000000000E+00 0. -1.
</event>
<event>
 7    1  0.2153242E-013  0.7246174E+02  0.7816164E-02  0.1226708E+00
        -11   -1    0    0    0    0  0.00000000000E+00  0.00000000000E+00  0.45593999997E+02  0.45594000000E+02  0.51100000000E-03 0.  1.
         11   -1    0    0    0    0 -0.00000000000E+00 -0.00000000000E+00 -0.45593999997E+02  0.45594000000E+02  0.51100000000E-03 0. -1.
    9900012    2    1    2    0    0 -0.27070359847E+01  0.35025492605E+01  0.18195521604E+02  0.72461737651E+02  0.70000218012E+02 0.  0.
         12    1    1    2    0    0  0.27070359847E+01 -0.35025492605E+01 -0.18195521604E+02  0.18726262349E+02  0.00000000000E+00 0. -1.
         11    1    3    3    0    0  0.14424848889E+02  0.12685423677E+02 -0.16181639876E+02  0.25116562438E+02  0.51100000000E-03 0. -1.
        -11    1    3    3    0    0  0.21963365507E+01 -0.12324293527E+02  0.96657146942E+01  0.15815756257E+02  0.51100000000E-03 0.  1.
        -12    1    3    3    0    0 -0.19328221424E+02  0.31414191101E+01  0.24711446785E+02  0.31529418956E+02  0.00000000000E+00 0.  1.
</event>
<event>
 7    1  0.2153242E-013  0.7246147E+02  0.7816164E-02  0.1226708E+00
        -11   -1    0    0    0    0  0.00000000000E+00  0.00000000000E+00  0.45593999997E+02  0.45594000000E+02  0.51100000000E-03 0.  1.
         11   -1    0    0    0    0 -0.00000000000E+00 -0.00000000000E+00 -0.45593999997E+02  0.45594000000E+02  0.51100000000E-03 0. -1.
    9900012    2    1    2    0    0  0.14611690362E+02 -0.10837120823E+02  0.44427715381E+01  0.72461470639E+02  0.69999870180E+02 0.  0.
         12    1    1    2    0    0 -0.14611690362E+02  0.10837120823E+02 -0.44427715381E+01  0.18726529361E+02  0.00000000000E+00 0. -1.
         11    1    3    3    0    0  0.74209586189E+01 -0.16595014659E+02  0.28294227852E+01  0.18397575164E+02  0.51100000000E-03 0. -1.
        -11    1    3    3    0    0  0.26930375510E+02 -0.87057956620E+01  0.66643361267E+01  0.29076612242E+02  0.51100000000E-03 0.  1.
         12    1    3    3    0    0 -0.19739643766E+02  0.14463689497E+02 -0.50509873738E+01  0.24987283233E+02  0.00000000000E+00 0. -1.
</event>
<event>
 7    1  0.2153242E-013  0.7246158E+02  0.7816164E-02  0.1226708E+00
        -11   -1    0    0    0    0  0.00000000000E+00  0.00000000000E+00  0.45593999997E+02  0.45594000000E+02  0.51100000000E-03 0.  1.
         11   -1    0    0    0    0 -0.00000000000E+00 -0.00000000000E+00 -0.45593999997E+02  0.45594000000E+02  0.51100000000E-03 0. -1.
    9900012    2    1    2    0    0  0.13508971322E+02 -0.22032056811E+01  0.12780151049E+02  0.72461583303E+02  0.70000016947E+02 0.  0.
         12    1    1    2    0    0 -0.13508971322E+02  0.22032056811E+01 -0.12780151049E+02  0.18726416697E+02  0.00000000000E+00 0. -1.
         11    1    3    3    0    0 -0.42238915595E+01 -0.10238694406E+01  0.44602363922E+01  0.62276221363E+01  0.51100000000E-03 0. -1.
        -11    1    3    3    0    0  0.14005987831E+02  0.68201563585E+01  0.34904365535E+02  0.38222989960E+02  0.51100000000E-03 0.  1.
         12    1    3    3    0    0  0.37268750508E+01 -0.79994925990E+01 -0.26584450878E+02  0.28010971207E+02  0.00000000000E+00 0. -1.
</event>
<event>
 7    1  0.2153242E-013  0.7246158E+02  0.7816164E-02  0.1226708E+00
        -11   -1    0    0    0    0  0.00000000000E+00  0.00000000000E+00  0.45593999997E+02  0.45594000000E+02  0.51100000000E-03 0. -1.
         11   -1    0    0    0    0 -0.00000000000E+00 -0.00000000000E+00 -0.45593999997E+02  0.45594000000E+02  0.51100000000E-03 0.  1.
    9900012    2    1    2    0    0  0.54244899435E+00  0.15289928316E+02 -0.10798262663E+02  0.72461584557E+02  0.70000018580E+02 0.  0.
         12    1    1    2    0    0 -0.54244899435E+00 -0.15289928316E+02  0.10798262663E+02  0.18726415443E+02  0.00000000000E+00 0. -1.
         11    1    3    3    0    0  0.26641156462E+02  0.14950114581E+02  0.74315001422E+00  0.30558295369E+02  0.51100000000E-03 0. -1.
        -11    1    3    3    0    0  0.59746270225E+01  0.45432965999E+01  0.15096390617E+00  0.75073632132E+01  0.51100000000E-03 0.  1.
        -12    1    3    3    0    0 -0.32073334490E+02 -0.42034828650E+01 -0.11692376583E+02  0.34395925975E+02  0.00000000000E+00 0.  1.
</event>
<event>
 7    1  0.2153242E-013  0.7246175E+02  0.7816164E-02  0.1226708E+00
        -11   -1    0    0    0    0  0.00000000000E+00  0.00000000000E+00  0.45593999997E+02  0.45594000000E+02  0.51100000000E-03 0. -1.
         11   -1    0    0    0    0 -0.00000000000E+00 -0.00000000000E+00 -0.45593999997E+02  0.45594000000E+02  0.51100000000E-03 0.  1.
    9900012    2    1    2    0    0 -0.16543115796E+02 -0.35497465527E+01 -0.80247791475E+01  0.72461749409E+02  0.70000233330E+02 0.  0.
         12    1    1    2    0    0  0.16543115796E+02  0.35497465527E+01  0.80247791475E+01  0.18726250591E+02  0.00000000000E+00 0. -1.
         11    1    3    3    0    0 -0.16659327610E+02 -0.31614581381E+01 -0.37360567487E+01  0.17363356078E+02  0.51100000000E-03 0. -1.
        -11    1    3    3    0    0  0.23733536005E+02 -0.13357179919E+02 -0.67023067290E+01  0.28046673643E+02  0.51100000000E-03 0.  1.
         12    1    3    3    0    0 -0.23617324191E+02  0.12968891504E+02  0.24135843302E+01  0.27051719688E+02  0.00000000000E+00 0. -1.
</event>
<event>
 7    1  0.2153242E-013  0.7246155E+02  0.7816164E-02  0.1226708E+00
        -11   -1    0    0    0    0  0.00000000000E+00  0.00000000000E+00  0.45593999997E+02  0.45594000000E+02  0.51100000000E-03 0. -1.
         11   -1    0    0    0    0 -0.00000000000E+00 -0.00000000000E+00 -0.45593999997E+02  0.45594000000E+02  0.51100000000E-03 0.  1.
    9900012    2    1    2    0    0  0.56974873422E-02 -0.26979550319E+01 -0.18531078525E+02  0.72461551722E+02  0.69999975806E+02 0.  0.
         12    1    1    2    0    0 -0.56974873422E-02  0.26979550319E+01  0.18531078525E+02  0.18726448278E+02  0.00000000000E+00 0. -1.
         11    1    3    3    0    0  0.73258322257E+00  0.14886060108E+02 -0.15640152021E+02  0.21604300942E+02  0.51100000000E-03 0. -1.
        -11    1    3    3    0    0  0.71618485511E+01 -0.19351499157E+02 -0.21967279137E+02  0.30138579052E+02  0.51100000000E-03 0.  1.
        -12    1    3    3    0    0 -0.78887342864E+01  0.17674840171E+01  0.19076352633E+02  0.20718671728E+02  0.00000000000E+00 0.  1.
</event>
<event>
 7    1  0.2153242E-013  0.7246154E+02  0.7816164E-02  0.1226708E+00
        -11   -1    0    0    0    0  0.00000000000E+00  0.00000000000E+00  0.45593999997E+02  0.45594000000E+02  0.51100000000E-03 0. -1.
         11   -1    0    0    0    0 -0.00000000000E+00 -0.00000000000E+00 -0.45593999997E+02  0.45594000000E+02  0.51100000000E-03 0.  1.
    9900012    2    1    2    0    0 -0.93384515990E+01  0.61598636440E+01 -0.15017647212E+02  0.72461539411E+02  0.69999959769E+02 0.  0.
         12    1    1    2    0    0  0.93384515990E+01 -0.61598636440E+01  0.15017647212E+02  0.18726460589E+02  0.00000000000E+00 0. -1.
         11    1    3    3    0    0 -0.10593435963E+01  0.19758676189E+02 -0.13474163643E+01  0.19832877369E+02  0.51100000000E-03 0. -1.
        -11    1    3    3    0    0 -0.29594830415E+01  0.17702512105E+02  0.27666878833E+00  0.17950320905E+02  0.51100000000E-03 0.  1.
         12    1    3    3    0    0 -0.53196249612E+01 -0.31301324650E+02 -0.13946899636E+02  0.34678341138E+02  0.00000000000E+00 0. -1.
</event>
<event>
 7    1  0.2153242E-013  0.7246158E+02  0.7816164E-02  0.1226708E+00
        -11   -1    0    0    0    0  0.00000000000E+00  0.00000000000E+00  0.45593999997E+02  0.45594000000E+02  0.51100000000E-03 0.  1.
         11   -1    0    0    0    0 -0.00000000000E+00 -0.00000000000E+00 -0.45593999997E+02  0.45594000000E+02  0.51100000000E-03 0. -1.
    9900012    2    1    2    0    0  0.11431408710E+02 -0.83223452202E+01  0.12277630935E+02  0.72461581324E+02  0.70000014368E+02 0.  0.
         12    1    1    2    0    0 -0.11431408710E+02  0.83223452202E+01 -0.12277630935E+02  0.18726418676E+02  0.00000000000E+00 0. -1.
         11    1    3    3    0    0  0.11642907527E+02  0.94557257177E+01 -0.18199754780E+02  0.23583874127E+02  0.51100000000E-03 0. -1.
        -11    1    3    3    0    0 -0.56171046345E+01 -0.16845927407E+02 -0.15464530971E+00  0.17758407871E+02  0.51100000000E-03 0.  1.
        -12    1    3    3    0    0  0.54056058177E+01 -0.93214353111E+00  0.30632031025E+02  0.31119299326E+02  0.00000000000E+00 0.  1.
</event>
<event>
 7    1  0.2153242E-013  0.7246159E+02  0.7816164E-02  0.1226708E+00
        -11   -1    0    0    0    0  0.00000000000E+00  0.00000000000E+00  0.45593999997E+02  0.45594000000E+02  0.51100000000E-03 0.  1.
         11   -1    0    0    0    0 -0.00000000000E+00 -0.00000000000E+00 -0.45593999997E+02  0.45594000000E+02  0.51100000000E-03 0. -1.
    9900012    2    1    2    0    0  0.30651555226E+01 -0.17291743249E+02  0.65022106608E+01  0.72461593339E+02  0.70000030020E+02 0.  0.
         12    1    1    2    0    0 -0.30651555226E+01  0.17291743249E+02 -0.65022106608E+01  0.18726406661E+02  0.00000000000E+00 0. -1.
         11    1    3    3    0    0  0.22144389063E+02 -0.17260711961E+02  0.56254486901E+01  0.28634800813E+02  0.51100000000E-03 0. -1.
        -11    1    3    3    0    0  0.74529977983E+01 -0.12395576922E+02  0.15555659805E+01  0.14547071499E+02  0.51100000000E-03 0.  1.
         12    1    3    3    0    0 -0.26532231339E+02  0.12364545634E+02 -0.67880400978E+00  0.29279721027E+02  0.00000000000E+00 0. -1.
</event>
<event>
 7    1  0.2153242E-013  0.7246160E+02  0.7816164E-02  0.1226708E+00
        -11   -1    0    0    0    0  0.00000000000E+00  0.00000000000E+00  0.45593999997E+02  0.45594000000E+02  0.51100000000E-03 0.  1.
         11   -1    0    0    0    0 -0.00000000000E+00 -0.00000000000E+00 -0.45593999997E+02  0.45594000000E+02  0.51100000000E-03 0. -1.
    9900012    2    1    2    0    0  0.16284634229E+02 -0.89358488489E+01 -0.23746947022E+01  0.72461604684E+02  0.70000044799E+02 0.  0.
         12    1    1    2    0    0 -0.16284634229E+02  0.89358488489E+01  0.23746947022E+01  0.18726395316E+02  0.00000000000E+00 0. -1.
         11    1    3    3    0    0 -0.14607889945E+02  0.59288494417E+01 -0.23574960332E+02  0.28360544058E+02  0.51100000000E-03 0. -1.
        -11    1    3    3    0    0 -0.13967161343E+01 -0.98161875162E+00 -0.14899411110E+01  0.22659029345E+01  0.51100000000E-03 0.  1.
        -12    1    3    3    0    0  0.32289240308E+02 -0.13883079539E+02  0.22690206740E+02  0.41835157692E+02  0.00000000000E+00 0.  1.
</event>
<event>
 7    1  0.2153242E-013  0.7246160E+02  0.7816164E-02  0.1226708E+00
        -11   -1    0    0    0    0  0.00000000000E+00  0.00000000000E+00  0.45593999997E+02  0.45594000000E+02  0.51100000000E-03 0. -1.
         11   -1    0    0    0    0 -0.00000000000E+00 -0.00000000000E+00 -0.45593999997E+02  0.45594000000E+02  0.51100000000E-03 0.  1.
    9900012    2    1    2    0    0  0.81080106426E+01  0.20013816002E+01 -0.16761045992E+02  0.72461600783E+02  0.70000039717E+02 0.  0.
         12    1    1    2    0    0 -0.81080106426E+01 -0.20013816002E+01  0.16761045992E+02  0.18726399217E+02  0.00000000000E+00 0. -1.
         11    1    3    3    0    0  0.32873911590E+01 -0.55267736156E+01  0.19246764402E+01  0.67124173657E+01  0.51100000000E-03 0. -1.
        -11    1    3    3    0    0  0.18631929795E+02  0.30580928246E+02 -0.72119554999E+01  0.36528814416E+02  0.51100000000E-03 0.  1.
         12    1    3    3    0    0 -0.13811310312E+02 -0.23052773030E+02 -0.11473766933E+02  0.29220369001E+02  0.00000000000E+00 0. -1.
</event>
<event>
 7    1  0.2153242E-013  0.7246158E+02  0.7816164E-02  0.1226708E+00
        -11   -1    0    0    0    0  0.00000000000E+00  0.00000000000E+00  0.45593999997E+02  0.45594000000E+02  0.51100000000E-03 0. -1.
         11   -1    0    0    0    0 -0.00000000000E+00 -0.00000000000E+00 -0.45593999997E+02  0.45594000000E+02  0.51100000000E-03 0.  1.
    9900012    2    1    2    0    0 -0.73790064627E+01  0.11596349380E+00 -0.17210919487E+02  0.72461576597E+02  0.70000008210E+02 0.  0.
         12    1    1    2    0    0  0.73790064627E+01 -0.11596349380E+00  0.17210919487E+02  0.18726423403E+02  0.00000000000E+00 0. -1.
         11    1    3    3    0    0 -0.11250871220E+02 -0.18721920172E+02 -0.47621879778E+01  0.22355554852E+02  0.51100000000E-03 0.  1.
        -11    1    3    3    0    0 -0.16440613616E+02  0.44661717355E+01  0.71060288055E+01  0.18459038753E+02  0.51100000000E-03 0. -1.
        -12    1    3    3    0    0  0.20312478374E+02  0.14371711930E+02 -0.19554760314E+02  0.31646982991E+02  0.00000000000E+00 0.  1.
</event>
<event>
 7    1  0.2153242E-013  0.7246156E+02  0.7816164E-02  0.1226708E+00
        -11   -1    0    0    0    0  0.00000000000E+00  0.00000000000E+00  0.45593999997E+02  0.45594000000E+02  0.51100000000E-03 0.  1.
         11   -1    0    0    0    0 -0.00000000000E+00 -0.00000000000E+00 -0.45593999997E+02  0.45594000000E+02  0.51100000000E-03 0. -1.
    9900012    2    1    2    0    0 -0.28587844181E+01  0.13874935349E+02  0.12247163365E+02  0.72461561744E+02  0.69999988861E+02 0.  0.
         12    1    1    2    0    0  0.28587844181E+01 -0.13874935349E+02 -0.12247163365E+02  0.18726438256E+02  0.00000000000E+00 0. -1.
         11    1    3    3    0    0 -0.81760547819E+01  0.10729255007E+02 -0.35903415520E+00  0.13494209520E+02  0.51100000000E-03 0. -1.
        -11    1    3    3    0    0 -0.11868893130E+02  0.25435823836E+02  0.12730593059E+02  0.30820768294E+02  0.51100000000E-03 0.  1.
         12    1    3    3    0    0  0.17186163494E+02 -0.22290143494E+02 -0.12439553895E+00  0.28146583929E+02  0.00000000000E+00 0. -1.
</event>
<event>
 7    1  0.2153242E-013  0.7246158E+02  0.7816164E-02  0.1226708E+00
        -11   -1    0    0    0    0  0.00000000000E+00  0.00000000000E+00  0.45593999997E+02  0.45594000000E+02  0.51100000000E-03 0.  1.
         11   -1    0    0    0    0 -0.00000000000E+00 -0.00000000000E+00 -0.45593999997E+02  0.45594000000E+02  0.51100000000E-03 0. -1.
    9900012    2    1    2    0    0 -0.16186269739E+02 -0.92791374807E+01 -0.16065348894E+01  0.72461583503E+02  0.70000017207E+02 0.  0.
         12    1    1    2    0    0  0.16186269739E+02  0.92791374807E+01  0.16065348894E+01  0.18726416497E+02  0.00000000000E+00 0. -1.
         11    1    3    3    0    0  0.44866195371E+00  0.29212483140E+01  0.36403955588E+01  0.46890797975E+01  0.51100000000E-03 0. -1.
        -11    1    3    3    0    0 -0.20196983320E+02  0.13381211280E+02  0.20178021219E+02  0.31529787362E+02  0.51100000000E-03 0.  1.
         12    1    3    3    0    0  0.35620516264E+01 -0.25581597075E+02 -0.25424951667E+02  0.36242716344E+02  0.00000000000E+00 0. -1.
</event>
<event>
 7    1  0.2153242E-013  0.7246085E+02  0.7816164E-02  0.1226710E+00
        -11   -1    0    0    0    0  0.00000000000E+00  0.00000000000E+00  0.45593999997E+02  0.45594000000E+02  0.51100000000E-03 0.  1.
         11   -1    0    0    0    0 -0.00000000000E+00 -0.00000000000E+00 -0.45593999997E+02  0.45594000000E+02  0.51100000000E-03 0. -1.
    9900012    2    1    2    0    0 -0.27248002343E+01  0.14807467890E+02  0.11136441166E+02  0.72460854903E+02  0.69999068064E+02 0.  0.
         12    1    1    2    0    0  0.27248002343E+01 -0.14807467890E+02 -0.11136441166E+02  0.18727145097E+02  0.00000000000E+00 0. -1.
         11    1    3    3    0    0  0.46170919133E+01 -0.14120858771E+02 -0.15026447803E+02  0.21130790899E+02  0.51100000000E-03 0. -1.
        -11    1    3    3    0    0  0.81982746312E+01  0.10453847838E+02 -0.28494399100E+01  0.13587271603E+02  0.51100000000E-03 0.  1.
         12    1    3    3    0    0 -0.15540166779E+02  0.18474478823E+02  0.29012328879E+02  0.37742792402E+02  0.00000000000E+00 0. -1.
</event>
<event>
 7    1  0.2153242E-013  0.7246155E+02  0.7816164E-02  0.1226708E+00
        -11   -1    0    0    0    0  0.00000000000E+00  0.00000000000E+00  0.45593999997E+02  0.45594000000E+02  0.51100000000E-03 0.  1.
         11   -1    0    0    0    0 -0.00000000000E+00 -0.00000000000E+00 -0.45593999997E+02  0.45594000000E+02  0.51100000000E-03 0. -1.
    9900012    2    1    2    0    0  0.99936511901E+01  0.15652637344E+02 -0.24087295038E+01  0.72461545510E+02  0.69999967714E+02 0.  0.
         12    1    1    2    0    0 -0.99936511901E+01 -0.15652637344E+02  0.24087295038E+01  0.18726454490E+02  0.00000000000E+00 0. -1.
         11    1    3    3    0    0  0.12590369497E+02  0.72500398260E+01 -0.15089041491E+02  0.20946590532E+02  0.51100000000E-03 0. -1.
        -11    1    3    3    0    0  0.28149566666E+01 -0.18218922945E+02 -0.50013585037E+01  0.19101484797E+02  0.51100000000E-03 0.  1.
         12    1    3    3    0    0 -0.54116749734E+01  0.26621520463E+02  0.17681670491E+02  0.32413470181E+02  0.00000000000E+00 0. -1.
</event>
<event>
 7    1  0.2153242E-013  0.7246154E+02  0.7816164E-02  0.1226708E+00
        -11   -1    0    0    0    0  0.00000000000E+00  0.00000000000E+00  0.45593999997E+02  0.45594000000E+02  0.51100000000E-03 0.  1.
         11   -1    0    0    0    0 -0.00000000000E+00 -0.00000000000E+00 -0.45593999997E+02  0.45594000000E+02  0.51100000000E-03 0. -1.
    9900012    2    1    2    0    0 -0.38666833795E+01  0.17981746264E+02  0.35193398753E+01  0.72461542989E+02  0.69999964429E+02 0.  0.
         12    1    1    2    0    0  0.38666833795E+01 -0.17981746264E+02 -0.35193398753E+01  0.18726457011E+02  0.00000000000E+00 0. -1.
         11    1    3    3    0    0  0.63990542102E+01 -0.40467421945E+01  0.46893736647E+01  0.89058544117E+01  0.51100000000E-03 0. -1.
        -11    1    3    3    0    0  0.17674379659E+02  0.21138472650E+02 -0.16050162006E+02  0.31887715864E+02  0.51100000000E-03 0.  1.
         12    1    3    3    0    0 -0.27940117249E+02  0.89001580774E+00  0.14880128217E+02  0.31667972713E+02  0.00000000000E+00 0. -1.
</event>
<event>
 7    1  0.2153242E-013  0.7246154E+02  0.7816164E-02  0.1226708E+00
        -11   -1    0    0    0    0  0.00000000000E+00  0.00000000000E+00  0.45593999997E+02  0.45594000000E+02  0.51100000000E-03 0.  1.
         11   -1    0    0    0    0 -0.00000000000E+00 -0.00000000000E+00 -0.45593999997E+02  0.45594000000E+02  0.51100000000E-03 0. -1.
    9900012    2    1    2    0    0  0.48638924822E+00  0.17402532764E+02  0.68989467251E+01  0.72461543127E+02  0.69999964610E+02 0.  0.
         12    1    1    2    0    0 -0.48638924822E+00 -0.17402532764E+02 -0.68989467251E+01  0.18726456873E+02  0.00000000000E+00 0. -1.
         11    1    3    3    0    0  0.48228254494E+01  0.24026411485E+01 -0.99891120761E+00  0.54799775242E+01  0.51100000000E-03 0. -1.
        -11    1    3    3    0    0  0.19040808665E+02 -0.16480762371E+02  0.11342578642E+02  0.27619232673E+02  0.51100000000E-03 0.  1.
         12    1    3    3    0    0 -0.23377244866E+02  0.31480653986E+02 -0.34447207090E+01  0.39362332930E+02  0.00000000000E+00 0. -1.
</event>
<event>
 7    1  0.2153242E-013  0.7246166E+02  0.7816164E-02  0.1226708E+00
        -11   -1    0    0    0    0  0.00000000000E+00  0.00000000000E+00  0.45593999997E+02  0.45594000000E+02  0.51100000000E-03 0.  1.
         11   -1    0    0    0    0 -0.00000000000E+00 -0.00000000000E+00 -0.45593999997E+02  0.45594000000E+02  0.51100000000E-03 0. -1.
    9900012    2    1    2    0    0 -0.15081785558E+02 -0.77231787821E+01  0.79729612449E+01  0.72461658736E+02  0.70000115211E+02 0.  0.
         12    1    1    2    0    0  0.15081785558E+02  0.77231787821E+01 -0.79729612449E+01  0.18726341264E+02  0.00000000000E+00 0. -1.
         11    1    3    3    0    0  0.12262538166E+02  0.10228534356E+02 -0.30643014466E+00  0.15971432530E+02  0.51100000000E-03 0. -1.
        -11    1    3    3    0    0 -0.42873275668E+01 -0.26096202390E+02  0.15923760603E+02  0.30870035777E+02  0.51100000000E-03 0.  1.
        -12    1    3    3    0    0 -0.23056996157E+02  0.81444892518E+01 -0.76443692134E+01  0.25620190430E+02  0.00000000000E+00 0.  1.
</event>
<event>
 7    1  0.2153242E-013  0.7246158E+02  0.7816164E-02  0.1226708E+00
        -11   -1    0    0    0    0  0.00000000000E+00  0.00000000000E+00  0.45593999997E+02  0.45594000000E+02  0.51100000000E-03 0. -1.
         11   -1    0    0    0    0 -0.00000000000E+00 -0.00000000000E+00 -0.45593999997E+02  0.45594000000E+02  0.51100000000E-03 0.  1.
    9900012    2    1    2    0    0  0.15121508869E+02  0.95552001735E+01 -0.55422960595E+01  0.72461576785E+02  0.70000008455E+02 0.  0.
         12    1    1    2    0    0 -0.15121508869E+02 -0.95552001735E+01  0.55422960595E+01  0.18726423215E+02  0.00000000000E+00 0. -1.
         11    1    3    3    0    0 -0.18536417895E+02 -0.12243567306E+01  0.59424570184E+01  0.19504118372E+02  0.51100000000E-03 0. -1.
        -11    1    3    3    0    0 -0.93011927016E+00  0.63580504148E+01 -0.16520536912E+02  0.17726197197E+02  0.51100000000E-03 0.  1.
         12    1    3    3    0    0  0.34588046034E+02  0.44215064893E+01  0.50357838344E+01  0.35231261216E+02  0.00000000000E+00 0. -1.
</event>
<event>
 7    1  0.2153242E-013  0.7246158E+02  0.7816164E-02  0.1226708E+00
        -11   -1    0    0    0    0  0.00000000000E+00  0.00000000000E+00  0.45593999997E+02  0.45594000000E+02  0.51100000000E-03 0.  1.
         11   -1    0    0    0    0 -0.00000000000E+00 -0.00000000000E+00 -0.45593999997E+02  0.45594000000E+02  0.51100000000E-03 0. -1.
    9900012    2    1    2    0    0  0.78906564640E+01 -0.16344455577E+02 -0.46124994800E+01  0.72461579119E+02  0.70000011496E+02 0.  0.
         12    1    1    2    0    0 -0.78906564640E+01  0.16344455577E+02  0.46124994800E+01  0.18726420881E+02  0.00000000000E+00 0. -1.
         11    1    3    3    0    0  0.86512985325E+00 -0.26072553538E+01 -0.24042872309E+02  0.24199296255E+02  0.51100000000E-03 0. -1.
        -11    1    3    3    0    0 -0.16189755526E+01 -0.27332885087E+02  0.80585802058E+01  0.28542046252E+02  0.51100000000E-03 0.  1.
        -12    1    3    3    0    0  0.86445021634E+01  0.13595684864E+02  0.11371792623E+02  0.19720236612E+02  0.00000000000E+00 0.  1.
</event>
<event>
 7    1  0.2153242E-013  0.7246158E+02  0.7816164E-02  0.1226708E+00
        -11   -1    0    0    0    0  0.00000000000E+00  0.00000000000E+00  0.45593999997E+02  0.45594000000E+02  0.51100000000E-03 0.  1.
         11   -1    0    0    0    0 -0.00000000000E+00 -0.00000000000E+00 -0.45593999997E+02  0.45594000000E+02  0.51100000000E-03 0. -1.
    9900012    2    1    2    0    0 -0.13819351543E+02  0.11747811526E+02  0.46576057660E+01  0.72461578981E+02  0.70000011316E+02 0.  0.
         12    1    1    2    0    0  0.13819351543E+02 -0.11747811526E+02 -0.46576057660E+01  0.18726421019E+02  0.00000000000E+00 0. -1.
         11    1    3    3    0    0 -0.40076972757E+01 -0.22890271358E+02  0.77846446406E+00  0.23251498177E+02  0.51100000000E-03 0.  1.
        -11    1    3    3    0    0 -0.68170869172E+00  0.13771723145E+02 -0.14450994910E+02  0.19973891441E+02  0.51100000000E-03 0. -1.
         12    1    3    3    0    0 -0.91299455753E+01  0.20866359738E+02  0.18330136212E+02  0.29236189364E+02  0.00000000000E+00 0. -1.
</event>
<event>
 7    1  0.2153242E-013  0.7246151E+02  0.7816164E-02  0.1226708E+00
        -11   -1    0    0    0    0  0.00000000000E+00  0.00000000000E+00  0.45593999997E+02  0.45594000000E+02  0.51100000000E-03 0. -1.
         11   -1    0    0    0    0 -0.00000000000E+00 -0.00000000000E+00 -0.45593999997E+02  0.45594000000E+02  0.51100000000E-03 0.  1.
    9900012    2    1    2    0    0  0.26484204112E+01 -0.72419449341E+01 -0.17065218665E+02  0.72461505796E+02  0.69999915979E+02 0.  0.
         12    1    1    2    0    0 -0.26484204112E+01  0.72419449341E+01  0.17065218665E+02  0.18726494204E+02  0.00000000000E+00 0. -1.
         11    1    3    3    0    0 -0.27540541488E+02  0.52252439064E+01 -0.44186916414E+00  0.28035332136E+02  0.51100000000E-03 0. -1.
        -11    1    3    3    0    0  0.16014536735E+02  0.48496975327E+01 -0.14146186131E+02  0.21911173754E+02  0.51100000000E-03 0.  1.
        -12    1    3    3    0    0  0.14174425164E+02 -0.17316886373E+02 -0.24771633698E+01  0.22514999906E+02  0.00000000000E+00 0.  1.
</event>
<event>
 7    1  0.2153242E-013  0.7246153E+02  0.7816164E-02  0.1226708E+00
        -11   -1    0    0    0    0  0.00000000000E+00  0.00000000000E+00  0.45593999997E+02  0.45594000000E+02  0.51100000000E-03 0.  1.
         11   -1    0    0    0    0 -0.00000000000E+00 -0.00000000000E+00 -0.45593999997E+02  0.45594000000E+02  0.51100000000E-03 0. -1.
    9900012    2    1    2    0    0 -0.10047393670E+02  0.12860346257E+02  0.91837928871E+01  0.72461530039E+02  0.69999947560E+02 0.  0.
         12    1    1    2    0    0  0.10047393670E+02 -0.12860346257E+02 -0.91837928871E+01  0.18726469961E+02  0.00000000000E+00 0. -1.
         11    1    3    3    0    0  0.37918952470E+01  0.25643795357E+01 -0.58939721285E+01  0.74628024012E+01  0.51100000000E-03 0. -1.
        -11    1    3    3    0    0 -0.60747943903E+00  0.34400481612E+02  0.17726564026E+01  0.34451480047E+02  0.51100000000E-03 0.  1.
        -12    1    3    3    0    0 -0.13231809478E+02 -0.24104514891E+02  0.13305108613E+02  0.30547247591E+02  0.00000000000E+00 0.  1.
</event>
<event>
 7    1  0.2153242E-013  0.7246158E+02  0.7816164E-02  0.1226708E+00
        -11   -1    0    0    0    0  0.00000000000E+00  0.00000000000E+00  0.45593999997E+02  0.45594000000E+02  0.51100000000E-03 0. -1.
         11   -1    0    0    0    0 -0.00000000000E+00 -0.00000000000E+00 -0.45593999997E+02  0.45594000000E+02  0.51100000000E-03 0.  1.
    9900012    2    1    2    0    0  0.96284764709E+00 -0.14501863243E+02  0.11808795398E+02  0.72461581179E+02  0.70000014179E+02 0.  0.
         12    1    1    2    0    0 -0.96284764709E+00  0.14501863243E+02 -0.11808795398E+02  0.18726418821E+02  0.00000000000E+00 0. -1.
         11    1    3    3    0    0 -0.15486969026E+01 -0.64457248471E+01  0.57040013150E+01  0.87453680405E+01  0.51100000000E-03 0. -1.
        -11    1    3    3    0    0 -0.26924217530E+01  0.26261444395E+02  0.11120591181E+02  0.28645770108E+02  0.51100000000E-03 0.  1.
         12    1    3    3    0    0  0.52039663028E+01 -0.34317582790E+02 -0.50157970979E+01  0.35070443031E+02  0.00000000000E+00 0. -1.
</event>
<event>
 7    1  0.2153242E-013  0.7246155E+02  0.7816164E-02  0.1226708E+00
        -11   -1    0    0    0    0  0.00000000000E+00  0.00000000000E+00  0.45593999997E+02  0.45594000000E+02  0.51100000000E-03 0.  1.
         11   -1    0    0    0    0 -0.00000000000E+00 -0.00000000000E+00 -0.45593999997E+02  0.45594000000E+02  0.51100000000E-03 0. -1.
    9900012    2    1    2    0    0 -0.66325545173E+01  0.15242920769E+02  0.86222123793E+01  0.72461549207E+02  0.69999972529E+02 0.  0.
         12    1    1    2    0    0  0.66325545173E+01 -0.15242920769E+02 -0.86222123793E+01  0.18726450793E+02  0.00000000000E+00 0. -1.
         11    1    3    3    0    0 -0.32986012439E+01 -0.17722776799E+02  0.95970408421E+01  0.20422555688E+02  0.51100000000E-03 0. -1.
        -11    1    3    3    0    0  0.36576161061E+01 -0.56514397571E+01  0.92911429743E+01  0.11473546310E+02  0.51100000000E-03 0.  1.
         12    1    3    3    0    0 -0.69915693795E+01  0.38617137326E+02 -0.10265971437E+02  0.40565447208E+02  0.00000000000E+00 0. -1.
</event>
<event>
 7    1  0.2153242E-013  0.7246155E+02  0.7816164E-02  0.1226708E+00
        -11   -1    0    0    0    0  0.00000000000E+00  0.00000000000E+00  0.45593999997E+02  0.45594000000E+02  0.51100000000E-03 0.  1.
         11   -1    0    0    0    0 -0.00000000000E+00 -0.00000000000E+00 -0.45593999997E+02  0.45594000000E+02  0.51100000000E-03 0. -1.
    9900012    2    1    2    0    0  0.20409462237E+01  0.13121480039E+02  0.13203839488E+02  0.72461546061E+02  0.69999968432E+02 0.  0.
         12    1    1    2    0    0 -0.20409462237E+01 -0.13121480039E+02 -0.13203839488E+02  0.18726453939E+02  0.00000000000E+00 0. -1.
         11    1    3    3    0    0  0.31360417642E+01  0.39591947864E+01  0.13062269574E+01  0.52169157966E+01  0.51100000000E-03 0. -1.
        -11    1    3    3    0    0 -0.38947185449E+01  0.37101168917E+02  0.11928755186E+02  0.39165811215E+02  0.51100000000E-03 0.  1.
         12    1    3    3    0    0  0.27996230044E+01 -0.27938883664E+02 -0.31142655964E-01  0.28078819050E+02  0.00000000000E+00 0. -1.
</event>
<event>
 7    1  0.2153242E-013  0.7246168E+02  0.7816164E-02  0.1226708E+00
        -11   -1    0    0    0    0  0.00000000000E+00  0.00000000000E+00  0.45593999997E+02  0.45594000000E+02  0.51100000000E-03 0. -1.
         11   -1    0    0    0    0 -0.00000000000E+00 -0.00000000000E+00 -0.45593999997E+02  0.45594000000E+02  0.51100000000E-03 0.  1.
    9900012    2    1    2    0    0  0.14253718124E+02  0.83723341774E+01 -0.87983229723E+01  0.72461683035E+02  0.70000146866E+02 0.  0.
         12    1    1    2    0    0 -0.14253718124E+02 -0.83723341774E+01  0.87983229723E+01  0.18726316965E+02  0.00000000000E+00 0. -1.
         11    1    3    3    0    0  0.16156889234E+02  0.40347329421E+01  0.16102268390E+01  0.16730719362E+02  0.51100000000E-03 0. -1.
        -11    1    3    3    0    0 -0.18623457608E+00 -0.21631226515E+02  0.88318957987E+01  0.23365509357E+02  0.51100000000E-03 0.  1.
         12    1    3    3    0    0 -0.17169365337E+01  0.25968827750E+02 -0.19240445610E+02  0.32365454316E+02  0.00000000000E+00 0. -1.
</event>
<event>
 7    1  0.2153242E-013  0.7246083E+02  0.7816164E-02  0.1226710E+00
        -11   -1    0    0    0    0  0.00000000000E+00  0.00000000000E+00  0.45593999997E+02  0.45594000000E+02  0.51100000000E-03 0.  1.
         11   -1    0    0    0    0 -0.00000000000E+00 -0.00000000000E+00 -0.45593999997E+02  0.45594000000E+02  0.51100000000E-03 0. -1.
    9900012    2    1    2    0    0 -0.12218933925E+02 -0.92903481635E+01  0.10728190462E+02  0.72460827607E+02  0.69999032505E+02 0.  0.
         12    1    1    2    0    0  0.12218933925E+02  0.92903481635E+01 -0.10728190462E+02  0.18727172393E+02  0.00000000000E+00 0. -1.
         11    1    3    3    0    0 -0.57174147603E+01 -0.92434448628E+01  0.62268513450E+01  0.12526123998E+02  0.51100000000E-03 0. -1.
        -11    1    3    3    0    0  0.12879513762E+02 -0.11578029369E+02  0.24357708044E+02  0.29886963383E+02  0.51100000000E-03 0.  1.
         12    1    3    3    0    0 -0.19381032926E+02  0.11531126069E+02 -0.19856368928E+02  0.30047740226E+02  0.00000000000E+00 0. -1.
</event>
<event>
 7    1  0.2153242E-013  0.7246173E+02  0.7816164E-02  0.1226708E+00
        -11   -1    0    0    0    0  0.00000000000E+00  0.00000000000E+00  0.45593999997E+02  0.45594000000E+02  0.51100000000E-03 0.  1.
         11   -1    0    0    0    0 -0.00000000000E+00 -0.00000000000E+00 -0.45593999997E+02  0.45594000000E+02  0.51100000000E-03 0. -1.
    9900012    2    1    2    0    0 -0.11394283889E+02 -0.32865387953E+01  0.14492830689E+02  0.72461730111E+02  0.70000208190E+02 0.  0.
         12    1    1    2    0    0  0.11394283889E+02  0.32865387953E+01 -0.14492830689E+02  0.18726269889E+02  0.00000000000E+00 0. -1.
         11    1    3    3    0    0 -0.21153351790E+02 -0.11708134013E+02 -0.11408136408E+02  0.26733691675E+02  0.51100000000E-03 0. -1.
        -11    1    3    3    0    0  0.47970999635E+01 -0.12218028254E+02  0.19592097614E+02  0.23582677364E+02  0.51100000000E-03 0.  1.
        -12    1    3    3    0    0  0.49619679380E+01  0.20639623471E+02  0.63088694828E+01  0.22145361072E+02  0.00000000000E+00 0.  1.
</event>
<event>
 7    1  0.2153242E-013  0.7246154E+02  0.7816164E-02  0.1226708E+00
        -11   -1    0    0    0    0  0.00000000000E+00  0.00000000000E+00  0.45593999997E+02  0.45594000000E+02  0.51100000000E-03 0.  1.
         11   -1    0    0    0    0 -0.00000000000E+00 -0.00000000000E+00 -0.45593999997E+02  0.45594000000E+02  0.51100000000E-03 0. -1.
    9900012    2    1    2    0    0  0.16792823304E+02 -0.78175775831E+01  0.27508073681E+01  0.72461538109E+02  0.69999958072E+02 0.  0.
         12    1    1    2    0    0 -0.16792823304E+02  0.78175775831E+01 -0.27508073681E+01  0.18726461891E+02  0.00000000000E+00 0. -1.
         11    1    3    3    0    0 -0.37752754747E+01 -0.77775256797E+01  0.24235248091E+01  0.89786459653E+01  0.51100000000E-03 0. -1.
        -11    1    3    3    0    0  0.98161579283E+01  0.55329154840E+00  0.30183350468E+02  0.31744255130E+02  0.51100000000E-03 0.  1.
         12    1    3    3    0    0  0.10751940851E+02 -0.59334345181E+00 -0.29856067909E+02  0.31738637014E+02  0.00000000000E+00 0. -1.
</event>
<event>
 7    1  0.2153242E-013  0.7246162E+02  0.7816164E-02  0.1226708E+00
        -11   -1    0    0    0    0  0.00000000000E+00  0.00000000000E+00  0.45593999997E+02  0.45594000000E+02  0.51100000000E-03 0. -1.
         11   -1    0    0    0    0 -0.00000000000E+00 -0.00000000000E+00 -0.45593999997E+02  0.45594000000E+02  0.51100000000E-03 0.  1.
    9900012    2    1    2    0    0 -0.15526571119E+02  0.44929373336E+01 -0.94560236493E+01  0.72461620749E+02  0.70000065726E+02 0.  0.
         12    1    1    2    0    0  0.15526571119E+02 -0.44929373336E+01  0.94560236493E+01  0.18726379251E+02  0.00000000000E+00 0. -1.
         11    1    3    3    0    0 -0.32408914329E+01 -0.12994796538E+02 -0.17279503345E+02  0.21862052750E+02  0.51100000000E-03 0. -1.
        -11    1    3    3    0    0 -0.90134053660E+00 -0.78370216466E+01 -0.13469134665E+02  0.15609257251E+02  0.51100000000E-03 0.  1.
        -12    1    3    3    0    0 -0.11384339150E+02  0.25324755518E+02  0.21292614361E+02  0.34990310748E+02  0.00000000000E+00 0.  1.
</event>
<event>
 7    1  0.2153242E-013  0.7246158E+02  0.7816164E-02  0.1226708E+00
        -11   -1    0    0    0    0  0.00000000000E+00  0.00000000000E+00  0.45593999997E+02  0.45594000000E+02  0.51100000000E-03 0.  1.
         11   -1    0    0    0    0 -0.00000000000E+00 -0.00000000000E+00 -0.45593999997E+02  0.45594000000E+02  0.51100000000E-03 0. -1.
    9900012    2    1    2    0    0  0.74331608271E+01  0.14915959799E+02  0.85405480388E+01  0.72461582900E+02  0.70000016421E+02 0.  0.
         12    1    1    2    0    0 -0.74331608271E+01 -0.14915959799E+02 -0.85405480388E+01  0.18726417100E+02  0.00000000000E+00 0. -1.
         11    1    3    3    0    0  0.27528990381E+00 -0.16590976546E+02  0.14051281100E+02  0.21743384927E+02  0.51100000000E-03 0. -1.
        -11    1    3    3    0    0  0.19800199881E+02  0.22107196440E+02  0.71271522191E+01  0.30521670150E+02  0.51100000000E-03 0.  1.
        -12    1    3    3    0    0 -0.12642328957E+02  0.93997399049E+01 -0.12637885280E+02  0.20196527823E+02  0.00000000000E+00 0.  1.
</event>
<event>
 7    1  0.2153242E-013  0.7246149E+02  0.7816164E-02  0.1226708E+00
        -11   -1    0    0    0    0  0.00000000000E+00  0.00000000000E+00  0.45593999997E+02  0.45594000000E+02  0.51100000000E-03 0.  1.
         11   -1    0    0    0    0 -0.00000000000E+00 -0.00000000000E+00 -0.45593999997E+02  0.45594000000E+02  0.51100000000E-03 0. -1.
    9900012    2    1    2    0    0 -0.17845191087E+02 -0.68088109697E-01 -0.56768422840E+01  0.72461494206E+02  0.69999900881E+02 0.  0.
         12    1    1    2    0    0  0.17845191087E+02  0.68088109697E-01  0.56768422840E+01  0.18726505794E+02  0.00000000000E+00 0. -1.
         11    1    3    3    0    0 -0.35895453831E+01 -0.28967304483E+01 -0.90756004376E+00  0.47010157245E+01  0.51100000000E-03 0. -1.
        -11    1    3    3    0    0 -0.15135488866E+02  0.76135526717E+01  0.29030266006E+02  0.33612580266E+02  0.51100000000E-03 0.  1.
         12    1    3    3    0    0  0.87984316240E+00 -0.47849103331E+01 -0.33799548246E+02  0.34147898215E+02  0.00000000000E+00 0. -1.
</event>
<event>
 7    1  0.2153242E-013  0.7246158E+02  0.7816164E-02  0.1226708E+00
        -11   -1    0    0    0    0  0.00000000000E+00  0.00000000000E+00  0.45593999997E+02  0.45594000000E+02  0.51100000000E-03 0.  1.
         11   -1    0    0    0    0 -0.00000000000E+00 -0.00000000000E+00 -0.45593999997E+02  0.45594000000E+02  0.51100000000E-03 0. -1.
    9900012    2    1    2    0    0  0.65060521852E+00  0.76706913606E+01  0.17070914297E+02  0.72461577276E+02  0.70000009095E+02 0.  0.
         12    1    1    2    0    0 -0.65060521852E+00 -0.76706913606E+01 -0.17070914297E+02  0.18726422724E+02  0.00000000000E+00 0. -1.
         11    1    3    3    0    0  0.14911391486E+02 -0.80526996327E+01 -0.46206801250E+01  0.17565484693E+02  0.51100000000E-03 0. -1.
        -11    1    3    3    0    0  0.73651935396E+01  0.51677803617E+01  0.28500360910E+02  0.29886829909E+02  0.51100000000E-03 0.  1.
        -12    1    3    3    0    0 -0.21625979807E+02  0.10555610632E+02 -0.68087664883E+01  0.25009262674E+02  0.00000000000E+00 0.  1.
</event>
<event>
 7    1  0.2228744E-013  0.7246158E+02  0.7816164E-02  0.1226708E+00
        -11   -1    0    0    0    0  0.00000000000E+00  0.00000000000E+00  0.45593999997E+02  0.45594000000E+02  0.51100000000E-03 0. -1.
         11   -1    0    0    0    0 -0.00000000000E+00 -0.00000000000E+00 -0.45593999997E+02  0.45594000000E+02  0.51100000000E-03 0.  1.
    9900012    2    1    2    0    0  0.10549827820E+01  0.42074376857E+00 -0.18691944708E+02  0.72461579868E+02  0.70000012472E+02 0.  0.
         12    1    1    2    0    0 -0.10549827820E+01 -0.42074376857E+00  0.18691944708E+02  0.18726420132E+02  0.00000000000E+00 0. -1.
         11    1    3    3    0    0  0.10097254910E+02  0.12209856917E+02 -0.59054912389E+01  0.16908873105E+02  0.51100000000E-03 0. -1.
        -11    1    3    3    0    0  0.57995433695E+01  0.99690582602E+00 -0.29328402711E+02  0.29912935836E+02  0.51100000000E-03 0.  1.
         12    1    3    3    0    0 -0.14841815497E+02 -0.12786018975E+02  0.16541949242E+02  0.25639770927E+02  0.00000000000E+00 0. -1.
</event>
<event>
 7    1  0.2153242E-013  0.7246154E+02  0.7816164E-02  0.1226708E+00
        -11   -1    0    0    0    0  0.00000000000E+00  0.00000000000E+00  0.45593999997E+02  0.45594000000E+02  0.51100000000E-03 0.  1.
         11   -1    0    0    0    0 -0.00000000000E+00 -0.00000000000E+00 -0.45593999997E+02  0.45594000000E+02  0.51100000000E-03 0. -1.
    9900012    2    1    2    0    0  0.13943726356E+02 -0.68065278585E+01  0.10484454784E+02  0.72461544961E+02  0.69999966999E+02 0.  0.
         12    1    1    2    0    0 -0.13943726356E+02  0.68065278585E+01 -0.10484454784E+02  0.18726455039E+02  0.00000000000E+00 0. -1.
         11    1    3    3    0    0 -0.55562334933E+01 -0.15515197792E+02 -0.18241099042E+01  0.16580725870E+02  0.51100000000E-03 0. -1.
        -11    1    3    3    0    0 -0.73747896259E+01 -0.98233019638E+01 -0.10416071946E+02  0.16105258103E+02  0.51100000000E-03 0.  1.
        -12    1    3    3    0    0  0.26874749476E+02  0.18531971898E+02  0.22724636635E+02  0.39775560989E+02  0.00000000000E+00 0.  1.
</event>
<event>
 7    1  0.2153242E-013  0.7246162E+02  0.7816164E-02  0.1226708E+00
        -11   -1    0    0    0    0  0.00000000000E+00  0.00000000000E+00  0.45593999997E+02  0.45594000000E+02  0.51100000000E-03 0. -1.
         11   -1    0    0    0    0 -0.00000000000E+00 -0.00000000000E+00 -0.45593999997E+02  0.45594000000E+02  0.51100000000E-03 0.  1.
    9900012    2    1    2    0    0  0.14198546726E+02  0.61502846176E+01  0.10547635465E+02  0.72461619039E+02  0.70000063498E+02 0.  0.
         12    1    1    2    0    0 -0.14198546726E+02 -0.61502846176E+01 -0.10547635465E+02  0.18726380961E+02  0.00000000000E+00 0. -1.
         11    1    3    3    0    0  0.16694833356E+02  0.71114251198E+00  0.11699491667E+01  0.16750879552E+02  0.51100000000E-03 0. -1.
        -11    1    3    3    0    0  0.28863316479E+01 -0.21274892580E+02 -0.85302949790E+01  0.23102335323E+02  0.51100000000E-03 0.  1.
         12    1    3    3    0    0 -0.53826182778E+01  0.26714034685E+02  0.17907981277E+02  0.32608404164E+02  0.00000000000E+00 0. -1.
</event>
<event>
 7    1  0.2153242E-013  0.7246163E+02  0.7816164E-02  0.1226708E+00
        -11   -1    0    0    0    0  0.00000000000E+00  0.00000000000E+00  0.45593999997E+02  0.45594000000E+02  0.51100000000E-03 0. -1.
         11   -1    0    0    0    0 -0.00000000000E+00 -0.00000000000E+00 -0.45593999997E+02  0.45594000000E+02  0.51100000000E-03 0.  1.
    9900012    2    1    2    0    0  0.15532265438E+02  0.96474255582E+01 -0.40438756994E+01  0.72461627682E+02  0.70000074757E+02 0.  0.
         12    1    1    2    0    0 -0.15532265438E+02 -0.96474255582E+01  0.40438756994E+01  0.18726372318E+02  0.00000000000E+00 0. -1.
         11    1    3    3    0    0 -0.18286067364E+02 -0.68225697738E+01  0.93793902458E+01  0.21654114612E+02  0.51100000000E-03 0. -1.
        -11    1    3    3    0    0 -0.19531894336E+01 -0.14843008083E+01  0.58800757483E+01  0.63712941322E+01  0.51100000000E-03 0.  1.
        -12    1    3    3    0    0  0.35771522236E+02  0.17954296140E+02 -0.19303341693E+02  0.44436218938E+02  0.00000000000E+00 0.  1.
</event>
<event>
 7    1  0.2853563E-013  0.7246154E+02  0.7816164E-02  0.1226708E+00
        -11   -1    0    0    0    0  0.00000000000E+00  0.00000000000E+00  0.45593999997E+02  0.45594000000E+02  0.51100000000E-03 0.  1.
         11   -1    0    0    0    0 -0.00000000000E+00 -0.00000000000E+00 -0.45593999997E+02  0.45594000000E+02  0.51100000000E-03 0. -1.
    9900012    2    1    2    0    0 -0.13719674235E+02  0.81897940706E+01  0.97661687955E+01  0.72461541686E+02  0.69999962732E+02 0.  0.
         12    1    1    2    0    0  0.13719674235E+02 -0.81897940706E+01 -0.97661687955E+01  0.18726458314E+02  0.00000000000E+00 0. -1.
         11    1    3    3    0    0 -0.16272928462E+00 -0.72952466442E+01  0.11548144273E+02  0.13660407784E+02  0.51100000000E-03 0. -1.
        -11    1    3    3    0    0 -0.95770306450E+01  0.25386150482E+02  0.20559408569E+02  0.34042112644E+02  0.51100000000E-03 0.  1.
         12    1    3    3    0    0 -0.39799143057E+01 -0.99011097676E+01 -0.22341384047E+02  0.24759021258E+02  0.00000000000E+00 0. -1.
</event>
<event>
 7    1  0.2153242E-013  0.7246158E+02  0.7816164E-02  0.1226708E+00
        -11   -1    0    0    0    0  0.00000000000E+00  0.00000000000E+00  0.45593999997E+02  0.45594000000E+02  0.51100000000E-03 0.  1.
         11   -1    0    0    0    0 -0.00000000000E+00 -0.00000000000E+00 -0.45593999997E+02  0.45594000000E+02  0.51100000000E-03 0. -1.
    9900012    2    1    2    0    0 -0.11633546278E+02  0.45086880121E+01  0.13964644808E+02  0.72461575589E+02  0.70000006898E+02 0.  0.
         12    1    1    2    0    0  0.11633546278E+02 -0.45086880121E+01 -0.13964644808E+02  0.18726424411E+02  0.00000000000E+00 0. -1.
         11    1    3    3    0    0 -0.10050905974E+02 -0.12745553004E+02 -0.18730593980E+02  0.24785176686E+02  0.51100000000E-03 0. -1.
        -11    1    3    3    0    0  0.91608356200E+01  0.28872419680E+01 -0.84260441277E+00  0.96419426412E+01  0.51100000000E-03 0.  1.
        -12    1    3    3    0    0 -0.10743475924E+02  0.14366999048E+02  0.33537843201E+02  0.38034456262E+02  0.00000000000E+00 0.  1.
</event>
<event>
 7    1  0.2153242E-013  0.7246155E+02  0.7816164E-02  0.1226708E+00
        -11   -1    0    0    0    0  0.00000000000E+00  0.00000000000E+00  0.45593999997E+02  0.45594000000E+02  0.51100000000E-03 0.  1.
         11   -1    0    0    0    0 -0.00000000000E+00 -0.00000000000E+00 -0.45593999997E+02  0.45594000000E+02  0.51100000000E-03 0. -1.
    9900012    2    1    2    0    0 -0.50310042240E+01  0.14747462489E+02  0.10386599897E+02  0.72461545162E+02  0.69999967261E+02 0.  0.
         12    1    1    2    0    0  0.50310042240E+01 -0.14747462489E+02 -0.10386599897E+02  0.18726454838E+02  0.00000000000E+00 0. -1.
         11    1    3    3    0    0 -0.30341228211E+01  0.17291799881E+02  0.30857434308E+00  0.17558686249E+02  0.51100000000E-03 0. -1.
        -11    1    3    3    0    0  0.67733558814E+01  0.23516765680E+02 -0.26250420964E+01  0.24613156323E+02  0.51100000000E-03 0.  1.
         12    1    3    3    0    0 -0.87702372843E+01 -0.26061103071E+02  0.12703067650E+02  0.30289702590E+02  0.00000000000E+00 0. -1.
</event>
<event>
 7    1  0.2153242E-013  0.7246155E+02  0.7816164E-02  0.1226708E+00
        -11   -1    0    0    0    0  0.00000000000E+00  0.00000000000E+00  0.45593999997E+02  0.45594000000E+02  0.51100000000E-03 0.  1.
         11   -1    0    0    0    0 -0.00000000000E+00 -0.00000000000E+00 -0.45593999997E+02  0.45594000000E+02  0.51100000000E-03 0. -1.
    9900012    2    1    2    0    0  0.11249815174E+02  0.60304367364E+01  0.13702385639E+02  0.72461551300E+02  0.69999975257E+02 0.  0.
         12    1    1    2    0    0 -0.11249815174E+02 -0.60304367364E+01 -0.13702385639E+02  0.18726448700E+02  0.00000000000E+00 0. -1.
         11    1    3    3    0    0 -0.25774403041E+01  0.16768285637E+02  0.10452991730E+02  0.19926957572E+02  0.51100000000E-03 0. -1.
        -11    1    3    3    0    0  0.11755921592E+02  0.55917120222E+01  0.23240942825E+02  0.26638512711E+02  0.51100000000E-03 0.  1.
         12    1    3    3    0    0  0.20713338861E+01 -0.16329560923E+02 -0.19991548915E+02  0.25896081017E+02  0.00000000000E+00 0. -1.
</event>
<event>
 7    1  0.2153242E-013  0.7246157E+02  0.7816164E-02  0.1226708E+00
        -11   -1    0    0    0    0  0.00000000000E+00  0.00000000000E+00  0.45593999997E+02  0.45594000000E+02  0.51100000000E-03 0.  1.
         11   -1    0    0    0    0 -0.00000000000E+00 -0.00000000000E+00 -0.45593999997E+02  0.45594000000E+02  0.51100000000E-03 0. -1.
    9900012    2    1    2    0    0  0.60903748793E+01  0.17671799105E+02 -0.11375110180E+01  0.72461572655E+02  0.70000003076E+02 0.  0.
         12    1    1    2    0    0 -0.60903748793E+01 -0.17671799105E+02  0.11375110180E+01  0.18726427345E+02  0.00000000000E+00 0. -1.
         11    1    3    3    0    0 -0.48490136411E+01 -0.45671016034E+01 -0.29223701033E+02  0.29973255623E+02  0.51100000000E-03 0. -1.
        -11    1    3    3    0    0 -0.11218737736E+01  0.27638228282E+01 -0.27617484177E+01  0.40650426779E+01  0.51100000000E-03 0.  1.
        -12    1    3    3    0    0  0.12061262294E+02  0.19475077880E+02  0.30847938432E+02  0.38423274354E+02  0.00000000000E+00 0.  1.
</event>
<event>
 7    1  0.2153242E-013  0.7246160E+02  0.7816164E-02  0.1226708E+00
        -11   -1    0    0    0    0  0.00000000000E+00  0.00000000000E+00  0.45593999997E+02  0.45594000000E+02  0.51100000000E-03 0. -1.
         11   -1    0    0    0    0 -0.00000000000E+00 -0.00000000000E+00 -0.45593999997E+02  0.45594000000E+02  0.51100000000E-03 0.  1.
    9900012    2    1    2    0    0 -0.11040300815E+02  0.14342787350E+02  0.48035546214E+01  0.72461603442E+02  0.70000043181E+02 0.  0.
         12    1    1    2    0    0  0.11040300815E+02 -0.14342787350E+02 -0.48035546214E+01  0.18726396558E+02  0.00000000000E+00 0. -1.
         11    1    3    3    0    0  0.11238914977E+01  0.14545365950E+02 -0.12152232852E+01  0.14639247611E+02  0.51100000000E-03 0. -1.
        -11    1    3    3    0    0 -0.32423331200E+02  0.11134864274E+02  0.41301950523E+01  0.34529930784E+02  0.51100000000E-03 0.  1.
         12    1    3    3    0    0  0.20259138888E+02 -0.11337442874E+02  0.18885828542E+01  0.23292425047E+02  0.00000000000E+00 0. -1.
</event>
<event>
 7    1  0.2153242E-013  0.7246155E+02  0.7816164E-02  0.1226708E+00
        -11   -1    0    0    0    0  0.00000000000E+00  0.00000000000E+00  0.45593999997E+02  0.45594000000E+02  0.51100000000E-03 0.  1.
         11   -1    0    0    0    0 -0.00000000000E+00 -0.00000000000E+00 -0.45593999997E+02  0.45594000000E+02  0.51100000000E-03 0. -1.
    9900012    2    1    2    0    0  0.27694432850E+01  0.15924282793E+02  0.94565948227E+01  0.72461553882E+02  0.69999978619E+02 0.  0.
         12    1    1    2    0    0 -0.27694432850E+01 -0.15924282793E+02 -0.94565948227E+01  0.18726446118E+02  0.00000000000E+00 0. -1.
         11    1    3    3    0    0 -0.17819487664E+01  0.23712240497E+01 -0.12738093173E+02  0.13078878501E+02  0.51100000000E-03 0. -1.
        -11    1    3    3    0    0 -0.20988452216E+02  0.16211564287E+02  0.17826810056E+01  0.26580216231E+02  0.51100000000E-03 0.  1.
        -12    1    3    3    0    0  0.25539844267E+02 -0.26585055435E+01  0.20412006990E+02  0.32802459150E+02  0.00000000000E+00 0.  1.
</event>
<event>
 7    1  0.2153242E-013  0.7246165E+02  0.7816164E-02  0.1226708E+00
        -11   -1    0    0    0    0  0.00000000000E+00  0.00000000000E+00  0.45593999997E+02  0.45594000000E+02  0.51100000000E-03 0. -1.
         11   -1    0    0    0    0 -0.00000000000E+00 -0.00000000000E+00 -0.45593999997E+02  0.45594000000E+02  0.51100000000E-03 0.  1.
    9900012    2    1    2    0    0 -0.13624485354E+02  0.11974344589E+02 -0.46545391591E+01  0.72461647865E+02  0.70000101050E+02 0.  0.
         12    1    1    2    0    0  0.13624485354E+02 -0.11974344589E+02  0.46545391591E+01  0.18726352135E+02  0.00000000000E+00 0. -1.
         11    1    3    3    0    0  0.33137769640E+01  0.11454219605E+01 -0.15274828174E+02  0.15672060657E+02  0.51100000000E-03 0. -1.
        -11    1    3    3    0    0 -0.23922473573E+02  0.25566086319E+02 -0.35400223341E+01  0.35191494283E+02  0.51100000000E-03 0.  1.
         12    1    3    3    0    0  0.69842112549E+01 -0.14737163691E+02  0.14160311349E+02  0.21598092925E+02  0.00000000000E+00 0. -1.
</event>
<event>
 7    1  0.2153242E-013  0.7246169E+02  0.7816164E-02  0.1226708E+00
        -11   -1    0    0    0    0  0.00000000000E+00  0.00000000000E+00  0.45593999997E+02  0.45594000000E+02  0.51100000000E-03 0.  1.
         11   -1    0    0    0    0 -0.00000000000E+00 -0.00000000000E+00 -0.45593999997E+02  0.45594000000E+02  0.51100000000E-03 0. -1.
    9900012    2    1    2    0    0  0.13692603642E+02  0.27182719997E+01  0.12481914806E+02  0.72461692452E+02  0.70000159133E+02 0.  0.
         12    1    1    2    0    0 -0.13692603642E+02 -0.27182719997E+01 -0.12481914806E+02  0.18726307548E+02  0.00000000000E+00 0. -1.
         11    1    3    3    0    0 -0.10236104793E+02 -0.37103834393E+01 -0.61033059327E+01  0.12481791946E+02  0.51100000000E-03 0. -1.
        -11    1    3    3    0    0  0.79059352065E+01  0.19396900132E+02 -0.11203808817E+02  0.23754344413E+02  0.51100000000E-03 0.  1.
         12    1    3    3    0    0  0.16022773229E+02 -0.12968244693E+02  0.29789029556E+02  0.36225556093E+02  0.00000000000E+00 0. -1.
</event>
<event>
 7    1  0.2153242E-013  0.7246157E+02  0.7816164E-02  0.1226708E+00
        -11   -1    0    0    0    0  0.00000000000E+00  0.00000000000E+00  0.45593999997E+02  0.45594000000E+02  0.51100000000E-03 0. -1.
         11   -1    0    0    0    0 -0.00000000000E+00 -0.00000000000E+00 -0.45593999997E+02  0.45594000000E+02  0.51100000000E-03 0.  1.
    9900012    2    1    2    0    0  0.13927121328E+02 -0.55642212631E+01 -0.11214001634E+02  0.72461572167E+02  0.70000002439E+02 0.  0.
         12    1    1    2    0    0 -0.13927121328E+02  0.55642212631E+01  0.11214001634E+02  0.18726427833E+02  0.00000000000E+00 0. -1.
         11    1    3    3    0    0 -0.80829741453E+01 -0.79967078991E+01 -0.72107379284E+01  0.13463898024E+02  0.51100000000E-03 0. -1.
        -11    1    3    3    0    0 -0.95530143998E+01  0.75453295853E+01 -0.19870186537E+02  0.23302712202E+02  0.51100000000E-03 0.  1.
         12    1    3    3    0    0  0.31563109873E+02 -0.51128429492E+01  0.15866922831E+02  0.35694961941E+02  0.00000000000E+00 0. -1.
</event>
<event>
 7    1  0.2153242E-013  0.7246170E+02  0.7816164E-02  0.1226708E+00
        -11   -1    0    0    0    0  0.00000000000E+00  0.00000000000E+00  0.45593999997E+02  0.45594000000E+02  0.51100000000E-03 0. -1.
         11   -1    0    0    0    0 -0.00000000000E+00 -0.00000000000E+00 -0.45593999997E+02  0.45594000000E+02  0.51100000000E-03 0.  1.
    9900012    2    1    2    0    0 -0.61645229402E+01  0.17654201108E+02  0.10010953849E+01  0.72461698929E+02  0.70000167570E+02 0.  0.
         12    1    1    2    0    0  0.61645229402E+01 -0.17654201108E+02 -0.10010953849E+01  0.18726301071E+02  0.00000000000E+00 0. -1.
         11    1    3    3    0    0  0.79089602737E+01  0.18050376781E+02  0.28793730867E+02  0.34891928753E+02  0.51100000000E-03 0. -1.
        -11    1    3    3    0    0  0.34717940950E+01 -0.59120688632E+01 -0.83983893591E+01  0.10841533866E+02  0.51100000000E-03 0.  1.
        -12    1    3    3    0    0 -0.17545277309E+02  0.55158931904E+01 -0.19394246124E+02  0.26728236310E+02  0.00000000000E+00 0.  1.
</event>
<event>
 7    1  0.2153242E-013  0.7246155E+02  0.7816164E-02  0.1226708E+00
        -11   -1    0    0    0    0  0.00000000000E+00  0.00000000000E+00  0.45593999997E+02  0.45594000000E+02  0.51100000000E-03 0. -1.
         11   -1    0    0    0    0 -0.00000000000E+00 -0.00000000000E+00 -0.45593999997E+02  0.45594000000E+02  0.51100000000E-03 0.  1.
    9900012    2    1    2    0    0 -0.89643311586E+01 -0.82476461652E+01 -0.14223109624E+02  0.72461554855E+02  0.69999979887E+02 0.  0.
         12    1    1    2    0    0  0.89643311586E+01  0.82476461652E+01  0.14223109624E+02  0.18726445145E+02  0.00000000000E+00 0. -1.
         11    1    3    3    0    0  0.27677258989E+01  0.13012115613E+02 -0.80375446610E+01  0.15542766286E+02  0.51100000000E-03 0. -1.
        -11    1    3    3    0    0  0.88235624451E+01 -0.16927245351E+02  0.17050022342E+02  0.25594728979E+02  0.51100000000E-03 0.  1.
         12    1    3    3    0    0 -0.20555619503E+02 -0.43325164276E+01 -0.23235587306E+02  0.31324059589E+02  0.00000000000E+00 0. -1.
</event>
<event>
 7    1  0.2153242E-013  0.7246151E+02  0.7816164E-02  0.1226708E+00
        -11   -1    0    0    0    0  0.00000000000E+00  0.00000000000E+00  0.45593999997E+02  0.45594000000E+02  0.51100000000E-03 0. -1.
         11   -1    0    0    0    0 -0.00000000000E+00 -0.00000000000E+00 -0.45593999997E+02  0.45594000000E+02  0.51100000000E-03 0.  1.
    9900012    2    1    2    0    0  0.51909741285E+00 -0.81557167705E+01 -0.16849223412E+02  0.72461507864E+02  0.69999918672E+02 0.  0.
         12    1    1    2    0    0 -0.51909741285E+00  0.81557167705E+01  0.16849223412E+02  0.18726492136E+02  0.00000000000E+00 0. -1.
         11    1    3    3    0    0 -0.11977581723E+02  0.12477220775E+02 -0.24620890846E+02  0.30088731587E+02  0.51100000000E-03 0. -1.
        -11    1    3    3    0    0 -0.90909175859E+01 -0.51147795434E+01 -0.64073169219E+01  0.12241709959E+02  0.51100000000E-03 0.  1.
        -12    1    3    3    0    0  0.21587596722E+02 -0.15518158002E+02  0.14178984357E+02  0.30131066317E+02  0.00000000000E+00 0.  1.
</event>
<event>
 7    1  0.2153242E-013  0.7246167E+02  0.7816164E-02  0.1226708E+00
        -11   -1    0    0    0    0  0.00000000000E+00  0.00000000000E+00  0.45593999997E+02  0.45594000000E+02  0.51100000000E-03 0.  1.
         11   -1    0    0    0    0 -0.00000000000E+00 -0.00000000000E+00 -0.45593999997E+02  0.45594000000E+02  0.51100000000E-03 0. -1.
    9900012    2    1    2    0    0  0.10185250142E+01 -0.18509380555E+02 -0.26534419488E+01  0.72461673187E+02  0.70000134037E+02 0.  0.
         12    1    1    2    0    0 -0.10185250142E+01  0.18509380555E+02  0.26534419488E+01  0.18726326813E+02  0.00000000000E+00 0. -1.
         11    1    3    3    0    0  0.28837375498E+01  0.35940265949E+01  0.45812956330E+01  0.64977872664E+01  0.51100000000E-03 0. -1.
        -11    1    3    3    0    0  0.16643173456E+02 -0.19322803143E+02  0.20351772467E+02  0.32627604675E+02  0.51100000000E-03 0.  1.
         12    1    3    3    0    0 -0.18508385991E+02 -0.27806040061E+01 -0.27586510049E+02  0.33336281246E+02  0.00000000000E+00 0. -1.
</event>
<event>
 7    1  0.2153242E-013  0.7246154E+02  0.7816164E-02  0.1226708E+00
        -11   -1    0    0    0    0  0.00000000000E+00  0.00000000000E+00  0.45593999997E+02  0.45594000000E+02  0.51100000000E-03 0.  1.
         11   -1    0    0    0    0 -0.00000000000E+00 -0.00000000000E+00 -0.45593999997E+02  0.45594000000E+02  0.51100000000E-03 0. -1.
    9900012    2    1    2    0    0 -0.10788178441E+02 -0.88154860697E+01  0.12513302408E+02  0.72461539420E+02  0.69999959780E+02 0.  0.
         12    1    1    2    0    0  0.10788178441E+02  0.88154860697E+01 -0.12513302408E+02  0.18726460580E+02  0.00000000000E+00 0. -1.
         11    1    3    3    0    0  0.20794117551E+02 -0.28919932730E+01 -0.78373388846E+01  0.22409436201E+02  0.51100000000E-03 0. -1.
        -11    1    3    3    0    0 -0.17347917718E+02  0.65287873882E+01  0.24468524492E+02  0.30696644849E+02  0.51100000000E-03 0.  1.
         12    1    3    3    0    0 -0.14234378273E+02 -0.12452280185E+02 -0.41178831996E+01  0.19355458369E+02  0.00000000000E+00 0. -1.
</event>
<event>
 7    1  0.2153242E-013  0.7246152E+02  0.7816164E-02  0.1226708E+00
        -11   -1    0    0    0    0  0.00000000000E+00  0.00000000000E+00  0.45593999997E+02  0.45594000000E+02  0.51100000000E-03 0.  1.
         11   -1    0    0    0    0 -0.00000000000E+00 -0.00000000000E+00 -0.45593999997E+02  0.45594000000E+02  0.51100000000E-03 0. -1.
    9900012    2    1    2    0    0 -0.13658420161E+02 -0.89024145175E+01  0.92127868997E+01  0.72461524944E+02  0.69999940923E+02 0.  0.
         12    1    1    2    0    0  0.13658420161E+02  0.89024145175E+01 -0.92127868997E+01  0.18726475056E+02  0.00000000000E+00 0. -1.
         11    1    3    3    0    0  0.11248022997E+02  0.13169761520E+01  0.12260216583E+02  0.16690277363E+02  0.51100000000E-03 0. -1.
        -11    1    3    3    0    0 -0.38965078426E+02 -0.13306271723E+02 -0.38587571983E+01  0.41354857167E+02  0.51100000000E-03 0.  1.
         12    1    3    3    0    0  0.14058635268E+02  0.30868810538E+01  0.81132751487E+00  0.14416390414E+02  0.00000000000E+00 0. -1.
</event>
<event>
 7    1  0.2153242E-013  0.7246149E+02  0.7816164E-02  0.1226708E+00
        -11   -1    0    0    0    0  0.00000000000E+00  0.00000000000E+00  0.45593999997E+02  0.45594000000E+02  0.51100000000E-03 0. -1.
         11   -1    0    0    0    0 -0.00000000000E+00 -0.00000000000E+00 -0.45593999997E+02  0.45594000000E+02  0.51100000000E-03 0.  1.
    9900012    2    1    2    0    0  0.33101443309E+01 -0.15826882463E+02  0.94464289784E+01  0.72461487126E+02  0.69999891658E+02 0.  0.
         12    1    1    2    0    0 -0.33101443309E+01  0.15826882463E+02 -0.94464289784E+01  0.18726512874E+02  0.00000000000E+00 0. -1.
         11    1    3    3    0    0  0.11198134512E+02  0.15778186762E+01 -0.18316044234E+02  0.21525919376E+02  0.51100000000E-03 0. -1.
        -11    1    3    3    0    0 -0.10010728105E+02 -0.11545645188E+02 -0.61373974268E+01  0.16467672800E+02  0.51100000000E-03 0.  1.
         12    1    3    3    0    0  0.21227379239E+01 -0.58590559510E+01  0.33899870640E+02  0.34467894950E+02  0.00000000000E+00 0. -1.
</event>
<event>
 7    1  0.2153242E-013  0.7246160E+02  0.7816164E-02  0.1226708E+00
        -11   -1    0    0    0    0  0.00000000000E+00  0.00000000000E+00  0.45593999997E+02  0.45594000000E+02  0.51100000000E-03 0. -1.
         11   -1    0    0    0    0 -0.00000000000E+00 -0.00000000000E+00 -0.45593999997E+02  0.45594000000E+02  0.51100000000E-03 0.  1.
    9900012    2    1    2    0    0 -0.13810995779E+02  0.12643769692E+02 -0.26372744367E+00  0.72461599689E+02  0.70000038292E+02 0.  0.
         12    1    1    2    0    0  0.13810995779E+02 -0.12643769692E+02  0.26372744367E+00  0.18726400311E+02  0.00000000000E+00 0. -1.
         11    1    3    3    0    0  0.64111787911E+01 -0.58367330872E+01 -0.85494544668E+00  0.87121523517E+01  0.51100000000E-03 0. -1.
        -11    1    3    3    0    0 -0.18888367075E+02 -0.61617799899E+01 -0.22455423217E+02  0.29983061477E+02  0.51100000000E-03 0.  1.
        -12    1    3    3    0    0 -0.13338074954E+01  0.24642282769E+02  0.23046641220E+02  0.33766385860E+02  0.00000000000E+00 0.  1.
</event>
<event>
 7    1  0.2153242E-013  0.7246157E+02  0.7816164E-02  0.1226708E+00
        -11   -1    0    0    0    0  0.00000000000E+00  0.00000000000E+00  0.45593999997E+02  0.45594000000E+02  0.51100000000E-03 0. -1.
         11   -1    0    0    0    0 -0.00000000000E+00 -0.00000000000E+00 -0.45593999997E+02  0.45594000000E+02  0.51100000000E-03 0.  1.
    9900012    2    1    2    0    0 -0.11651467233E+02  0.11504470792E+02 -0.90867807124E+01  0.72461571600E+02  0.70000001701E+02 0.  0.
         12    1    1    2    0    0  0.11651467233E+02 -0.11504470792E+02  0.90867807124E+01  0.18726428400E+02  0.00000000000E+00 0. -1.
         11    1    3    3    0    0  0.17964014462E+01 -0.10051416261E+02 -0.12960171022E+02  0.16499213926E+02  0.51100000000E-03 0. -1.
        -11    1    3    3    0    0  0.10197005582E+02  0.25105537925E+02 -0.93183409674E+01  0.28654815232E+02  0.51100000000E-03 0.  1.
         12    1    3    3    0    0 -0.23644874261E+02 -0.35496508727E+01  0.13191731277E+02  0.27307542442E+02  0.00000000000E+00 0. -1.
</event>
<event>
 7    1  0.2153242E-013  0.7246158E+02  0.7816164E-02  0.1226708E+00
        -11   -1    0    0    0    0  0.00000000000E+00  0.00000000000E+00  0.45593999997E+02  0.45594000000E+02  0.51100000000E-03 0. -1.
         11   -1    0    0    0    0 -0.00000000000E+00 -0.00000000000E+00 -0.45593999997E+02  0.45594000000E+02  0.51100000000E-03 0.  1.
    9900012    2    1    2    0    0  0.12115204545E+02 -0.30509479935E+01 -0.13949630474E+02  0.72461584028E+02  0.70000017890E+02 0.  0.
         12    1    1    2    0    0 -0.12115204545E+02  0.30509479935E+01  0.13949630474E+02  0.18726415972E+02  0.00000000000E+00 0. -1.
         11    1    3    3    0    0  0.58986585023E+01  0.84871926765E+00 -0.23501763325E+01  0.64060772378E+01  0.51100000000E-03 0. -1.
        -11    1    3    3    0    0  0.30229306981E+02  0.23590456253E+01 -0.23664665805E+02  0.38462871769E+02  0.51100000000E-03 0.  1.
         12    1    3    3    0    0 -0.24012760939E+02 -0.62587128864E+01  0.12065211664E+02  0.27592635021E+02  0.00000000000E+00 0. -1.
</event>
<event>
 7    1  0.2153242E-013  0.7246161E+02  0.7816164E-02  0.1226708E+00
        -11   -1    0    0    0    0  0.00000000000E+00  0.00000000000E+00  0.45593999997E+02  0.45594000000E+02  0.51100000000E-03 0.  1.
         11   -1    0    0    0    0 -0.00000000000E+00 -0.00000000000E+00 -0.45593999997E+02  0.45594000000E+02  0.51100000000E-03 0. -1.
    9900012    2    1    2    0    0  0.77025238707E+01  0.14678273468E+02  0.87118862310E+01  0.72461613598E+02  0.70000056411E+02 0.  0.
         12    1    1    2    0    0 -0.77025238707E+01 -0.14678273468E+02 -0.87118862310E+01  0.18726386402E+02  0.00000000000E+00 0. -1.
         11    1    3    3    0    0  0.16217448089E+01 -0.14917514434E+02 -0.10220232193E+02  0.18155314358E+02  0.51100000000E-03 0. -1.
        -11    1    3    3    0    0  0.55001703119E+01 -0.76879222392E+01 -0.42872721459E+01  0.10379630269E+02  0.51100000000E-03 0.  1.
        -12    1    3    3    0    0  0.58060874994E+00  0.37283710141E+02  0.23219390570E+02  0.43926668970E+02  0.00000000000E+00 0.  1.
</event>
<event>
 7    1  0.2153242E-013  0.7246169E+02  0.7816164E-02  0.1226708E+00
        -11   -1    0    0    0    0  0.00000000000E+00  0.00000000000E+00  0.45593999997E+02  0.45594000000E+02  0.51100000000E-03 0.  1.
         11   -1    0    0    0    0 -0.00000000000E+00 -0.00000000000E+00 -0.45593999997E+02  0.45594000000E+02  0.51100000000E-03 0. -1.
    9900012    2    1    2    0    0  0.89387342028E+01 -0.76075034361E+01  0.14591081162E+02  0.72461688907E+02  0.70000154515E+02 0.  0.
         12    1    1    2    0    0 -0.89387342028E+01  0.76075034361E+01 -0.14591081162E+02  0.18726311093E+02  0.00000000000E+00 0. -1.
         11    1    3    3    0    0 -0.49890890103E+01 -0.11675207120E+01 -0.10659252417E+02  0.11826824431E+02  0.51100000000E-03 0. -1.
        -11    1    3    3    0    0  0.13190583726E+02  0.21728905225E+02  0.49278441256E+01  0.25892479010E+02  0.51100000000E-03 0.  1.
         12    1    3    3    0    0  0.73723948709E+00 -0.28168887949E+02  0.20322489453E+02  0.34742385466E+02  0.00000000000E+00 0. -1.
</event>
<event>
 7    1  0.2153242E-013  0.7246157E+02  0.7816164E-02  0.1226708E+00
        -11   -1    0    0    0    0  0.00000000000E+00  0.00000000000E+00  0.45593999997E+02  0.45594000000E+02  0.51100000000E-03 0. -1.
         11   -1    0    0    0    0 -0.00000000000E+00 -0.00000000000E+00 -0.45593999997E+02  0.45594000000E+02  0.51100000000E-03 0.  1.
    9900012    2    1    2    0    0 -0.33187624137E+01 -0.17314090546E+02 -0.63156242978E+01  0.72461574136E+02  0.70000005004E+02 0.  0.
         12    1    1    2    0    0  0.33187624137E+01  0.17314090546E+02  0.63156242978E+01  0.18726425864E+02  0.00000000000E+00 0. -1.
         11    1    3    3    0    0 -0.78952169949E+01 -0.39150350654E+02  0.56287784631E+01  0.40333206605E+02  0.51100000000E-03 0. -1.
        -11    1    3    3    0    0  0.78427644852E+01  0.53307407551E+00 -0.90309244137E+00  0.79125658897E+01  0.51100000000E-03 0.  1.
        -12    1    3    3    0    0 -0.32663099041E+01  0.21303186033E+02 -0.11041310320E+02  0.24215801641E+02  0.00000000000E+00 0.  1.
</event>
<event>
 7    1  0.2153242E-013  0.7246148E+02  0.7816164E-02  0.1226708E+00
        -11   -1    0    0    0    0  0.00000000000E+00  0.00000000000E+00  0.45593999997E+02  0.45594000000E+02  0.51100000000E-03 0. -1.
         11   -1    0    0    0    0 -0.00000000000E+00 -0.00000000000E+00 -0.45593999997E+02  0.45594000000E+02  0.51100000000E-03 0.  1.
    9900012    2    1    2    0    0 -0.10757215155E+02 -0.97190101516E+01 -0.11853505849E+02  0.72461483049E+02  0.69999886346E+02 0.  0.
         12    1    1    2    0    0  0.10757215155E+02  0.97190101516E+01  0.11853505849E+02  0.18726516951E+02  0.00000000000E+00 0. -1.
         11    1    3    3    0    0 -0.55788852802E+01 -0.20177750084E+02 -0.63548664814E+01  0.21878068646E+02  0.51100000000E-03 0. -1.
        -11    1    3    3    0    0 -0.23582858569E+02  0.12054260440E+02 -0.14323646351E+02  0.30110185288E+02  0.51100000000E-03 0.  1.
         12    1    3    3    0    0  0.18404528694E+02 -0.15955205074E+01  0.88250069829E+01  0.20473229115E+02  0.00000000000E+00 0. -1.
</event>
<event>
 7    1  0.2153242E-013  0.7246133E+02  0.7816164E-02  0.1226709E+00
        -11   -1    0    0    0    0  0.00000000000E+00  0.00000000000E+00  0.45593999997E+02  0.45594000000E+02  0.51100000000E-03 0. -1.
         11   -1    0    0    0    0 -0.00000000000E+00 -0.00000000000E+00 -0.45593999997E+02  0.45594000000E+02  0.51100000000E-03 0.  1.
    9900012    2    1    2    0    0 -0.47126725824E+01 -0.16583586065E+02  0.73118737181E+01  0.72461331665E+02  0.69999689141E+02 0.  0.
         12    1    1    2    0    0  0.47126725824E+01  0.16583586065E+02 -0.73118737181E+01  0.18726668335E+02  0.00000000000E+00 0. -1.
         11    1    3    3    0    0 -0.10992582905E+02 -0.42731863456E+01  0.57966542657E+01  0.13141468769E+02  0.51100000000E-03 0. -1.
        -11    1    3    3    0    0 -0.17052027927E+02 -0.12389101670E+02 -0.18905204363E+02  0.28313746641E+02  0.51100000000E-03 0.  1.
         12    1    3    3    0    0  0.23331938249E+02  0.78701950540E-01  0.20420423815E+02  0.31006116255E+02  0.00000000000E+00 0. -1.
</event>
<event>
 7    1  0.2153242E-013  0.7246162E+02  0.7816164E-02  0.1226708E+00
        -11   -1    0    0    0    0  0.00000000000E+00  0.00000000000E+00  0.45593999997E+02  0.45594000000E+02  0.51100000000E-03 0. -1.
         11   -1    0    0    0    0 -0.00000000000E+00 -0.00000000000E+00 -0.45593999997E+02  0.45594000000E+02  0.51100000000E-03 0.  1.
    9900012    2    1    2    0    0  0.10706121684E+02  0.14880299510E+02  0.38252823153E+01  0.72461624488E+02  0.70000070597E+02 0.  0.
         12    1    1    2    0    0 -0.10706121684E+02 -0.14880299510E+02 -0.38252823153E+01  0.18726375512E+02  0.00000000000E+00 0. -1.
         11    1    3    3    0    0 -0.15109754735E+02 -0.27635659537E+01 -0.16901439148E+01  0.15453108802E+02  0.51100000000E-03 0.  1.
        -11    1    3    3    0    0 -0.29487737926E+01  0.11875143112E+02  0.20645812037E+02  0.23999246775E+02  0.51100000000E-03 0. -1.
        -12    1    3    3    0    0  0.28764650212E+02  0.57687223515E+01 -0.15130385807E+02  0.33009268911E+02  0.00000000000E+00 0.  1.
</event>
<event>
 7    1  0.2153242E-013  0.7246151E+02  0.7816164E-02  0.1226708E+00
        -11   -1    0    0    0    0  0.00000000000E+00  0.00000000000E+00  0.45593999997E+02  0.45594000000E+02  0.51100000000E-03 0. -1.
         11   -1    0    0    0    0 -0.00000000000E+00 -0.00000000000E+00 -0.45593999997E+02  0.45594000000E+02  0.51100000000E-03 0.  1.
    9900012    2    1    2    0    0 -0.53087308864E+01  0.96636065887E+01 -0.15136489978E+02  0.72461514885E+02  0.69999927818E+02 0.  0.
         12    1    1    2    0    0  0.53087308864E+01 -0.96636065887E+01  0.15136489978E+02  0.18726485115E+02  0.00000000000E+00 0. -1.
         11    1    3    3    0    0 -0.69146932755E+01  0.31063378966E+01  0.14136393156E+02  0.16040571373E+02  0.51100000000E-03 0. -1.
        -11    1    3    3    0    0 -0.19545904823E+02 -0.86150089773E+01 -0.80204756761E+01  0.22816415261E+02  0.51100000000E-03 0.  1.
        -12    1    3    3    0    0  0.21151867212E+02  0.15172277669E+02 -0.21252407458E+02  0.33604528251E+02  0.00000000000E+00 0.  1.
</event>
<event>
 7    1  0.2153242E-013  0.7246161E+02  0.7816164E-02  0.1226708E+00
        -11   -1    0    0    0    0  0.00000000000E+00  0.00000000000E+00  0.45593999997E+02  0.45594000000E+02  0.51100000000E-03 0.  1.
         11   -1    0    0    0    0 -0.00000000000E+00 -0.00000000000E+00 -0.45593999997E+02  0.45594000000E+02  0.51100000000E-03 0. -1.
    9900012    2    1    2    0    0  0.22675226843E+01 -0.32023011371E+01  0.18310684876E+02  0.72461612940E+02  0.70000055553E+02 0.  0.
         12    1    1    2    0    0 -0.22675226843E+01  0.32023011371E+01 -0.18310684876E+02  0.18726387060E+02  0.00000000000E+00 0. -1.
         11    1    3    3    0    0 -0.23534437115E+02 -0.46447523663E+01 -0.11360893050E+02  0.26542670288E+02  0.51100000000E-03 0. -1.
        -11    1    3    3    0    0  0.50674555360E+01  0.92062432803E+01  0.18118648418E+02  0.20945630611E+02  0.51100000000E-03 0.  1.
        -12    1    3    3    0    0  0.20734504264E+02 -0.77637920511E+01  0.11552929508E+02  0.24973312041E+02  0.00000000000E+00 0.  1.
</event>
<event>
 7    1  0.2153242E-013  0.7246142E+02  0.7816164E-02  0.1226708E+00
        -11   -1    0    0    0    0  0.00000000000E+00  0.00000000000E+00  0.45593999997E+02  0.45594000000E+02  0.51100000000E-03 0.  1.
         11   -1    0    0    0    0 -0.00000000000E+00 -0.00000000000E+00 -0.45593999997E+02  0.45594000000E+02  0.51100000000E-03 0. -1.
    9900012    2    1    2    0    0  0.71073982709E+01  0.15614034269E+02 -0.75080935186E+01  0.72461424109E+02  0.69999809566E+02 0.  0.
         12    1    1    2    0    0 -0.71073982709E+01 -0.15614034269E+02  0.75080935186E+01  0.18726575891E+02  0.00000000000E+00 0. -1.
         11    1    3    3    0    0  0.11795740799E+02 -0.19035893904E+02 -0.94337141301E+01  0.24300200005E+02  0.51100000000E-03 0. -1.
        -11    1    3    3    0    0 -0.96112073701E+00 -0.11348368906E+01 -0.10113332417E+02  0.10222088861E+02  0.51100000000E-03 0.  1.
        -12    1    3    3    0    0 -0.37272217908E+01  0.35784765064E+02  0.12038953029E+02  0.37939135243E+02  0.00000000000E+00 0.  1.
</event>
<event>
 7    1  0.2153242E-013  0.7246160E+02  0.7816164E-02  0.1226708E+00
        -11   -1    0    0    0    0  0.00000000000E+00  0.00000000000E+00  0.45593999997E+02  0.45594000000E+02  0.51100000000E-03 0.  1.
         11   -1    0    0    0    0 -0.00000000000E+00 -0.00000000000E+00 -0.45593999997E+02  0.45594000000E+02  0.51100000000E-03 0. -1.
    9900012    2    1    2    0    0  0.97136597701E+01  0.16010077393E+02  0.14444448700E-01  0.72461602245E+02  0.70000041621E+02 0.  0.
         12    1    1    2    0    0 -0.97136597701E+01 -0.16010077393E+02 -0.14444448700E-01  0.18726397755E+02  0.00000000000E+00 0. -1.
         11    1    3    3    0    0 -0.20351711013E+02  0.70096505788E+01  0.44909451573E+00  0.21529724302E+02  0.51100000000E-03 0. -1.
        -11    1    3    3    0    0  0.89534041005E+01  0.26045098736E+01  0.19235363153E+02  0.21376297915E+02  0.51100000000E-03 0.  1.
         12    1    3    3    0    0  0.21111966682E+02  0.63959169403E+01 -0.19670013220E+02  0.29555580028E+02  0.00000000000E+00 0. -1.
</event>
<event>
 7    1  0.2153242E-013  0.7246154E+02  0.7816164E-02  0.1226708E+00
        -11   -1    0    0    0    0  0.00000000000E+00  0.00000000000E+00  0.45593999997E+02  0.45594000000E+02  0.51100000000E-03 0.  1.
         11   -1    0    0    0    0 -0.00000000000E+00 -0.00000000000E+00 -0.45593999997E+02  0.45594000000E+02  0.51100000000E-03 0. -1.
    9900012    2    1    2    0    0 -0.15280700707E+02  0.82593854775E+01  0.69973522223E+01  0.72461542762E+02  0.69999964134E+02 0.  0.
         12    1    1    2    0    0  0.15280700707E+02 -0.82593854775E+01 -0.69973522223E+01  0.18726457238E+02  0.00000000000E+00 0. -1.
         11    1    3    3    0    0  0.25081603737E+01  0.16028549311E+02 -0.17410729818E+01  0.16316758160E+02  0.51100000000E-03 0. -1.
        -11    1    3    3    0    0 -0.86455895126E+01  0.39824995614E+01  0.29272044294E+02  0.30780823547E+02  0.51100000000E-03 0.  1.
         12    1    3    3    0    0 -0.91432715678E+01 -0.11751663395E+02 -0.20533619090E+02  0.25363961056E+02  0.00000000000E+00 0. -1.
</event>
<event>
 7    1  0.2153242E-013  0.7246230E+02  0.7816164E-02  0.1226706E+00
        -11   -1    0    0    0    0  0.00000000000E+00  0.00000000000E+00  0.45593999997E+02  0.45594000000E+02  0.51100000000E-03 0. -1.
         11   -1    0    0    0    0 -0.00000000000E+00 -0.00000000000E+00 -0.45593999997E+02  0.45594000000E+02  0.51100000000E-03 0.  1.
    9900012    2    1    2    0    0  0.74165354465E+01  0.93095672527E+01 -0.14456103662E+02  0.72462296447E+02  0.70000945943E+02 0.  0.
         12    1    1    2    0    0 -0.74165354465E+01 -0.93095672527E+01  0.14456103662E+02  0.18725703553E+02  0.00000000000E+00 0. -1.
         11    1    3    3    0    0  0.14962467401E+02 -0.30807923615E+01 -0.43045409661E+01  0.15871225079E+02  0.51100000000E-03 0. -1.
        -11    1    3    3    0    0  0.20423351180E+02 -0.18461919081E+01 -0.14205429603E+02  0.24946260811E+02  0.51100000000E-03 0.  1.
         12    1    3    3    0    0 -0.27969283135E+02  0.14236551522E+02  0.40538669069E+01  0.31644810558E+02  0.00000000000E+00 0. -1.
</event>
<event>
 7    1  0.2153242E-013  0.7246159E+02  0.7816164E-02  0.1226708E+00
        -11   -1    0    0    0    0  0.00000000000E+00  0.00000000000E+00  0.45593999997E+02  0.45594000000E+02  0.51100000000E-03 0. -1.
         11   -1    0    0    0    0 -0.00000000000E+00 -0.00000000000E+00 -0.45593999997E+02  0.45594000000E+02  0.51100000000E-03 0.  1.
    9900012    2    1    2    0    0 -0.16159578874E+02 -0.77020568944E+00 -0.94315005288E+01  0.72461590616E+02  0.70000026473E+02 0.  0.
         12    1    1    2    0    0  0.16159578874E+02  0.77020568944E+00  0.94315005288E+01  0.18726409384E+02  0.00000000000E+00 0. -1.
         11    1    3    3    0    0 -0.13118215930E+02 -0.35928974979E+01  0.20570534613E+02  0.24660563581E+02  0.51100000000E-03 0. -1.
        -11    1    3    3    0    0  0.33770523642E+01  0.18345827263E+02 -0.22970829763E+02  0.29591094622E+02  0.51100000000E-03 0.  1.
         12    1    3    3    0    0 -0.64184153084E+01 -0.15523135455E+02 -0.70312053783E+01  0.18209932413E+02  0.00000000000E+00 0. -1.
</event>
<event>
 7    1  0.2153242E-013  0.7246151E+02  0.7816164E-02  0.1226708E+00
        -11   -1    0    0    0    0  0.00000000000E+00  0.00000000000E+00  0.45593999997E+02  0.45594000000E+02  0.51100000000E-03 0.  1.
         11   -1    0    0    0    0 -0.00000000000E+00 -0.00000000000E+00 -0.45593999997E+02  0.45594000000E+02  0.51100000000E-03 0. -1.
    9900012    2    1    2    0    0  0.87257284739E+01 -0.14426023439E+02  0.81506439458E+01  0.72461508433E+02  0.69999919414E+02 0.  0.
         12    1    1    2    0    0 -0.87257284739E+01  0.14426023439E+02 -0.81506439458E+01  0.18726491567E+02  0.00000000000E+00 0. -1.
         11    1    3    3    0    0 -0.90253428321E+00 -0.19231788758E+02  0.28403380491E+00  0.19255049791E+02  0.51100000000E-03 0. -1.
        -11    1    3    3    0    0  0.65666376856E+01 -0.22473106635E+02 -0.31586104222E+01  0.23624945976E+02  0.51100000000E-03 0.  1.
         12    1    3    3    0    0  0.30616250715E+01  0.27278871954E+02  0.11025220563E+02  0.29581512666E+02  0.00000000000E+00 0. -1.
</event>
<event>
 7    1  0.2153242E-013  0.7246162E+02  0.7816164E-02  0.1226708E+00
        -11   -1    0    0    0    0  0.00000000000E+00  0.00000000000E+00  0.45593999997E+02  0.45594000000E+02  0.51100000000E-03 0.  1.
         11   -1    0    0    0    0 -0.00000000000E+00 -0.00000000000E+00 -0.45593999997E+02  0.45594000000E+02  0.51100000000E-03 0. -1.
    9900012    2    1    2    0    0  0.16061383875E+02 -0.88816940040E+01 -0.37181561844E+01  0.72461622193E+02  0.70000067608E+02 0.  0.
         12    1    1    2    0    0 -0.16061383875E+02  0.88816940040E+01  0.37181561844E+01  0.18726377807E+02  0.00000000000E+00 0. -1.
         11    1    3    3    0    0 -0.15093241528E+01  0.89638199454E+01 -0.80495512780E+01  0.12141803962E+02  0.51100000000E-03 0. -1.
        -11    1    3    3    0    0  0.17116367833E+02  0.17392137514E+02  0.56766917038E+01  0.25053569088E+02  0.51100000000E-03 0.  1.
         12    1    3    3    0    0  0.45434019472E+00 -0.35237651463E+02 -0.13452966102E+01  0.35266249143E+02  0.00000000000E+00 0. -1.
</event>
<event>
 7    1  0.2153242E-013  0.7246158E+02  0.7816164E-02  0.1226708E+00
        -11   -1    0    0    0    0  0.00000000000E+00  0.00000000000E+00  0.45593999997E+02  0.45594000000E+02  0.51100000000E-03 0.  1.
         11   -1    0    0    0    0 -0.00000000000E+00 -0.00000000000E+00 -0.45593999997E+02  0.45594000000E+02  0.51100000000E-03 0. -1.
    9900012    2    1    2    0    0  0.87763675991E+01  0.12462793860E+02  0.10878102141E+02  0.72461575749E+02  0.70000007106E+02 0.  0.
         12    1    1    2    0    0 -0.87763675991E+01 -0.12462793860E+02 -0.10878102141E+02  0.18726424251E+02  0.00000000000E+00 0. -1.
         11    1    3    3    0    0 -0.14728577968E+02  0.23474680530E+02  0.13615022553E+00  0.27712996448E+02  0.51100000000E-03 0. -1.
        -11    1    3    3    0    0 -0.29856024186E+01  0.80269942332E+01 -0.33715006467E+01  0.92039923454E+01  0.51100000000E-03 0.  1.
        -12    1    3    3    0    0  0.26490547986E+02 -0.19038880904E+02  0.14113452563E+02  0.35544586956E+02  0.00000000000E+00 0.  1.
</event>
<event>
 7    1  0.2153242E-013  0.7246148E+02  0.7816164E-02  0.1226708E+00
        -11   -1    0    0    0    0  0.00000000000E+00  0.00000000000E+00  0.45593999997E+02  0.45594000000E+02  0.51100000000E-03 0. -1.
         11   -1    0    0    0    0 -0.00000000000E+00 -0.00000000000E+00 -0.45593999997E+02  0.45594000000E+02  0.51100000000E-03 0.  1.
    9900012    2    1    2    0    0 -0.11649874178E+02  0.12982799441E+02  0.68124899629E+01  0.72461476853E+02  0.69999878275E+02 0.  0.
         12    1    1    2    0    0  0.11649874178E+02 -0.12982799441E+02 -0.68124899629E+01  0.18726523147E+02  0.00000000000E+00 0. -1.
         11    1    3    3    0    0  0.14730012426E+02 -0.98325105196E+01  0.15510946569E+01  0.17778003940E+02  0.51100000000E-03 0. -1.
        -11    1    3    3    0    0  0.45663699815E+01 -0.89195613180E+01  0.21506924073E+01  0.10248696844E+02  0.51100000000E-03 0.  1.
        -12    1    3    3    0    0 -0.30946256586E+02  0.31734871279E+02  0.31107028986E+01  0.44434776069E+02  0.00000000000E+00 0.  1.
</event>
<event>
 7    1  0.2153242E-013  0.7246157E+02  0.7816164E-02  0.1226708E+00
        -11   -1    0    0    0    0  0.00000000000E+00  0.00000000000E+00  0.45593999997E+02  0.45594000000E+02  0.51100000000E-03 0.  1.
         11   -1    0    0    0    0 -0.00000000000E+00 -0.00000000000E+00 -0.45593999997E+02  0.45594000000E+02  0.51100000000E-03 0. -1.
    9900012    2    1    2    0    0  0.33585706832E+01 -0.10858111279E+02  0.14882896028E+02  0.72461570235E+02  0.69999999922E+02 0.  0.
         12    1    1    2    0    0 -0.33585706832E+01  0.10858111279E+02 -0.14882896028E+02  0.18726429765E+02  0.00000000000E+00 0. -1.
         11    1    3    3    0    0 -0.19106903794E+02  0.20406249397E+01  0.81057986732E+01  0.20855260611E+02  0.51100000000E-03 0. -1.
        -11    1    3    3    0    0  0.86267468437E+01  0.16525738670E+02  0.26371942781E+01  0.18827522238E+02  0.51100000000E-03 0.  1.
         12    1    3    3    0    0  0.13838727634E+02 -0.29424474889E+02  0.41399030767E+01  0.32778787386E+02  0.00000000000E+00 0. -1.
</event>
<event>
 7    1  0.2153242E-013  0.7246159E+02  0.7816164E-02  0.1226708E+00
        -11   -1    0    0    0    0  0.00000000000E+00  0.00000000000E+00  0.45593999997E+02  0.45594000000E+02  0.51100000000E-03 0.  1.
         11   -1    0    0    0    0 -0.00000000000E+00 -0.00000000000E+00 -0.45593999997E+02  0.45594000000E+02  0.51100000000E-03 0. -1.
    9900012    2    1    2    0    0  0.76202150094E+01  0.16207957579E+02  0.54692762006E+01  0.72461586894E+02  0.70000021624E+02 0.  0.
         12    1    1    2    0    0 -0.76202150094E+01 -0.16207957579E+02 -0.54692762006E+01  0.18726413106E+02  0.00000000000E+00 0. -1.
         11    1    3    3    0    0  0.26139490755E+02 -0.10312492375E+02  0.70528453348E+01  0.28971763900E+02  0.51100000000E-03 0. -1.
        -11    1    3    3    0    0  0.66175393165E+00  0.42165447070E+01  0.10769249205E+02  0.11584208917E+02  0.51100000000E-03 0.  1.
        -12    1    3    3    0    0 -0.19181029677E+02  0.22303905246E+02 -0.12352818339E+02  0.31905614077E+02  0.00000000000E+00 0.  1.
</event>
<event>
 7    1  0.2153242E-013  0.7246147E+02  0.7816164E-02  0.1226708E+00
        -11   -1    0    0    0    0  0.00000000000E+00  0.00000000000E+00  0.45593999997E+02  0.45594000000E+02  0.51100000000E-03 0.  1.
         11   -1    0    0    0    0 -0.00000000000E+00 -0.00000000000E+00 -0.45593999997E+02  0.45594000000E+02  0.51100000000E-03 0. -1.
    9900012    2    1    2    0    0  0.14878403971E+02 -0.67806161329E+01  0.91290417561E+01  0.72461466331E+02  0.69999864569E+02 0.  0.
         12    1    1    2    0    0 -0.14878403971E+02  0.67806161329E+01 -0.91290417561E+01  0.18726533669E+02  0.00000000000E+00 0. -1.
         11    1    3    3    0    0  0.28594267627E+01  0.20631498549E+02 -0.12599910510E+02  0.24343229016E+02  0.51100000000E-03 0. -1.
        -11    1    3    3    0    0 -0.55581905835E+01  0.58963925274E+00 -0.34431434103E+01  0.65647843693E+01  0.51100000000E-03 0.  1.
        -12    1    3    3    0    0  0.17577167792E+02 -0.28001753935E+02  0.25172095677E+02  0.41553452946E+02  0.00000000000E+00 0.  1.
</event>
<event>
 7    1  0.2153242E-013  0.7246154E+02  0.7816164E-02  0.1226708E+00
        -11   -1    0    0    0    0  0.00000000000E+00  0.00000000000E+00  0.45593999997E+02  0.45594000000E+02  0.51100000000E-03 0.  1.
         11   -1    0    0    0    0 -0.00000000000E+00 -0.00000000000E+00 -0.45593999997E+02  0.45594000000E+02  0.51100000000E-03 0. -1.
    9900012    2    1    2    0    0  0.11170641133E+01 -0.48416657078E+00  0.18686845800E+02  0.72461535960E+02  0.69999955273E+02 0.  0.
         12    1    1    2    0    0 -0.11170641133E+01  0.48416657078E+00 -0.18686845800E+02  0.18726464040E+02  0.00000000000E+00 0. -1.
         11    1    3    3    0    0 -0.27321424275E+01  0.64735803672E+01 -0.17446400422E+02  0.18808209191E+02  0.51100000000E-03 0. -1.
        -11    1    3    3    0    0  0.20903900218E+02 -0.21175836794E+00  0.15352958656E+02  0.25937062780E+02  0.51100000000E-03 0.  1.
        -12    1    3    3    0    0 -0.17054693677E+02 -0.67459885700E+01  0.20780287566E+02  0.27716263989E+02  0.00000000000E+00 0.  1.
</event>
<event>
 7    1  0.2153242E-013  0.7246158E+02  0.7816164E-02  0.1226708E+00
        -11   -1    0    0    0    0  0.00000000000E+00  0.00000000000E+00  0.45593999997E+02  0.45594000000E+02  0.51100000000E-03 0. -1.
         11   -1    0    0    0    0 -0.00000000000E+00 -0.00000000000E+00 -0.45593999997E+02  0.45594000000E+02  0.51100000000E-03 0.  1.
    9900012    2    1    2    0    0 -0.11921101746E+02 -0.10769128042E+02 -0.96224784941E+01  0.72461578078E+02  0.70000010140E+02 0.  0.
         12    1    1    2    0    0  0.11921101746E+02  0.10769128042E+02  0.96224784941E+01  0.18726421922E+02  0.00000000000E+00 0. -1.
         11    1    3    3    0    0 -0.17118862502E+02 -0.17844957252E+01  0.17609035670E+02  0.24623525658E+02  0.51100000000E-03 0. -1.
        -11    1    3    3    0    0  0.53881246138E+01  0.14547285624E+02 -0.80447995695E+01  0.17474959407E+02  0.51100000000E-03 0.  1.
        -12    1    3    3    0    0 -0.19036385718E+00 -0.23531917941E+02 -0.19186714595E+02  0.30363093013E+02  0.00000000000E+00 0.  1.
</event>
<event>
 7    1  0.2153242E-013  0.7246155E+02  0.7816164E-02  0.1226708E+00
        -11   -1    0    0    0    0  0.00000000000E+00  0.00000000000E+00  0.45593999997E+02  0.45594000000E+02  0.51100000000E-03 0. -1.
         11   -1    0    0    0    0 -0.00000000000E+00 -0.00000000000E+00 -0.45593999997E+02  0.45594000000E+02  0.51100000000E-03 0.  1.
    9900012    2    1    2    0    0  0.65636482957E+01  0.71682135515E+00 -0.17523830579E+02  0.72461549456E+02  0.69999972854E+02 0.  0.
         12    1    1    2    0    0 -0.65636482957E+01 -0.71682135515E+00  0.17523830579E+02  0.18726450544E+02  0.00000000000E+00 0. -1.
         11    1    3    3    0    0  0.25316164161E+02 -0.55661956764E+01  0.19550099480E+01  0.25994475688E+02  0.51100000000E-03 0. -1.
        -11    1    3    3    0    0  0.65319762389E+01 -0.10040853512E+02 -0.71000419459E+01  0.13924656144E+02  0.51100000000E-03 0.  1.
        -12    1    3    3    0    0 -0.25284492104E+02  0.16323870544E+02 -0.12378798581E+02  0.32542417624E+02  0.00000000000E+00 0.  1.
</event>
<event>
 7    1  0.2153242E-013  0.7246155E+02  0.7816164E-02  0.1226708E+00
        -11   -1    0    0    0    0  0.00000000000E+00  0.00000000000E+00  0.45593999997E+02  0.45594000000E+02  0.51100000000E-03 0.  1.
         11   -1    0    0    0    0 -0.00000000000E+00 -0.00000000000E+00 -0.45593999997E+02  0.45594000000E+02  0.51100000000E-03 0. -1.
    9900012    2    1    2    0    0  0.16103037819E+02  0.17278095954E+01  0.94014259177E+01  0.72461549128E+02  0.69999972427E+02 0.  0.
         12    1    1    2    0    0 -0.16103037819E+02 -0.17278095954E+01 -0.94014259177E+01  0.18726450872E+02  0.00000000000E+00 0. -1.
         11    1    3    3    0    0  0.68382203695E+01 -0.22307434544E+02 -0.10986549088E+02  0.25789283722E+02  0.51100000000E-03 0. -1.
        -11    1    3    3    0    0  0.27037590814E+01 -0.66068873630E+01 -0.28219711868E+01  0.76762487868E+01  0.51100000000E-03 0.  1.
        -12    1    3    3    0    0  0.65610583678E+01  0.30642131503E+02  0.23209946192E+02  0.38996016619E+02  0.00000000000E+00 0.  1.
</event>
<event>
 7    1  0.2153242E-013  0.7246154E+02  0.7816164E-02  0.1226708E+00
        -11   -1    0    0    0    0  0.00000000000E+00  0.00000000000E+00  0.45593999997E+02  0.45594000000E+02  0.51100000000E-03 0.  1.
         11   -1    0    0    0    0 -0.00000000000E+00 -0.00000000000E+00 -0.45593999997E+02  0.45594000000E+02  0.51100000000E-03 0. -1.
    9900012    2    1    2    0    0  0.96104986483E+01  0.11211766392E+02  0.11515850288E+02  0.72461542841E+02  0.69999964236E+02 0.  0.
         12    1    1    2    0    0 -0.96104986483E+01 -0.11211766392E+02 -0.11515850288E+02  0.18726457159E+02  0.00000000000E+00 0. -1.
         11    1    3    3    0    0 -0.21669801107E+02  0.84315882733E+01 -0.73424821987E+01  0.24384093297E+02  0.51100000000E-03 0. -1.
        -11    1    3    3    0    0  0.56856210933E+01 -0.11157857115E+02  0.13556452574E+02  0.18455391334E+02  0.51100000000E-03 0.  1.
         12    1    3    3    0    0  0.25594678662E+02  0.13938035234E+02  0.53018799123E+01  0.29622058210E+02  0.00000000000E+00 0. -1.
</event>
<event>
 7    1  0.2153242E-013  0.7246158E+02  0.7816164E-02  0.1226708E+00
        -11   -1    0    0    0    0  0.00000000000E+00  0.00000000000E+00  0.45593999997E+02  0.45594000000E+02  0.51100000000E-03 0. -1.
         11   -1    0    0    0    0 -0.00000000000E+00 -0.00000000000E+00 -0.45593999997E+02  0.45594000000E+02  0.51100000000E-03 0.  1.
    9900012    2    1    2    0    0 -0.66300677167E+01 -0.49308623076E+01 -0.16804990470E+02  0.72461577338E+02  0.70000009176E+02 0.  0.
         12    1    1    2    0    0  0.66300677167E+01  0.49308623076E+01  0.16804990470E+02  0.18726422662E+02  0.00000000000E+00 0. -1.
         11    1    3    3    0    0 -0.86416848003E+01 -0.41417597903E+00  0.15355404984E+02  0.17624945969E+02  0.51100000000E-03 0. -1.
        -11    1    3    3    0    0  0.43518323187E+01 -0.22484906038E+02 -0.72288790262E+01  0.24015955869E+02  0.51100000000E-03 0.  1.
        -12    1    3    3    0    0 -0.23402152351E+01  0.17968219710E+02 -0.24931516428E+02  0.30820675500E+02  0.00000000000E+00 0.  1.
</event>
<event>
 7    1  0.2153242E-013  0.7246156E+02  0.7816164E-02  0.1226708E+00
        -11   -1    0    0    0    0  0.00000000000E+00  0.00000000000E+00  0.45593999997E+02  0.45594000000E+02  0.51100000000E-03 0.  1.
         11   -1    0    0    0    0 -0.00000000000E+00 -0.00000000000E+00 -0.45593999997E+02  0.45594000000E+02  0.51100000000E-03 0. -1.
    9900012    2    1    2    0    0 -0.39944551354E+01  0.40175433061E+01  0.17848896886E+02  0.72461562910E+02  0.69999990381E+02 0.  0.
         12    1    1    2    0    0  0.39944551354E+01 -0.40175433061E+01 -0.17848896886E+02  0.18726437090E+02  0.00000000000E+00 0. -1.
         11    1    3    3    0    0 -0.79148859386E+00 -0.20205279474E+00 -0.77926209916E+01  0.78353188643E+01  0.51100000000E-03 0. -1.
        -11    1    3    3    0    0  0.77129023089E+01  0.23209273932E+02 -0.68889202928E+01  0.25408984269E+02  0.51100000000E-03 0.  1.
        -12    1    3    3    0    0 -0.10915868850E+02 -0.18989677832E+02  0.32530438170E+02  0.39217259777E+02  0.00000000000E+00 0.  1.
</event>
<event>
 7    1  0.2153242E-013  0.7246156E+02  0.7816164E-02  0.1226708E+00
        -11   -1    0    0    0    0  0.00000000000E+00  0.00000000000E+00  0.45593999997E+02  0.45594000000E+02  0.51100000000E-03 0.  1.
         11   -1    0    0    0    0 -0.00000000000E+00 -0.00000000000E+00 -0.45593999997E+02  0.45594000000E+02  0.51100000000E-03 0. -1.
    9900012    2    1    2    0    0 -0.15186321933E+01 -0.58890794314E+01  0.17711350147E+02  0.72461563491E+02  0.69999991138E+02 0.  0.
         12    1    1    2    0    0  0.15186321933E+01  0.58890794314E+01 -0.17711350147E+02  0.18726436509E+02  0.00000000000E+00 0. -1.
         11    1    3    3    0    0  0.20776800101E+02 -0.48611915201E+01  0.28276176421E+00  0.21339788188E+02  0.51100000000E-03 0. -1.
        -11    1    3    3    0    0  0.89458757213E+01  0.74198720706E+01 -0.40178145933E+01  0.12297399251E+02  0.51100000000E-03 0.  1.
        -12    1    3    3    0    0 -0.31241308016E+02 -0.84477599819E+01  0.21446402976E+02  0.38824376052E+02  0.00000000000E+00 0.  1.
</event>
<event>
 7    1  0.2153242E-013  0.7246112E+02  0.7816164E-02  0.1226709E+00
        -11   -1    0    0    0    0  0.00000000000E+00  0.00000000000E+00  0.45593999997E+02  0.45594000000E+02  0.51100000000E-03 0.  1.
         11   -1    0    0    0    0 -0.00000000000E+00 -0.00000000000E+00 -0.45593999997E+02  0.45594000000E+02  0.51100000000E-03 0. -1.
    9900012    2    1    2    0    0  0.32208835014E+01 -0.45642421735E+01  0.17874276926E+02  0.72461116309E+02  0.69999408597E+02 0.  0.
         12    1    1    2    0    0 -0.32208835014E+01  0.45642421735E+01 -0.17874276926E+02  0.18726883691E+02  0.00000000000E+00 0. -1.
         11    1    3    3    0    0  0.13882654118E+02 -0.23783910634E+02  0.11154148205E+02  0.29712245167E+02  0.51100000000E-03 0.  1.
        -11    1    3    3    0    0  0.99227233995E+01  0.17010519920E+02  0.94922434706E+01  0.21861402379E+02  0.51100000000E-03 0. -1.
        -12    1    3    3    0    0 -0.20584494016E+02  0.22091485407E+01 -0.27721147498E+01  0.20887468764E+02  0.00000000000E+00 0.  1.
</event>
<event>
 7    1  0.2153242E-013  0.7246155E+02  0.7816164E-02  0.1226708E+00
        -11   -1    0    0    0    0  0.00000000000E+00  0.00000000000E+00  0.45593999997E+02  0.45594000000E+02  0.51100000000E-03 0.  1.
         11   -1    0    0    0    0 -0.00000000000E+00 -0.00000000000E+00 -0.45593999997E+02  0.45594000000E+02  0.51100000000E-03 0. -1.
    9900012    2    1    2    0    0 -0.57256079253E+01  0.99427390763E+01  0.14799979472E+02  0.72461547083E+02  0.69999969764E+02 0.  0.
         12    1    1    2    0    0  0.57256079253E+01 -0.99427390763E+01 -0.14799979472E+02  0.18726452917E+02  0.00000000000E+00 0. -1.
         11    1    3    3    0    0  0.29616326530E+02  0.11249411902E+02  0.13841225657E+02  0.34572468717E+02  0.51100000000E-03 0. -1.
        -11    1    3    3    0    0 -0.17230901672E+01 -0.17012354291E+01  0.34059615741E+01  0.41789731053E+01  0.51100000000E-03 0.  1.
        -12    1    3    3    0    0 -0.33618844288E+02  0.39456260324E+00 -0.24472077589E+01  0.33710105261E+02  0.00000000000E+00 0.  1.
</event>
<event>
 7    1  0.2153242E-013  0.7246150E+02  0.7816164E-02  0.1226708E+00
        -11   -1    0    0    0    0  0.00000000000E+00  0.00000000000E+00  0.45593999997E+02  0.45594000000E+02  0.51100000000E-03 0. -1.
         11   -1    0    0    0    0 -0.00000000000E+00 -0.00000000000E+00 -0.45593999997E+02  0.45594000000E+02  0.51100000000E-03 0.  1.
    9900012    2    1    2    0    0  0.18679741476E+02  0.19478678609E-01  0.13224183357E+01  0.72461497089E+02  0.69999904636E+02 0.  0.
         12    1    1    2    0    0 -0.18679741476E+02 -0.19478678609E-01 -0.13224183357E+01  0.18726502911E+02  0.00000000000E+00 0. -1.
         11    1    3    3    0    0  0.18048672709E+02 -0.24064181353E+02 -0.28978834422E+01  0.30219813690E+02  0.51100000000E-03 0. -1.
        -11    1    3    3    0    0  0.15885699984E+02  0.63432336183E+01 -0.37735838175E+01  0.17516621016E+02  0.51100000000E-03 0.  1.
        -12    1    3    3    0    0 -0.15254631217E+02  0.17740426414E+02  0.79938855954E+01  0.24725062383E+02  0.00000000000E+00 0.  1.
</event>
<event>
 7    1  0.2153242E-013  0.7246112E+02  0.7816164E-02  0.1226709E+00
        -11   -1    0    0    0    0  0.00000000000E+00  0.00000000000E+00  0.45593999997E+02  0.45594000000E+02  0.51100000000E-03 0.  1.
         11   -1    0    0    0    0 -0.00000000000E+00 -0.00000000000E+00 -0.45593999997E+02  0.45594000000E+02  0.51100000000E-03 0. -1.
    9900012    2    1    2    0    0  0.93193130948E+01  0.45876681806E+01  0.15582027009E+02  0.72461124617E+02  0.69999419421E+02 0.  0.
         12    1    1    2    0    0 -0.93193130948E+01 -0.45876681806E+01 -0.15582027009E+02  0.18726875383E+02  0.00000000000E+00 0. -1.
         11    1    3    3    0    0 -0.56699456147E+01  0.10482926755E+02 -0.75832713731E+01  0.14126076653E+02  0.51100000000E-03 0. -1.
        -11    1    3    3    0    0  0.16155316697E+02  0.77183095043E+01 -0.11360166389E+02  0.21204243439E+02  0.51100000000E-03 0.  1.
        -12    1    3    3    0    0 -0.11660579872E+01 -0.13613568079E+02  0.34525464770E+02  0.37130804525E+02  0.00000000000E+00 0.  1.
</event>
<event>
 7    1  0.2153242E-013  0.7246167E+02  0.7816164E-02  0.1226708E+00
        -11   -1    0    0    0    0  0.00000000000E+00  0.00000000000E+00  0.45593999997E+02  0.45594000000E+02  0.51100000000E-03 0. -1.
         11   -1    0    0    0    0 -0.00000000000E+00 -0.00000000000E+00 -0.45593999997E+02  0.45594000000E+02  0.51100000000E-03 0.  1.
    9900012    2    1    2    0    0  0.46964946078E+01 -0.16268355029E+02 -0.79974310514E+01  0.72461672533E+02  0.70000133185E+02 0.  0.
         12    1    1    2    0    0 -0.46964946078E+01  0.16268355029E+02  0.79974310514E+01  0.18726327467E+02  0.00000000000E+00 0. -1.
         11    1    3    3    0    0  0.13139595396E+02 -0.35708068679E+02 -0.21150822525E+02  0.43532429633E+02  0.51100000000E-03 0. -1.
        -11    1    3    3    0    0 -0.36683742846E+01  0.15058082123E+01 -0.24684567721E+01  0.46709428771E+01  0.51100000000E-03 0.  1.
        -12    1    3    3    0    0 -0.47747265035E+01  0.17933905437E+02  0.15621848246E+02  0.24258300024E+02  0.00000000000E+00 0.  1.
</event>
<event>
 7    1  0.2153242E-013  0.7246158E+02  0.7816164E-02  0.1226708E+00
        -11   -1    0    0    0    0  0.00000000000E+00  0.00000000000E+00  0.45593999997E+02  0.45594000000E+02  0.51100000000E-03 0.  1.
         11   -1    0    0    0    0 -0.00000000000E+00 -0.00000000000E+00 -0.45593999997E+02  0.45594000000E+02  0.51100000000E-03 0. -1.
    9900012    2    1    2    0    0  0.80693361996E-01 -0.17937005958E+02 -0.53792291352E+01  0.72461580154E+02  0.70000012844E+02 0.  0.
         12    1    1    2    0    0 -0.80693361996E-01  0.17937005958E+02  0.53792291352E+01  0.18726419846E+02  0.00000000000E+00 0. -1.
         11    1    3    3    0    0  0.14122263189E+02  0.10301772261E+02 -0.10931847012E+02  0.20617228442E+02  0.51100000000E-03 0. -1.
        -11    1    3    3    0    0 -0.16013948641E+02  0.12861473362E+01 -0.94801471549E+01  0.18654058978E+02  0.51100000000E-03 0.  1.
        -12    1    3    3    0    0  0.19723788140E+01 -0.29524925555E+02  0.15032765032E+02  0.33190292733E+02  0.00000000000E+00 0.  1.
</event>
<event>
 7    1  0.2153242E-013  0.7246160E+02  0.7816164E-02  0.1226708E+00
        -11   -1    0    0    0    0  0.00000000000E+00  0.00000000000E+00  0.45593999997E+02  0.45594000000E+02  0.51100000000E-03 0. -1.
         11   -1    0    0    0    0 -0.00000000000E+00 -0.00000000000E+00 -0.45593999997E+02  0.45594000000E+02  0.51100000000E-03 0.  1.
    9900012    2    1    2    0    0  0.21470122406E+01 -0.14586987871E+02 -0.11545057454E+02  0.72461595425E+02  0.70000032737E+02 0.  0.
         12    1    1    2    0    0 -0.21470122406E+01  0.14586987871E+02  0.11545057454E+02  0.18726404575E+02  0.00000000000E+00 0. -1.
         11    1    3    3    0    0 -0.68238623639E+00  0.13778719881E+01  0.23225205251E+01  0.27853696418E+01  0.51100000000E-03 0. -1.
        -11    1    3    3    0    0  0.12783731132E+02 -0.29385307678E+02  0.15722152107E+02  0.35694623631E+02  0.51100000000E-03 0.  1.
        -12    1    3    3    0    0 -0.99543326555E+01  0.13420447819E+02 -0.29589730086E+02  0.33981602152E+02  0.00000000000E+00 0.  1.
</event>
<event>
 7    1  0.2153242E-013  0.7246158E+02  0.7816164E-02  0.1226708E+00
        -11   -1    0    0    0    0  0.00000000000E+00  0.00000000000E+00  0.45593999997E+02  0.45594000000E+02  0.51100000000E-03 0. -1.
         11   -1    0    0    0    0 -0.00000000000E+00 -0.00000000000E+00 -0.45593999997E+02  0.45594000000E+02  0.51100000000E-03 0.  1.
    9900012    2    1    2    0    0 -0.10170407627E+02  0.21775933019E+01 -0.15572396520E+02  0.72461584506E+02  0.70000018513E+02 0.  0.
         12    1    1    2    0    0  0.10170407627E+02 -0.21775933019E+01  0.15572396520E+02  0.18726415494E+02  0.00000000000E+00 0. -1.
         11    1    3    3    0    0  0.10485110527E+02  0.35168701063E+01 -0.12579879799E+02  0.16749904302E+02  0.51100000000E-03 0. -1.
        -11    1    3    3    0    0  0.31243609430E+00  0.10271544393E+02 -0.22547244278E+02  0.24778629206E+02  0.51100000000E-03 0.  1.
         12    1    3    3    0    0 -0.20967954248E+02 -0.11610821198E+02  0.19554727557E+02  0.30933050998E+02  0.00000000000E+00 0. -1.
</event>
<event>
 7    1  0.2153242E-013  0.7246156E+02  0.7816164E-02  0.1226708E+00
        -11   -1    0    0    0    0  0.00000000000E+00  0.00000000000E+00  0.45593999997E+02  0.45594000000E+02  0.51100000000E-03 0.  1.
         11   -1    0    0    0    0 -0.00000000000E+00 -0.00000000000E+00 -0.45593999997E+02  0.45594000000E+02  0.51100000000E-03 0. -1.
    9900012    2    1    2    0    0 -0.62583421993E+01 -0.36059432346E+01  0.17277437517E+02  0.72461560913E+02  0.69999987780E+02 0.  0.
         12    1    1    2    0    0  0.62583421993E+01  0.36059432346E+01 -0.17277437517E+02  0.18726439087E+02  0.00000000000E+00 0. -1.
         11    1    3    3    0    0 -0.61106036215E+01  0.20036293040E+01 -0.67651957724E+01  0.93339102796E+01  0.51100000000E-03 0. -1.
        -11    1    3    3    0    0 -0.22323750571E+01  0.19804802789E+02 -0.85992970140E+01  0.21706257653E+02  0.51100000000E-03 0.  1.
        -12    1    3    3    0    0  0.20846364793E+01 -0.25414375327E+02  0.32641930304E+02  0.41421392981E+02  0.00000000000E+00 0.  1.
</event>
<event>
 7    1  0.2153242E-013  0.7246162E+02  0.7816164E-02  0.1226708E+00
        -11   -1    0    0    0    0  0.00000000000E+00  0.00000000000E+00  0.45593999997E+02  0.45594000000E+02  0.51100000000E-03 0.  1.
         11   -1    0    0    0    0 -0.00000000000E+00 -0.00000000000E+00 -0.45593999997E+02  0.45594000000E+02  0.51100000000E-03 0. -1.
    9900012    2    1    2    0    0 -0.10780427867E+02 -0.87074953955E+01  0.12595209193E+02  0.72461617656E+02  0.70000061698E+02 0.  0.
         12    1    1    2    0    0  0.10780427867E+02  0.87074953955E+01 -0.12595209193E+02  0.18726382344E+02  0.00000000000E+00 0. -1.
         11    1    3    3    0    0 -0.12325253851E+02  0.16765491272E+02 -0.46897074884E-01  0.20808550639E+02  0.51100000000E-03 0. -1.
        -11    1    3    3    0    0  0.17916116621E+02  0.16098041697E+01  0.79263548311E+01  0.19657207468E+02  0.51100000000E-03 0.  1.
        -12    1    3    3    0    0 -0.16371290638E+02 -0.27082790838E+02  0.47157514369E+01  0.31995859549E+02  0.00000000000E+00 0.  1.
</event>
<event>
 7    1  0.2153242E-013  0.7246153E+02  0.7816164E-02  0.1226708E+00
        -11   -1    0    0    0    0  0.00000000000E+00  0.00000000000E+00  0.45593999997E+02  0.45594000000E+02  0.51100000000E-03 0.  1.
         11   -1    0    0    0    0 -0.00000000000E+00 -0.00000000000E+00 -0.45593999997E+02  0.45594000000E+02  0.51100000000E-03 0. -1.
    9900012    2    1    2    0    0  0.24916003778E+01 -0.28404171520E+01  0.18341336883E+02  0.72461529945E+02  0.69999947438E+02 0.  0.
         12    1    1    2    0    0 -0.24916003778E+01  0.28404171520E+01 -0.18341336883E+02  0.18726470055E+02  0.00000000000E+00 0. -1.
         11    1    3    3    0    0 -0.43927822473E+01 -0.21215397578E+02 -0.20137505446E+01  0.21758787231E+02  0.51100000000E-03 0. -1.
        -11    1    3    3    0    0 -0.12037518519E+02 -0.76476812605E+01  0.64218285432E+01  0.15640612612E+02  0.51100000000E-03 0.  1.
         12    1    3    3    0    0  0.18921901145E+02  0.26022661687E+02  0.13933258885E+02  0.35062130102E+02  0.00000000000E+00 0. -1.
</event>
<event>
 7    1  0.2153242E-013  0.7246156E+02  0.7816164E-02  0.1226708E+00
        -11   -1    0    0    0    0  0.00000000000E+00  0.00000000000E+00  0.45593999997E+02  0.45594000000E+02  0.51100000000E-03 0. -1.
         11   -1    0    0    0    0 -0.00000000000E+00 -0.00000000000E+00 -0.45593999997E+02  0.45594000000E+02  0.51100000000E-03 0.  1.
    9900012    2    1    2    0    0  0.17447413833E+02 -0.41753955323E+01 -0.53696665703E+01  0.72461561567E+02  0.69999988631E+02 0.  0.
         12    1    1    2    0    0 -0.17447413833E+02  0.41753955323E+01  0.53696665703E+01  0.18726438433E+02  0.00000000000E+00 0. -1.
         11    1    3    3    0    0 -0.59041982635E+01  0.28824502743E+01 -0.57590363948E+01  0.87369661311E+01  0.51100000000E-03 0. -1.
        -11    1    3    3    0    0  0.88153419045E+01 -0.28700633222E+02 -0.14882039677E+02  0.33509874746E+02  0.51100000000E-03 0.  1.
         12    1    3    3    0    0  0.14536270192E+02  0.21642787416E+02  0.15271409501E+02  0.30214720690E+02  0.00000000000E+00 0. -1.
</event>
<event>
 7    1  0.2153242E-013  0.7246157E+02  0.7816164E-02  0.1226708E+00
        -11   -1    0    0    0    0  0.00000000000E+00  0.00000000000E+00  0.45593999997E+02  0.45594000000E+02  0.51100000000E-03 0. -1.
         11   -1    0    0    0    0 -0.00000000000E+00 -0.00000000000E+00 -0.45593999997E+02  0.45594000000E+02  0.51100000000E-03 0.  1.
    9900012    2    1    2    0    0  0.14931408299E+01 -0.18510236778E+02 -0.24126404397E+01  0.72461570308E+02  0.70000000018E+02 0.  0.
         12    1    1    2    0    0 -0.14931408299E+01  0.18510236778E+02  0.24126404397E+01  0.18726429692E+02  0.00000000000E+00 0. -1.
         11    1    3    3    0    0  0.20302099504E+02  0.46699346862E+01 -0.60900775296E+01  0.21704206478E+02  0.51100000000E-03 0. -1.
        -11    1    3    3    0    0  0.45993888536E+01  0.31966126492E+00 -0.12883556795E+02  0.13683661685E+02  0.51100000000E-03 0.  1.
        -12    1    3    3    0    0 -0.23408347528E+02 -0.23499832729E+02  0.16560993885E+02  0.37073702145E+02  0.00000000000E+00 0.  1.
</event>
<event>
 7    1  0.2153242E-013  0.7246127E+02  0.7816164E-02  0.1226709E+00
        -11   -1    0    0    0    0  0.00000000000E+00  0.00000000000E+00  0.45593999997E+02  0.45594000000E+02  0.51100000000E-03 0.  1.
         11   -1    0    0    0    0 -0.00000000000E+00 -0.00000000000E+00 -0.45593999997E+02  0.45594000000E+02  0.51100000000E-03 0. -1.
    9900012    2    1    2    0    0 -0.10988901452E+02  0.71205878801E+01 -0.13387749655E+02  0.72461265962E+02  0.69999603550E+02 0.  0.
         12    1    1    2    0    0  0.10988901452E+02 -0.71205878801E+01  0.13387749655E+02  0.18726734038E+02  0.00000000000E+00 0. -1.
         11    1    3    3    0    0  0.43034946649E+01  0.19236935973E+02 -0.17963985758E+02  0.26669918570E+02  0.51100000000E-03 0. -1.
        -11    1    3    3    0    0 -0.20976822460E+02  0.96257246642E+01  0.18553805191E+01  0.23154353650E+02  0.51100000000E-03 0.  1.
         12    1    3    3    0    0  0.56844263427E+01 -0.21742072757E+02  0.27208555832E+01  0.22636993743E+02  0.00000000000E+00 0. -1.
</event>
<event>
 7    1  0.2934277E-013  0.7246158E+02  0.7816164E-02  0.1226708E+00
        -11   -1    0    0    0    0  0.00000000000E+00  0.00000000000E+00  0.45593999997E+02  0.45594000000E+02  0.51100000000E-03 0. -1.
         11   -1    0    0    0    0 -0.00000000000E+00 -0.00000000000E+00 -0.45593999997E+02  0.45594000000E+02  0.51100000000E-03 0.  1.
    9900012    2    1    2    0    0  0.58575975051E+01  0.95787493229E+01 -0.14987158349E+02  0.72461580094E+02  0.70000012766E+02 0.  0.
         12    1    1    2    0    0 -0.58575975051E+01 -0.95787493229E+01  0.14987158349E+02  0.18726419906E+02  0.00000000000E+00 0. -1.
         11    1    3    3    0    0  0.83190889848E+01  0.13941657234E+02 -0.36701317688E+01  0.16644726355E+02  0.51100000000E-03 0. -1.
        -11    1    3    3    0    0  0.60710358231E+01  0.13423763504E+02 -0.26904680868E+02  0.30674366423E+02  0.51100000000E-03 0.  1.
         12    1    3    3    0    0 -0.85325273029E+01 -0.17786671415E+02  0.15587654288E+02  0.25142487316E+02  0.00000000000E+00 0. -1.
</event>
<event>
 7    1  0.2153242E-013  0.7246116E+02  0.7816164E-02  0.1226709E+00
        -11   -1    0    0    0    0  0.00000000000E+00  0.00000000000E+00  0.45593999997E+02  0.45594000000E+02  0.51100000000E-03 0. -1.
         11   -1    0    0    0    0 -0.00000000000E+00 -0.00000000000E+00 -0.45593999997E+02  0.45594000000E+02  0.51100000000E-03 0.  1.
    9900012    2    1    2    0    0 -0.15980556886E+02 -0.97606227315E+01  0.21544229338E+00  0.72461164446E+02  0.69999471305E+02 0.  0.
         12    1    1    2    0    0  0.15980556886E+02  0.97606227315E+01 -0.21544229338E+00  0.18726835554E+02  0.00000000000E+00 0. -1.
         11    1    3    3    0    0 -0.16413810041E+00  0.67300746313E+01 -0.22066850185E+02  0.23070906424E+02  0.51100000000E-03 0. -1.
        -11    1    3    3    0    0 -0.13197809509E+02  0.10110928666E+02  0.12963145657E+02  0.21082129871E+02  0.51100000000E-03 0.  1.
        -12    1    3    3    0    0 -0.26186092766E+01 -0.26601626029E+02  0.93191468217E+01  0.28308128151E+02  0.00000000000E+00 0.  1.
</event>
<event>
 7    1  0.2153242E-013  0.7246158E+02  0.7816164E-02  0.1226708E+00
        -11   -1    0    0    0    0  0.00000000000E+00  0.00000000000E+00  0.45593999997E+02  0.45594000000E+02  0.51100000000E-03 0.  1.
         11   -1    0    0    0    0 -0.00000000000E+00 -0.00000000000E+00 -0.45593999997E+02  0.45594000000E+02  0.51100000000E-03 0. -1.
    9900012    2    1    2    0    0 -0.87096432439E+01  0.98741660625E+01  0.13316219263E+02  0.72461581861E+02  0.70000015068E+02 0.  0.
         12    1    1    2    0    0  0.87096432439E+01 -0.98741660625E+01 -0.13316219263E+02  0.18726418139E+02  0.00000000000E+00 0. -1.
         11    1    3    3    0    0 -0.26095484380E+02  0.17854571802E+02 -0.73897107779E+01  0.32471031165E+02  0.51100000000E-03 0. -1.
        -11    1    3    3    0    0 -0.25006258876E+01  0.41825406435E+01 -0.37915489233E+01  0.61743517525E+01  0.51100000000E-03 0.  1.
        -12    1    3    3    0    0  0.19886467024E+02 -0.12162946383E+02  0.24497478964E+02  0.33816198944E+02  0.00000000000E+00 0.  1.
</event>
<event>
 7    1  0.2153242E-013  0.7246160E+02  0.7816164E-02  0.1226708E+00
        -11   -1    0    0    0    0  0.00000000000E+00  0.00000000000E+00  0.45593999997E+02  0.45594000000E+02  0.51100000000E-03 0.  1.
         11   -1    0    0    0    0 -0.00000000000E+00 -0.00000000000E+00 -0.45593999997E+02  0.45594000000E+02  0.51100000000E-03 0. -1.
    9900012    2    1    2    0    0 -0.32930241787E+01  0.16341926038E+02  0.85308546507E+01  0.72461600561E+02  0.70000039428E+02 0.  0.
         12    1    1    2    0    0  0.32930241787E+01 -0.16341926038E+02 -0.85308546507E+01  0.18726399439E+02  0.00000000000E+00 0. -1.
         11    1    3    3    0    0  0.11095736700E+02  0.37505165795E+01 -0.89927293229E+01  0.14766547615E+02  0.51100000000E-03 0. -1.
        -11    1    3    3    0    0  0.12935358319E+02  0.18277991547E+02  0.19531371392E+02  0.29713346135E+02  0.51100000000E-03 0.  1.
        -12    1    3    3    0    0 -0.27324119197E+02 -0.56865820880E+01 -0.20077874179E+01  0.27981706811E+02  0.00000000000E+00 0.  1.
</event>
<event>
 7    1  0.2153242E-013  0.7246156E+02  0.7816164E-02  0.1226708E+00
        -11   -1    0    0    0    0  0.00000000000E+00  0.00000000000E+00  0.45593999997E+02  0.45594000000E+02  0.51100000000E-03 0.  1.
         11   -1    0    0    0    0 -0.00000000000E+00 -0.00000000000E+00 -0.45593999997E+02  0.45594000000E+02  0.51100000000E-03 0. -1.
    9900012    2    1    2    0    0 -0.49324687365E+01 -0.18062509619E+02  0.31000590621E+00  0.72461558661E+02  0.69999984845E+02 0.  0.
         12    1    1    2    0    0  0.49324687365E+01  0.18062509619E+02 -0.31000590621E+00  0.18726441339E+02  0.00000000000E+00 0. -1.
         11    1    3    3    0    0  0.17420712330E+01  0.14007559203E+01  0.42977294640E+01  0.48443170970E+01  0.51100000000E-03 0. -1.
        -11    1    3    3    0    0  0.23582386447E+02 -0.49749156149E+00  0.14210846225E+02  0.27537694150E+02  0.51100000000E-03 0.  1.
         12    1    3    3    0    0 -0.30256926417E+02 -0.18965773978E+02 -0.18198569783E+02  0.40079547414E+02  0.00000000000E+00 0. -1.
</event>
<event>
 7    1  0.2153242E-013  0.7246150E+02  0.7816164E-02  0.1226708E+00
        -11   -1    0    0    0    0  0.00000000000E+00  0.00000000000E+00  0.45593999997E+02  0.45594000000E+02  0.51100000000E-03 0. -1.
         11   -1    0    0    0    0 -0.00000000000E+00 -0.00000000000E+00 -0.45593999997E+02  0.45594000000E+02  0.51100000000E-03 0.  1.
    9900012    2    1    2    0    0 -0.77118319783E+01  0.15808578393E+02 -0.64263648348E+01  0.72461503577E+02  0.69999913088E+02 0.  0.
         12    1    1    2    0    0  0.77118319783E+01 -0.15808578393E+02  0.64263648348E+01  0.18726496423E+02  0.00000000000E+00 0. -1.
         11    1    3    3    0    0 -0.93521480383E+01  0.53831212828E+01 -0.16757761009E+02  0.19931463117E+02  0.51100000000E-03 0. -1.
        -11    1    3    3    0    0  0.87579644900E+01  0.26670567744E+02 -0.56746103117E+01  0.28639523883E+02  0.51100000000E-03 0.  1.
         12    1    3    3    0    0 -0.71176484299E+01 -0.16245110634E+02  0.16006006486E+02  0.23890516577E+02  0.00000000000E+00 0. -1.
</event>
