<event>
 7    1  0.2932741E-013  0.7246158E+02  0.7816164E-02  0.1226708E+00
        -11   -1    0    0    0    0  0.00000000000E+00  0.00000000000E+00  0.45593999997E+02  0.45594000000E+02  0.51100000000E-03 0. -1.
         11   -1    0    0    0    0 -0.00000000000E+00 -0.00000000000E+00 -0.45593999997E+02  0.45594000000E+02  0.51100000000E-03 0.  1.
    9900012    2    1    2    0    0  0.73276192406E-01 -0.79209910966E+01 -0.16968536063E+02  0.72461583219E+02  0.70000016836E+02 0.  0.
         12    1    1    2    0    0 -0.73276192406E-01  0.79209910966E+01  0.16968536063E+02  0.18726416781E+02  0.00000000000E+00 0. -1.
         11    1    3    3    0    0  0.73764757216E+01 -0.80293163269E+01 -0.21866338952E+01  0.11120417384E+02  0.51100000000E-03 0. -1.
        -11    1    3    3    0    0  0.36639143323E+01 -0.21536717374E+02 -0.26542259156E+02  0.34376532473E+02  0.51100000000E-03 0.  1.
         12    1    3    3    0    0 -0.10967113862E+02  0.21645042605E+02  0.11760356989E+02  0.26964633361E+02  0.00000000000E+00 0. -1.
</event>
<event>
 7    1  0.2932741E-013  0.7246153E+02  0.7816164E-02  0.1226708E+00
        -11   -1    0    0    0    0  0.00000000000E+00  0.00000000000E+00  0.45593999997E+02  0.45594000000E+02  0.51100000000E-03 0.  1.
         11   -1    0    0    0    0 -0.00000000000E+00 -0.00000000000E+00 -0.45593999997E+02  0.45594000000E+02  0.51100000000E-03 0. -1.
    9900012    2    1    2    0    0  0.57418280499E+01 -0.13876632396E+02  0.11187090856E+02  0.72461534294E+02  0.69999953103E+02 0.  0.
         12    1    1    2    0    0 -0.57418280499E+01  0.13876632396E+02 -0.11187090856E+02  0.18726465706E+02  0.00000000000E+00 0. -1.
         11    1    3    3    0    0 -0.14451210098E+02 -0.14245563426E+02 -0.43754427372E+01  0.20758565703E+02  0.51100000000E-03 0. -1.
        -11    1    3    3    0    0  0.28702936898E+02 -0.12807209461E+02  0.29368793928E+01  0.31567522259E+02  0.51100000000E-03 0.  1.
         12    1    3    3    0    0 -0.85098987507E+01  0.13176140492E+02  0.12625654200E+02  0.20135446332E+02  0.00000000000E+00 0. -1.
</event>
<event>
 7    1  0.2932741E-013  0.7246157E+02  0.7816164E-02  0.1226708E+00
        -11   -1    0    0    0    0  0.00000000000E+00  0.00000000000E+00  0.45593999997E+02  0.45594000000E+02  0.51100000000E-03 0. -1.
         11   -1    0    0    0    0 -0.00000000000E+00 -0.00000000000E+00 -0.45593999997E+02  0.45594000000E+02  0.51100000000E-03 0.  1.
    9900012    2    1    2    0    0 -0.16738086415E+02 -0.15319490534E+01  0.82564295012E+01  0.72461573944E+02  0.70000004754E+02 0.  0.
         12    1    1    2    0    0  0.16738086415E+02  0.15319490534E+01 -0.82564295012E+01  0.18726426056E+02  0.00000000000E+00 0. -1.
         11    1    3    3    0    0 -0.43641680041E+01  0.17264868504E+02  0.26579340717E+02  0.31993483713E+02  0.51100000000E-03 0. -1.
        -11    1    3    3    0    0 -0.91915541564E+01  0.60628253916E+01 -0.60071556468E+01  0.12543063372E+02  0.51100000000E-03 0.  1.
         12    1    3    3    0    0 -0.31823642544E+01 -0.24859642949E+02 -0.12315755569E+02  0.27925026859E+02  0.00000000000E+00 0. -1.
</event>
<event>
 7    1  0.2932741E-013  0.7246156E+02  0.7816164E-02  0.1226708E+00
        -11   -1    0    0    0    0  0.00000000000E+00  0.00000000000E+00  0.45593999997E+02  0.45594000000E+02  0.51100000000E-03 0. -1.
         11   -1    0    0    0    0 -0.00000000000E+00 -0.00000000000E+00 -0.45593999997E+02  0.45594000000E+02  0.51100000000E-03 0.  1.
    9900012    2    1    2    0    0 -0.16117655172E+02 -0.66323131029E+01 -0.68493064030E+01  0.72461564580E+02  0.69999992556E+02 0.  0.
         12    1    1    2    0    0  0.16117655172E+02  0.66323131029E+01  0.68493064030E+01  0.18726435420E+02  0.00000000000E+00 0. -1.
         11    1    3    3    0    0  0.66157767985E+01 -0.28433292071E+01  0.35246980748E+01  0.80172638978E+01  0.51100000000E-03 0.  1.
        -11    1    3    3    0    0 -0.48221006687E+01 -0.25514085926E+02  0.11880619177E+02  0.28554690469E+02  0.51100000000E-03 0. -1.
        -12    1    3    3    0    0 -0.17911331301E+02  0.21725102030E+02 -0.22254623655E+02  0.35889610213E+02  0.00000000000E+00 0.  1.
</event>
<event>
 7    1  0.2932741E-013  0.7246166E+02  0.7816164E-02  0.1226708E+00
        -11   -1    0    0    0    0  0.00000000000E+00  0.00000000000E+00  0.45593999997E+02  0.45594000000E+02  0.51100000000E-03 0. -1.
         11   -1    0    0    0    0 -0.00000000000E+00 -0.00000000000E+00 -0.45593999997E+02  0.45594000000E+02  0.51100000000E-03 0.  1.
    9900012    2    1    2    0    0 -0.15758572427E+02 -0.68760383988E+01  0.74204735974E+01  0.72461656593E+02  0.70000112419E+02 0.  0.
         12    1    1    2    0    0  0.15758572427E+02  0.68760383988E+01 -0.74204735974E+01  0.18726343407E+02  0.00000000000E+00 0. -1.
         11    1    3    3    0    0 -0.29068767414E+01 -0.43726742884E+01 -0.81584601318E+00  0.53137385898E+01  0.51100000000E-03 0. -1.
        -11    1    3    3    0    0  0.26535553285E+02 -0.16670123687E+01 -0.12802514134E+01  0.26618669432E+02  0.51100000000E-03 0.  1.
         12    1    3    3    0    0 -0.39387248970E+02 -0.83635174165E+00  0.95165710240E+01  0.40529248571E+02  0.00000000000E+00 0. -1.
</event>
<event>
 7    1  0.2932741E-013  0.7246159E+02  0.7816164E-02  0.1226708E+00
        -11   -1    0    0    0    0  0.00000000000E+00  0.00000000000E+00  0.45593999997E+02  0.45594000000E+02  0.51100000000E-03 0.  1.
         11   -1    0    0    0    0 -0.00000000000E+00 -0.00000000000E+00 -0.45593999997E+02  0.45594000000E+02  0.51100000000E-03 0. -1.
    9900012    2    1    2    0    0  0.14138950454E+02  0.88078360293E+01  0.85551511886E+01  0.72461587975E+02  0.70000023033E+02 0.  0.
         12    1    1    2    0    0 -0.14138950454E+02 -0.88078360293E+01 -0.85551511886E+01  0.18726412025E+02  0.00000000000E+00 0. -1.
         11    1    3    3    0    0  0.39625761733E+01  0.28714914334E+02 -0.13384359531E+02  0.31927878029E+02  0.51100000000E-03 0. -1.
        -11    1    3    3    0    0  0.35777532760E+01  0.61751614679E+01  0.37950035580E+01  0.80830062431E+01  0.51100000000E-03 0.  1.
         12    1    3    3    0    0  0.65986210045E+01 -0.26082239772E+02  0.18144507162E+02  0.32450703703E+02  0.00000000000E+00 0. -1.
</event>
<event>
 7    1  0.2932741E-013  0.7246159E+02  0.7816164E-02  0.1226708E+00
        -11   -1    0    0    0    0  0.00000000000E+00  0.00000000000E+00  0.45593999997E+02  0.45594000000E+02  0.51100000000E-03 0.  1.
         11   -1    0    0    0    0 -0.00000000000E+00 -0.00000000000E+00 -0.45593999997E+02  0.45594000000E+02  0.51100000000E-03 0. -1.
    9900012    2    1    2    0    0  0.14239842047E+02 -0.63173799829E+01  0.10392121291E+02  0.72461586134E+02  0.70000020634E+02 0.  0.
         12    1    1    2    0    0 -0.14239842047E+02  0.63173799829E+01 -0.10392121291E+02  0.18726413866E+02  0.00000000000E+00 0. -1.
         11    1    3    3    0    0 -0.85354009841E+01 -0.26555764390E+02  0.34722194539E+01  0.28109037701E+02  0.51100000000E-03 0. -1.
        -11    1    3    3    0    0  0.41932790923E+01 -0.18853144500E+01 -0.99040309896E+01  0.10919149702E+02  0.51100000000E-03 0.  1.
        -12    1    3    3    0    0  0.18581963939E+02  0.22123698857E+02  0.16823932827E+02  0.33433398730E+02  0.00000000000E+00 0.  1.
</event>
<event>
 7    1  0.2932741E-013  0.7246162E+02  0.7816164E-02  0.1226708E+00
        -11   -1    0    0    0    0  0.00000000000E+00  0.00000000000E+00  0.45593999997E+02  0.45594000000E+02  0.51100000000E-03 0.  1.
         11   -1    0    0    0    0 -0.00000000000E+00 -0.00000000000E+00 -0.45593999997E+02  0.45594000000E+02  0.51100000000E-03 0. -1.
    9900012    2    1    2    0    0  0.22546288090E+01  0.62253038920E+01  0.17516840914E+02  0.72461615533E+02  0.70000058932E+02 0.  0.
         12    1    1    2    0    0 -0.22546288090E+01 -0.62253038920E+01 -0.17516840914E+02  0.18726384467E+02  0.00000000000E+00 0. -1.
         11    1    3    3    0    0 -0.79943118113E+00 -0.17574219419E+02  0.18279710162E+02  0.25370062717E+02  0.51100000000E-03 0. -1.
        -11    1    3    3    0    0  0.15269653367E+02  0.58750135048E+01  0.13432199041E+02  0.21168421504E+02  0.51100000000E-03 0.  1.
         12    1    3    3    0    0 -0.12215593377E+02  0.17924509806E+02 -0.14195068289E+02  0.25923131313E+02  0.00000000000E+00 0. -1.
</event>
<event>
 7    1  0.2932741E-013  0.7246163E+02  0.7816164E-02  0.1226708E+00
        -11   -1    0    0    0    0  0.00000000000E+00  0.00000000000E+00  0.45593999997E+02  0.45594000000E+02  0.51100000000E-03 0.  1.
         11   -1    0    0    0    0 -0.00000000000E+00 -0.00000000000E+00 -0.45593999997E+02  0.45594000000E+02  0.51100000000E-03 0. -1.
    9900012    2    1    2    0    0 -0.10287609796E+02 -0.75703240186E+01  0.13694240796E+02  0.72461629501E+02  0.70000077128E+02 0.  0.
         12    1    1    2    0    0  0.10287609796E+02  0.75703240186E+01 -0.13694240796E+02  0.18726370499E+02  0.00000000000E+00 0. -1.
         11    1    3    3    0    0  0.59239249010E+01 -0.15117187325E+02 -0.36511345605E+01  0.16641905621E+02  0.51100000000E-03 0. -1.
        -11    1    3    3    0    0 -0.74606193790E+01  0.68050311210E+01 -0.17325694044E+02  0.20053652147E+02  0.51100000000E-03 0.  1.
        -12    1    3    3    0    0 -0.87509153181E+01  0.74183218510E+00  0.34671069401E+02  0.35766071734E+02  0.00000000000E+00 0.  1.
</event>
<event>
 7    1  0.2932741E-013  0.7246149E+02  0.7816164E-02  0.1226708E+00
        -11   -1    0    0    0    0  0.00000000000E+00  0.00000000000E+00  0.45593999997E+02  0.45594000000E+02  0.51100000000E-03 0.  1.
         11   -1    0    0    0    0 -0.00000000000E+00 -0.00000000000E+00 -0.45593999997E+02  0.45594000000E+02  0.51100000000E-03 0. -1.
    9900012    2    1    2    0    0  0.94757537762E+01  0.16133296840E+02 -0.78032917373E+00  0.72461492312E+02  0.69999898414E+02 0.  0.
         12    1    1    2    0    0 -0.94757537762E+01 -0.16133296840E+02  0.78032917373E+00  0.18726507688E+02  0.00000000000E+00 0. -1.
         11    1    3    3    0    0  0.22717282731E+02  0.88610308713E+01  0.11794072695E+01  0.24412779534E+02  0.51100000000E-03 0. -1.
        -11    1    3    3    0    0  0.85947979417E+01 -0.13430057099E+02  0.58122787238E+01  0.16971139313E+02  0.51100000000E-03 0.  1.
         12    1    3    3    0    0 -0.21836326897E+02  0.20702323068E+02 -0.77720151670E+01  0.31077573466E+02  0.00000000000E+00 0. -1.
</event>
<event>
 7    1  0.2932741E-013  0.7246148E+02  0.7816164E-02  0.1226708E+00
        -11   -1    0    0    0    0  0.00000000000E+00  0.00000000000E+00  0.45593999997E+02  0.45594000000E+02  0.51100000000E-03 0.  1.
         11   -1    0    0    0    0 -0.00000000000E+00 -0.00000000000E+00 -0.45593999997E+02  0.45594000000E+02  0.51100000000E-03 0. -1.
    9900012    2    1    2    0    0 -0.92678520364E+01 -0.12755488613E+02  0.10103808645E+02  0.72461480829E+02  0.69999883454E+02 0.  0.
         12    1    1    2    0    0  0.92678520364E+01  0.12755488613E+02 -0.10103808645E+02  0.18726519171E+02  0.00000000000E+00 0. -1.
         11    1    3    3    0    0 -0.11663138102E+02 -0.16575394361E+02  0.19881383103E+02  0.28390876756E+02  0.51100000000E-03 0. -1.
        -11    1    3    3    0    0 -0.12002836561E+02  0.25643690310E+00  0.12484123334E+02  0.17320138021E+02  0.51100000000E-03 0.  1.
         12    1    3    3    0    0  0.14398122627E+02  0.35634688450E+01 -0.22261697792E+02  0.26750466051E+02  0.00000000000E+00 0. -1.
</event>
<event>
 7    1  0.2932741E-013  0.7246158E+02  0.7816164E-02  0.1226708E+00
        -11   -1    0    0    0    0  0.00000000000E+00  0.00000000000E+00  0.45593999997E+02  0.45594000000E+02  0.51100000000E-03 0. -1.
         11   -1    0    0    0    0 -0.00000000000E+00 -0.00000000000E+00 -0.45593999997E+02  0.45594000000E+02  0.51100000000E-03 0.  1.
    9900012    2    1    2    0    0 -0.21496339374E-01 -0.14539655948E+02 -0.11801552331E+02  0.72461582975E+02  0.70000016519E+02 0.  0.
         12    1    1    2    0    0  0.21496339374E-01  0.14539655948E+02  0.11801552331E+02  0.18726417025E+02  0.00000000000E+00 0. -1.
         11    1    3    3    0    0 -0.13458641020E+02  0.26576215587E+01  0.32640629456E+01  0.14101492036E+02  0.51100000000E-03 0. -1.
        -11    1    3    3    0    0 -0.12559988332E+02 -0.11588130671E+02 -0.24732646881E+02  0.30062300334E+02  0.51100000000E-03 0.  1.
        -12    1    3    3    0    0  0.25997133012E+02 -0.56091468359E+01  0.96670316052E+01  0.28297790605E+02  0.00000000000E+00 0.  1.
</event>
<event>
 7    1  0.2932741E-013  0.7246160E+02  0.7816164E-02  0.1226708E+00
        -11   -1    0    0    0    0  0.00000000000E+00  0.00000000000E+00  0.45593999997E+02  0.45594000000E+02  0.51100000000E-03 0.  1.
         11   -1    0    0    0    0 -0.00000000000E+00 -0.00000000000E+00 -0.45593999997E+02  0.45594000000E+02  0.51100000000E-03 0. -1.
    9900012    2    1    2    0    0  0.17435904003E+02  0.67625291877E+01 -0.96717587251E+00  0.72461602093E+02  0.70000041423E+02 0.  0.
         12    1    1    2    0    0 -0.17435904003E+02 -0.67625291877E+01  0.96717587251E+00  0.18726397907E+02  0.00000000000E+00 0. -1.
         11    1    3    3    0    0  0.34411830097E+02  0.15171044659E+02 -0.93621988221E+01  0.38755456566E+02  0.51100000000E-03 0. -1.
        -11    1    3    3    0    0 -0.66065995990E+01 -0.71867587282E+01 -0.90913601199E+01  0.13339770926E+02  0.51100000000E-03 0.  1.
        -12    1    3    3    0    0 -0.10369326495E+02 -0.12217567428E+01  0.17486383069E+02  0.20366374600E+02  0.00000000000E+00 0.  1.
</event>
<event>
 7    1  0.2932741E-013  0.7246084E+02  0.7816164E-02  0.1226710E+00
        -11   -1    0    0    0    0  0.00000000000E+00  0.00000000000E+00  0.45593999997E+02  0.45594000000E+02  0.51100000000E-03 0.  1.
         11   -1    0    0    0    0 -0.00000000000E+00 -0.00000000000E+00 -0.45593999997E+02  0.45594000000E+02  0.51100000000E-03 0. -1.
    9900012    2    1    2    0    0 -0.15147397040E+02 -0.79294341381E+01  0.76411349217E+01  0.72460840426E+02  0.69999049204E+02 0.  0.
         12    1    1    2    0    0  0.15147397040E+02  0.79294341381E+01 -0.76411349217E+01  0.18727159574E+02  0.00000000000E+00 0. -1.
         11    1    3    3    0    0  0.58797894409E+01 -0.15954131187E+02 -0.18399172816E+02  0.25052660266E+02  0.51100000000E-03 0. -1.
        -11    1    3    3    0    0 -0.25528731100E+02  0.88697538577E+01  0.71290332311E+01  0.27950165655E+02  0.51100000000E-03 0.  1.
        -12    1    3    3    0    0  0.45015446196E+01 -0.84505680851E+00  0.18911274507E+02  0.19458014504E+02  0.00000000000E+00 0.  1.
</event>
<event>
 7    1  0.2932741E-013  0.7246157E+02  0.7816164E-02  0.1226708E+00
        -11   -1    0    0    0    0  0.00000000000E+00  0.00000000000E+00  0.45593999997E+02  0.45594000000E+02  0.51100000000E-03 0.  1.
         11   -1    0    0    0    0 -0.00000000000E+00 -0.00000000000E+00 -0.45593999997E+02  0.45594000000E+02  0.51100000000E-03 0. -1.
    9900012    2    1    2    0    0  0.65412525699E+01 -0.14350762940E+02 -0.10096862613E+02  0.72461574373E+02  0.70000005313E+02 0.  0.
         12    1    1    2    0    0 -0.65412525699E+01  0.14350762940E+02  0.10096862613E+02  0.18726425627E+02  0.00000000000E+00 0. -1.
         11    1    3    3    0    0 -0.12509704705E+02 -0.23935074700E+02 -0.19482161178E+02  0.33300677428E+02  0.51100000000E-03 0. -1.
        -11    1    3    3    0    0 -0.15551109859E+01  0.16272755236E+02  0.36300616932E+01  0.16745097232E+02  0.51100000000E-03 0.  1.
         12    1    3    3    0    0  0.20606068261E+02 -0.66884434758E+01  0.57552368724E+01  0.22415799713E+02  0.00000000000E+00 0. -1.
</event>
<event>
 7    1  0.2932741E-013  0.7246158E+02  0.7816164E-02  0.1226708E+00
        -11   -1    0    0    0    0  0.00000000000E+00  0.00000000000E+00  0.45593999997E+02  0.45594000000E+02  0.51100000000E-03 0. -1.
         11   -1    0    0    0    0 -0.00000000000E+00 -0.00000000000E+00 -0.45593999997E+02  0.45594000000E+02  0.51100000000E-03 0.  1.
    9900012    2    1    2    0    0 -0.17900127374E+02 -0.39390717147E+01 -0.38403307843E+01  0.72461575181E+02  0.70000006366E+02 0.  0.
         12    1    1    2    0    0  0.17900127374E+02  0.39390717147E+01  0.38403307843E+01  0.18726424819E+02  0.00000000000E+00 0. -1.
         11    1    3    3    0    0 -0.16937755655E+02 -0.27878463887E+02  0.25895544764E+00  0.32621517033E+02  0.51100000000E-03 0. -1.
        -11    1    3    3    0    0  0.55534675422E+01 -0.63605704113E+01 -0.25002304898E+01  0.88061915981E+01  0.51100000000E-03 0.  1.
         12    1    3    3    0    0 -0.65158392604E+01  0.30299962583E+02 -0.15990557422E+01  0.31033866550E+02  0.00000000000E+00 0. -1.
</event>
<event>
 7    1  0.2932741E-013  0.7246157E+02  0.7816164E-02  0.1226708E+00
        -11   -1    0    0    0    0  0.00000000000E+00  0.00000000000E+00  0.45593999997E+02  0.45594000000E+02  0.51100000000E-03 0.  1.
         11   -1    0    0    0    0 -0.00000000000E+00 -0.00000000000E+00 -0.45593999997E+02  0.45594000000E+02  0.51100000000E-03 0. -1.
    9900012    2    1    2    0    0  0.15957622360E+00  0.80011430729E+01  0.16930313919E+02  0.72461567226E+02  0.69999996003E+02 0.  0.
         12    1    1    2    0    0 -0.15957622360E+00 -0.80011430729E+01 -0.16930313919E+02  0.18726432774E+02  0.00000000000E+00 0. -1.
         11    1    3    3    0    0 -0.14742915063E+02  0.19221397905E+02 -0.20934311057E+01  0.24314566335E+02  0.51100000000E-03 0. -1.
        -11    1    3    3    0    0 -0.12557470229E+02  0.25465519988E+01  0.96190350455E+01  0.16021885691E+02  0.51100000000E-03 0.  1.
        -12    1    3    3    0    0  0.27459961516E+02 -0.13766806831E+02  0.94047099793E+01  0.32125115200E+02  0.00000000000E+00 0.  1.
</event>
<event>
 7    1  0.2932741E-013  0.7246155E+02  0.7816164E-02  0.1226708E+00
        -11   -1    0    0    0    0  0.00000000000E+00  0.00000000000E+00  0.45593999997E+02  0.45594000000E+02  0.51100000000E-03 0. -1.
         11   -1    0    0    0    0 -0.00000000000E+00 -0.00000000000E+00 -0.45593999997E+02  0.45594000000E+02  0.51100000000E-03 0.  1.
    9900012    2    1    2    0    0  0.10957853646E+01 -0.17406880142E+02 -0.68175998323E+01  0.72461551076E+02  0.69999974964E+02 0.  0.
         12    1    1    2    0    0 -0.10957853646E+01  0.17406880142E+02  0.68175998323E+01  0.18726448924E+02  0.00000000000E+00 0. -1.
         11    1    3    3    0    0 -0.14621140883E+02  0.31422693285E+01  0.12733252832E+02  0.19641470037E+02  0.51100000000E-03 0. -1.
        -11    1    3    3    0    0  0.86860193735E+01 -0.72770232214E+01  0.12834796099E+02  0.17121156231E+02  0.51100000000E-03 0.  1.
        -12    1    3    3    0    0  0.70309068737E+01 -0.13272126249E+02 -0.32385648764E+02  0.35698924808E+02  0.00000000000E+00 0.  1.
</event>
<event>
 7    1  0.2932741E-013  0.7246159E+02  0.7816164E-02  0.1226708E+00
        -11   -1    0    0    0    0  0.00000000000E+00  0.00000000000E+00  0.45593999997E+02  0.45594000000E+02  0.51100000000E-03 0. -1.
         11   -1    0    0    0    0 -0.00000000000E+00 -0.00000000000E+00 -0.45593999997E+02  0.45594000000E+02  0.51100000000E-03 0.  1.
    9900012    2    1    2    0    0 -0.14885373196E+01  0.18111377457E+02 -0.45211268599E+01  0.72461592848E+02  0.70000029381E+02 0.  0.
         12    1    1    2    0    0  0.14885373196E+01 -0.18111377457E+02  0.45211268599E+01  0.18726407152E+02  0.00000000000E+00 0. -1.
         11    1    3    3    0    0 -0.17784027152E+02  0.27598538097E+02 -0.20055802635E+01  0.32893362237E+02  0.51100000000E-03 0. -1.
        -11    1    3    3    0    0 -0.38586854989E+01  0.58388225580E+01 -0.10850778954E+02  0.12912037283E+02  0.51100000000E-03 0.  1.
         12    1    3    3    0    0  0.20154175331E+02 -0.15325983198E+02  0.83352323575E+01  0.26656193327E+02  0.00000000000E+00 0. -1.
</event>
<event>
 7    1  0.2932741E-013  0.7246162E+02  0.7816164E-02  0.1226708E+00
        -11   -1    0    0    0    0  0.00000000000E+00  0.00000000000E+00  0.45593999997E+02  0.45594000000E+02  0.51100000000E-03 0.  1.
         11   -1    0    0    0    0 -0.00000000000E+00 -0.00000000000E+00 -0.45593999997E+02  0.45594000000E+02  0.51100000000E-03 0. -1.
    9900012    2    1    2    0    0 -0.91891080001E+01  0.66474970573E+01  0.14901281956E+02  0.72461624833E+02  0.70000071047E+02 0.  0.
         12    1    1    2    0    0  0.91891080001E+01 -0.66474970573E+01 -0.14901281956E+02  0.18726375167E+02  0.00000000000E+00 0. -1.
         11    1    3    3    0    0 -0.86810678791E+01  0.13367220054E+02  0.12669553349E+02  0.20360773409E+02  0.51100000000E-03 0. -1.
        -11    1    3    3    0    0  0.91968385782E+01  0.19020659857E+02 -0.82241539583E+01  0.22671657412E+02  0.51100000000E-03 0.  1.
        -12    1    3    3    0    0 -0.97048786992E+01 -0.25740382853E+02  0.10455882565E+02  0.29429194012E+02  0.00000000000E+00 0.  1.
</event>
<event>
 7    1  0.2932741E-013  0.7246153E+02  0.7816164E-02  0.1226708E+00
        -11   -1    0    0    0    0  0.00000000000E+00  0.00000000000E+00  0.45593999997E+02  0.45594000000E+02  0.51100000000E-03 0. -1.
         11   -1    0    0    0    0 -0.00000000000E+00 -0.00000000000E+00 -0.45593999997E+02  0.45594000000E+02  0.51100000000E-03 0.  1.
    9900012    2    1    2    0    0  0.14515476174E+02 -0.10776260538E+02 -0.48840205462E+01  0.72461534866E+02  0.69999953848E+02 0.  0.
         12    1    1    2    0    0 -0.14515476174E+02  0.10776260538E+02  0.48840205462E+01  0.18726465134E+02  0.00000000000E+00 0. -1.
         11    1    3    3    0    0  0.46865769491E+01 -0.85290541055E+00 -0.47141352461E+01  0.67018297889E+01  0.51100000000E-03 0. -1.
        -11    1    3    3    0    0  0.22586722559E+02  0.11152943024E+02 -0.21541584508E+02  0.33144954932E+02  0.51100000000E-03 0.  1.
         12    1    3    3    0    0 -0.12757823334E+02 -0.21076298151E+02  0.21371699208E+02  0.32614750145E+02  0.00000000000E+00 0. -1.
</event>
<event>
 7    1  0.2932741E-013  0.7246159E+02  0.7816164E-02  0.1226708E+00
        -11   -1    0    0    0    0  0.00000000000E+00  0.00000000000E+00  0.45593999997E+02  0.45594000000E+02  0.51100000000E-03 0.  1.
         11   -1    0    0    0    0 -0.00000000000E+00 -0.00000000000E+00 -0.45593999997E+02  0.45594000000E+02  0.51100000000E-03 0. -1.
    9900012    2    1    2    0    0 -0.59356514793E+01  0.17673988068E+02 -0.17540756875E+01  0.72461585655E+02  0.70000020010E+02 0.  0.
         12    1    1    2    0    0  0.59356514793E+01 -0.17673988068E+02  0.17540756875E+01  0.18726414345E+02  0.00000000000E+00 0. -1.
         11    1    3    3    0    0 -0.11972302438E+01 -0.61769060201E+01 -0.44593876972E+01  0.77119172151E+01  0.51100000000E-03 0. -1.
        -11    1    3    3    0    0  0.27559745778E+02  0.12445954353E+02 -0.12745377114E+01  0.30266579155E+02  0.51100000000E-03 0.  1.
         12    1    3    3    0    0 -0.32298167014E+02  0.11404939735E+02  0.39798497210E+01  0.34483089285E+02  0.00000000000E+00 0. -1.
</event>
<event>
 7    1  0.2932741E-013  0.7246154E+02  0.7816164E-02  0.1226708E+00
        -11   -1    0    0    0    0  0.00000000000E+00  0.00000000000E+00  0.45593999997E+02  0.45594000000E+02  0.51100000000E-03 0. -1.
         11   -1    0    0    0    0 -0.00000000000E+00 -0.00000000000E+00 -0.45593999997E+02  0.45594000000E+02  0.51100000000E-03 0.  1.
    9900012    2    1    2    0    0  0.19495169148E+01 -0.67986105241E+01 -0.17339514001E+02  0.72461535650E+02  0.69999954870E+02 0.  0.
         12    1    1    2    0    0 -0.19495169148E+01  0.67986105241E+01  0.17339514001E+02  0.18726464350E+02  0.00000000000E+00 0. -1.
         11    1    3    3    0    0  0.10258002576E+02 -0.15359659340E+02 -0.30493536759E+01  0.18720157852E+02  0.51100000000E-03 0. -1.
        -11    1    3    3    0    0 -0.35605474942E+01  0.48060469595E+01 -0.33278373529E+02  0.33811621240E+02  0.51100000000E-03 0.  1.
        -12    1    3    3    0    0 -0.47479381671E+01  0.37550018569E+01  0.18988213204E+02  0.19929756559E+02  0.00000000000E+00 0.  1.
</event>
<event>
 7    1  0.2932741E-013  0.7246151E+02  0.7816164E-02  0.1226708E+00
        -11   -1    0    0    0    0  0.00000000000E+00  0.00000000000E+00  0.45593999997E+02  0.45594000000E+02  0.51100000000E-03 0.  1.
         11   -1    0    0    0    0 -0.00000000000E+00 -0.00000000000E+00 -0.45593999997E+02  0.45594000000E+02  0.51100000000E-03 0. -1.
    9900012    2    1    2    0    0  0.87244664295E+01  0.12118289833E+02  0.11300972660E+02  0.72461514852E+02  0.69999927776E+02 0.  0.
         12    1    1    2    0    0 -0.87244664295E+01 -0.12118289833E+02 -0.11300972660E+02  0.18726485148E+02  0.00000000000E+00 0. -1.
         11    1    3    3    0    0  0.85148653982E+01 -0.12468483016E+02 -0.80535859335E+01  0.17112166669E+02  0.51100000000E-03 0. -1.
        -11    1    3    3    0    0 -0.11171525407E+02 -0.97709283436E+01  0.12887992844E+01  0.14897483830E+02  0.51100000000E-03 0.  1.
         12    1    3    3    0    0  0.11381126439E+02  0.34357701192E+02  0.18065759309E+02  0.40451864352E+02  0.00000000000E+00 0. -1.
</event>
<event>
 7    1  0.2932741E-013  0.7246151E+02  0.7816164E-02  0.1226708E+00
        -11   -1    0    0    0    0  0.00000000000E+00  0.00000000000E+00  0.45593999997E+02  0.45594000000E+02  0.51100000000E-03 0.  1.
         11   -1    0    0    0    0 -0.00000000000E+00 -0.00000000000E+00 -0.45593999997E+02  0.45594000000E+02  0.51100000000E-03 0. -1.
    9900012    2    1    2    0    0  0.71884743126E+01  0.17203837767E+02  0.17422389076E+01  0.72461505580E+02  0.69999915697E+02 0.  0.
         12    1    1    2    0    0 -0.71884743126E+01 -0.17203837767E+02 -0.17422389076E+01  0.18726494420E+02  0.00000000000E+00 0. -1.
         11    1    3    3    0    0  0.90035065138E+01 -0.69466834130E+01 -0.52986551267E+01  0.12545727815E+02  0.51100000000E-03 0. -1.
        -11    1    3    3    0    0 -0.14161597325E+02  0.72282244424E+01  0.26772858261E+02  0.31138143925E+02  0.51100000000E-03 0.  1.
         12    1    3    3    0    0  0.12346565123E+02  0.16922296738E+02 -0.19731964226E+02  0.28777633840E+02  0.00000000000E+00 0. -1.
</event>
<event>
 7    1  0.2932741E-013  0.7246154E+02  0.7816164E-02  0.1226708E+00
        -11   -1    0    0    0    0  0.00000000000E+00  0.00000000000E+00  0.45593999997E+02  0.45594000000E+02  0.51100000000E-03 0.  1.
         11   -1    0    0    0    0 -0.00000000000E+00 -0.00000000000E+00 -0.45593999997E+02  0.45594000000E+02  0.51100000000E-03 0. -1.
    9900012    2    1    2    0    0 -0.11508102351E+02  0.73369543142E+01  0.12822363644E+02  0.72461539369E+02  0.69999959715E+02 0.  0.
         12    1    1    2    0    0  0.11508102351E+02 -0.73369543142E+01 -0.12822363644E+02  0.18726460631E+02  0.00000000000E+00 0. -1.
         11    1    3    3    0    0  0.81103842930E+01 -0.84602767315E+00 -0.16771059644E+02  0.18648392371E+02  0.51100000000E-03 0. -1.
        -11    1    3    3    0    0 -0.10741264148E+01  0.21856336524E+02  0.13567408962E+02  0.25747383945E+02  0.51100000000E-03 0.  1.
         12    1    3    3    0    0 -0.18544360229E+02 -0.13673354536E+02  0.16026014326E+02  0.28065763053E+02  0.00000000000E+00 0. -1.
</event>
<event>
 7    1  0.2932741E-013  0.7246160E+02  0.7816164E-02  0.1226708E+00
        -11   -1    0    0    0    0  0.00000000000E+00  0.00000000000E+00  0.45593999997E+02  0.45594000000E+02  0.51100000000E-03 0. -1.
         11   -1    0    0    0    0 -0.00000000000E+00 -0.00000000000E+00 -0.45593999997E+02  0.45594000000E+02  0.51100000000E-03 0.  1.
    9900012    2    1    2    0    0 -0.18829512535E+01  0.12102009134E+02 -0.14165947930E+02  0.72461595880E+02  0.70000033330E+02 0.  0.
         12    1    1    2    0    0  0.18829512535E+01 -0.12102009134E+02  0.14165947930E+02  0.18726404120E+02  0.00000000000E+00 0. -1.
         11    1    3    3    0    0 -0.17301274564E+02  0.39427376766E+01  0.53757211696E+00  0.17752979073E+02  0.51100000000E-03 0. -1.
        -11    1    3    3    0    0 -0.13787595197E+02  0.36853570377E+01 -0.20121980763E+02  0.24669287544E+02  0.51100000000E-03 0.  1.
         12    1    3    3    0    0  0.29205918507E+02  0.44739144200E+01  0.54184607163E+01  0.30039329264E+02  0.00000000000E+00 0. -1.
</event>
<event>
 7    1  0.2932741E-013  0.7246122E+02  0.7816164E-02  0.1226709E+00
        -11   -1    0    0    0    0  0.00000000000E+00  0.00000000000E+00  0.45593999997E+02  0.45594000000E+02  0.51100000000E-03 0. -1.
         11   -1    0    0    0    0 -0.00000000000E+00 -0.00000000000E+00 -0.45593999997E+02  0.45594000000E+02  0.51100000000E-03 0.  1.
    9900012    2    1    2    0    0 -0.69797061396E+01 -0.17225120426E+02  0.22958818306E+01  0.72461223853E+02  0.69999548695E+02 0.  0.
         12    1    1    2    0    0  0.69797061396E+01  0.17225120426E+02 -0.22958818306E+01  0.18726776147E+02  0.00000000000E+00 0. -1.
         11    1    3    3    0    0 -0.12498592770E+02 -0.42030250570E+01 -0.19564277691E+01  0.13330710811E+02  0.51100000000E-03 0. -1.
        -11    1    3    3    0    0 -0.65053629857E+01 -0.24917002965E+02 -0.17824692671E+02  0.31319266489E+02  0.51100000000E-03 0.  1.
         12    1    3    3    0    0  0.12024249616E+02  0.11894907596E+02  0.22077002271E+02  0.27811246553E+02  0.00000000000E+00 0. -1.
</event>
<event>
 7    1  0.2932741E-013  0.7246156E+02  0.7816164E-02  0.1226708E+00
        -11   -1    0    0    0    0  0.00000000000E+00  0.00000000000E+00  0.45593999997E+02  0.45594000000E+02  0.51100000000E-03 0.  1.
         11   -1    0    0    0    0 -0.00000000000E+00 -0.00000000000E+00 -0.45593999997E+02  0.45594000000E+02  0.51100000000E-03 0. -1.
    9900012    2    1    2    0    0  0.16171388412E+02  0.36800781959E+01  0.86961281120E+01  0.72461563530E+02  0.69999991189E+02 0.  0.
         12    1    1    2    0    0 -0.16171388412E+02 -0.36800781959E+01 -0.86961281120E+01  0.18726436470E+02  0.00000000000E+00 0. -1.
         11    1    3    3    0    0  0.18537785680E+02  0.25321793741E+02 -0.13752888248E+02  0.34263459715E+02  0.51100000000E-03 0. -1.
        -11    1    3    3    0    0  0.64411877404E+01 -0.89661961930E+00  0.11337973109E+02  0.13070671778E+02  0.51100000000E-03 0.  1.
        -12    1    3    3    0    0 -0.88075850085E+01 -0.20745095926E+02  0.11111043252E+02  0.25127432038E+02  0.00000000000E+00 0.  1.
</event>
<event>
 7    1  0.2932741E-013  0.7246159E+02  0.7816164E-02  0.1226708E+00
        -11   -1    0    0    0    0  0.00000000000E+00  0.00000000000E+00  0.45593999997E+02  0.45594000000E+02  0.51100000000E-03 0. -1.
         11   -1    0    0    0    0 -0.00000000000E+00 -0.00000000000E+00 -0.45593999997E+02  0.45594000000E+02  0.51100000000E-03 0.  1.
    9900012    2    1    2    0    0 -0.51044977938E+01 -0.15236293525E+02 -0.96165460690E+01  0.72461588267E+02  0.70000023413E+02 0.  0.
         12    1    1    2    0    0  0.51044977938E+01  0.15236293525E+02  0.96165460690E+01  0.18726411733E+02  0.00000000000E+00 0. -1.
         11    1    3    3    0    0  0.41295183769E+01  0.14062219056E+02 -0.10317259169E+02  0.17923302257E+02  0.51100000000E-03 0. -1.
        -11    1    3    3    0    0 -0.14159782223E+01 -0.12478227704E+02 -0.21933815787E+02  0.25274561049E+02  0.51100000000E-03 0.  1.
         12    1    3    3    0    0 -0.78180379484E+01 -0.16820284876E+02  0.22634528887E+02  0.29263724961E+02  0.00000000000E+00 0. -1.
</event>
<event>
 7    1  0.2932741E-013  0.7246161E+02  0.7816164E-02  0.1226708E+00
        -11   -1    0    0    0    0  0.00000000000E+00  0.00000000000E+00  0.45593999997E+02  0.45594000000E+02  0.51100000000E-03 0. -1.
         11   -1    0    0    0    0 -0.00000000000E+00 -0.00000000000E+00 -0.45593999997E+02  0.45594000000E+02  0.51100000000E-03 0.  1.
    9900012    2    1    2    0    0 -0.16033490536E+02  0.17452098911E+01 -0.95162574315E+01  0.72461608681E+02  0.70000050006E+02 0.  0.
         12    1    1    2    0    0  0.16033490536E+02 -0.17452098911E+01  0.95162574315E+01  0.18726391319E+02  0.00000000000E+00 0. -1.
         11    1    3    3    0    0 -0.36973125619E+02  0.62679310965E+01  0.15972441042E+00  0.37500993193E+02  0.51100000000E-03 0. -1.
        -11    1    3    3    0    0  0.22211889845E+01 -0.28266092640E+01 -0.15000970990E+02  0.15425710075E+02  0.51100000000E-03 0.  1.
        -12    1    3    3    0    0  0.18718446099E+02 -0.16961119415E+01  0.53249891479E+01  0.19534905413E+02  0.00000000000E+00 0.  1.
</event>
<event>
 7    1  0.2932741E-013  0.7246155E+02  0.7816164E-02  0.1226708E+00
        -11   -1    0    0    0    0  0.00000000000E+00  0.00000000000E+00  0.45593999997E+02  0.45594000000E+02  0.51100000000E-03 0. -1.
         11   -1    0    0    0    0 -0.00000000000E+00 -0.00000000000E+00 -0.45593999997E+02  0.45594000000E+02  0.51100000000E-03 0.  1.
    9900012    2    1    2    0    0 -0.20482958848E+01 -0.18536419033E+02  0.16986886792E+01  0.72461551062E+02  0.69999974946E+02 0.  0.
         12    1    1    2    0    0  0.20482958848E+01  0.18536419033E+02 -0.16986886792E+01  0.18726448938E+02  0.00000000000E+00 0. -1.
         11    1    3    3    0    0  0.31512493193E+01 -0.52889699380E+01 -0.60839249786E+01  0.86555022202E+01  0.51100000000E-03 0. -1.
        -11    1    3    3    0    0 -0.23556714673E+02 -0.29649655814E+02  0.97701087646E+01  0.39108514694E+02  0.51100000000E-03 0.  1.
         12    1    3    3    0    0  0.18357169469E+02  0.16402206718E+02 -0.19874951069E+01  0.24697534147E+02  0.00000000000E+00 0. -1.
</event>
<event>
 7    1  0.2932741E-013  0.7246157E+02  0.7816164E-02  0.1226708E+00
        -11   -1    0    0    0    0  0.00000000000E+00  0.00000000000E+00  0.45593999997E+02  0.45594000000E+02  0.51100000000E-03 0. -1.
         11   -1    0    0    0    0 -0.00000000000E+00 -0.00000000000E+00 -0.45593999997E+02  0.45594000000E+02  0.51100000000E-03 0.  1.
    9900012    2    1    2    0    0 -0.32505997620E+01 -0.91736894778E+01 -0.15998630653E+02  0.72461570543E+02  0.70000000324E+02 0.  0.
         12    1    1    2    0    0  0.32505997620E+01  0.91736894778E+01  0.15998630653E+02  0.18726429457E+02  0.00000000000E+00 0. -1.
         11    1    3    3    0    0 -0.52567616365E+00 -0.55703885232E+01 -0.22075148403E+01  0.60148720485E+01  0.51100000000E-03 0. -1.
        -11    1    3    3    0    0  0.21704043855E+02 -0.23010388921E+02  0.15707003555E+01  0.31670342875E+02  0.51100000000E-03 0.  1.
         12    1    3    3    0    0 -0.24428967453E+02  0.19407087967E+02 -0.15361816168E+02  0.34776355619E+02  0.00000000000E+00 0. -1.
</event>
<event>
 7    1  0.2932741E-013  0.7246153E+02  0.7816164E-02  0.1226708E+00
        -11   -1    0    0    0    0  0.00000000000E+00  0.00000000000E+00  0.45593999997E+02  0.45594000000E+02  0.51100000000E-03 0. -1.
         11   -1    0    0    0    0 -0.00000000000E+00 -0.00000000000E+00 -0.45593999997E+02  0.45594000000E+02  0.51100000000E-03 0.  1.
    9900012    2    1    2    0    0 -0.37002069351E+01 -0.17876064045E+02 -0.41755843725E+01  0.72461529378E+02  0.69999946699E+02 0.  0.
         12    1    1    2    0    0  0.37002069351E+01  0.17876064045E+02  0.41755843725E+01  0.18726470622E+02  0.00000000000E+00 0. -1.
         11    1    3    3    0    0 -0.28633578459E+02  0.26531770693E+01 -0.17354985798E+01  0.28808559831E+02  0.51100000000E-03 0. -1.
        -11    1    3    3    0    0 -0.56896507320E+01 -0.50146146043E+01 -0.52274168900E+01  0.92111005143E+01  0.51100000000E-03 0.  1.
         12    1    3    3    0    0  0.30623022256E+02 -0.15514626510E+02  0.27873310973E+01  0.34441869033E+02  0.00000000000E+00 0. -1.
</event>
<event>
 7    1  0.2932741E-013  0.7246117E+02  0.7816164E-02  0.1226709E+00
        -11   -1    0    0    0    0  0.00000000000E+00  0.00000000000E+00  0.45593999997E+02  0.45594000000E+02  0.51100000000E-03 0.  1.
         11   -1    0    0    0    0 -0.00000000000E+00 -0.00000000000E+00 -0.45593999997E+02  0.45594000000E+02  0.51100000000E-03 0. -1.
    9900012    2    1    2    0    0 -0.10140318942E+02 -0.74079392436E+01  0.13892100834E+02  0.72461171713E+02  0.69999480772E+02 0.  0.
         12    1    1    2    0    0  0.10140318942E+02  0.74079392436E+01 -0.13892100834E+02  0.18726828287E+02  0.00000000000E+00 0. -1.
         11    1    3    3    0    0  0.11203657433E+02  0.51788585038E+00 -0.13864319580E+02  0.17832820958E+02  0.51100000000E-03 0. -1.
        -11    1    3    3    0    0 -0.78054374513E+01  0.12449775591E+02 -0.33336127485E+01  0.15067672026E+02  0.51100000000E-03 0.  1.
        -12    1    3    3    0    0 -0.13538538924E+02 -0.20375600685E+02  0.31090033163E+02  0.39560678729E+02  0.00000000000E+00 0.  1.
</event>
<event>
 7    1  0.2932741E-013  0.7246157E+02  0.7816164E-02  0.1226708E+00
        -11   -1    0    0    0    0  0.00000000000E+00  0.00000000000E+00  0.45593999997E+02  0.45594000000E+02  0.51100000000E-03 0. -1.
         11   -1    0    0    0    0 -0.00000000000E+00 -0.00000000000E+00 -0.45593999997E+02  0.45594000000E+02  0.51100000000E-03 0.  1.
    9900012    2    1    2    0    0  0.95462092587E+01 -0.96143688311E+01  0.12927225096E+02  0.72461565531E+02  0.69999993795E+02 0.  0.
         12    1    1    2    0    0 -0.95462092587E+01  0.96143688311E+01 -0.12927225096E+02  0.18726434469E+02  0.00000000000E+00 0. -1.
         11    1    3    3    0    0  0.11178065824E+02  0.34713168996E+01  0.24221847924E+02  0.26901619165E+02  0.51100000000E-03 0. -1.
        -11    1    3    3    0    0 -0.19341447609E+02 -0.16466772081E+02 -0.25727369211E+01  0.25531650043E+02  0.51100000000E-03 0.  1.
         12    1    3    3    0    0  0.17709591043E+02  0.33810863505E+01 -0.87218859071E+01  0.20028296323E+02  0.00000000000E+00 0. -1.
</event>
<event>
 7    1  0.2932741E-013  0.7246155E+02  0.7816164E-02  0.1226708E+00
        -11   -1    0    0    0    0  0.00000000000E+00  0.00000000000E+00  0.45593999997E+02  0.45594000000E+02  0.51100000000E-03 0.  1.
         11   -1    0    0    0    0 -0.00000000000E+00 -0.00000000000E+00 -0.45593999997E+02  0.45594000000E+02  0.51100000000E-03 0. -1.
    9900012    2    1    2    0    0 -0.94154030703E+01 -0.12639393004E+02  0.10113145905E+02  0.72461553712E+02  0.69999978398E+02 0.  0.
         12    1    1    2    0    0  0.94154030703E+01  0.12639393004E+02 -0.10113145905E+02  0.18726446288E+02  0.00000000000E+00 0. -1.
         11    1    3    3    0    0  0.42699391895E+01  0.21131195315E+01 -0.19515885040E+01  0.51484320706E+01  0.51100000000E-03 0. -1.
        -11    1    3    3    0    0  0.92331486530E+01 -0.23519834082E+02  0.28262842244E+02  0.37910709321E+02  0.51100000000E-03 0.  1.
         12    1    3    3    0    0 -0.22918490913E+02  0.87673215470E+01 -0.16198107834E+02  0.29402412320E+02  0.00000000000E+00 0. -1.
</event>
<event>
 7    1  0.2932741E-013  0.7246160E+02  0.7816164E-02  0.1226708E+00
        -11   -1    0    0    0    0  0.00000000000E+00  0.00000000000E+00  0.45593999997E+02  0.45594000000E+02  0.51100000000E-03 0. -1.
         11   -1    0    0    0    0 -0.00000000000E+00 -0.00000000000E+00 -0.45593999997E+02  0.45594000000E+02  0.51100000000E-03 0.  1.
    9900012    2    1    2    0    0 -0.78649516382E+01 -0.52931248446E+01 -0.16149409051E+02  0.72461600251E+02  0.70000039023E+02 0.  0.
         12    1    1    2    0    0  0.78649516382E+01  0.52931248446E+01  0.16149409051E+02  0.18726399749E+02  0.00000000000E+00 0. -1.
         11    1    3    3    0    0  0.49074050290E+01 -0.17386835979E+01 -0.20030360989E+01  0.55783329631E+01  0.51100000000E-03 0. -1.
        -11    1    3    3    0    0  0.89023411594E+01 -0.29091052238E+02 -0.13750759181E+02  0.33385990726E+02  0.51100000000E-03 0.  1.
         12    1    3    3    0    0 -0.21674697827E+02  0.25536610991E+02 -0.39561377073E+00  0.33497276562E+02  0.00000000000E+00 0. -1.
</event>
<event>
 7    1  0.2932741E-013  0.7246155E+02  0.7816164E-02  0.1226708E+00
        -11   -1    0    0    0    0  0.00000000000E+00  0.00000000000E+00  0.45593999997E+02  0.45594000000E+02  0.51100000000E-03 0. -1.
         11   -1    0    0    0    0 -0.00000000000E+00 -0.00000000000E+00 -0.45593999997E+02  0.45594000000E+02  0.51100000000E-03 0.  1.
    9900012    2    1    2    0    0  0.17240703899E+02  0.72140014962E+01  0.11815942499E+01  0.72461552032E+02  0.69999976210E+02 0.  0.
         12    1    1    2    0    0 -0.17240703899E+02 -0.72140014962E+01 -0.11815942499E+01  0.18726447968E+02  0.00000000000E+00 0. -1.
         11    1    3    3    0    0  0.99502389319E+01  0.60656188742E+01  0.15564744057E+02  0.19443771367E+02  0.51100000000E-03 0. -1.
        -11    1    3    3    0    0  0.27878453617E+02  0.39357690011E+01 -0.74350153053E+00  0.28164716376E+02  0.51100000000E-03 0.  1.
        -12    1    3    3    0    0 -0.20587988650E+02 -0.27873863791E+01 -0.13639648277E+02  0.24853064290E+02  0.00000000000E+00 0.  1.
</event>
<event>
 7    1  0.2932741E-013  0.7246162E+02  0.7816164E-02  0.1226708E+00
        -11   -1    0    0    0    0  0.00000000000E+00  0.00000000000E+00  0.45593999997E+02  0.45594000000E+02  0.51100000000E-03 0.  1.
         11   -1    0    0    0    0 -0.00000000000E+00 -0.00000000000E+00 -0.45593999997E+02  0.45594000000E+02  0.51100000000E-03 0. -1.
    9900012    2    1    2    0    0 -0.12025634302E+02  0.20077209657E+01  0.14213746240E+02  0.72461617380E+02  0.70000061338E+02 0.  0.
         12    1    1    2    0    0  0.12025634302E+02 -0.20077209657E+01 -0.14213746240E+02  0.18726382620E+02  0.00000000000E+00 0. -1.
         11    1    3    3    0    0  0.28237844953E+01  0.15834116804E+01 -0.91543000031E+01  0.97099001145E+01  0.51100000000E-03 0. -1.
        -11    1    3    3    0    0 -0.16387945626E+02 -0.18246676038E+02  0.33449278982E+02  0.41477225232E+02  0.51100000000E-03 0.  1.
         12    1    3    3    0    0  0.15385268290E+01  0.18670985323E+02 -0.10081232739E+02  0.21274492033E+02  0.00000000000E+00 0. -1.
</event>
<event>
 7    1  0.2932741E-013  0.7246156E+02  0.7816164E-02  0.1226708E+00
        -11   -1    0    0    0    0  0.00000000000E+00  0.00000000000E+00  0.45593999997E+02  0.45594000000E+02  0.51100000000E-03 0.  1.
         11   -1    0    0    0    0 -0.00000000000E+00 -0.00000000000E+00 -0.45593999997E+02  0.45594000000E+02  0.51100000000E-03 0. -1.
    9900012    2    1    2    0    0 -0.16184799657E+02  0.49932309162E-01  0.94196298718E+01  0.72461557196E+02  0.69999982936E+02 0.  0.
         12    1    1    2    0    0  0.16184799657E+02 -0.49932309162E-01 -0.94196298718E+01  0.18726442804E+02  0.00000000000E+00 0. -1.
         11    1    3    3    0    0  0.18085028087E+01  0.52750529199E+01  0.37972884852E+00  0.55893702666E+01  0.51100000000E-03 0. -1.
        -11    1    3    3    0    0 -0.27912501813E+02  0.15620766370E+01  0.31058209760E+02  0.41787082150E+02  0.51100000000E-03 0.  1.
         12    1    3    3    0    0  0.99191993464E+01 -0.67871972477E+01 -0.22018308737E+02  0.25085104779E+02  0.00000000000E+00 0. -1.
</event>
<event>
 7    1  0.2932741E-013  0.7246151E+02  0.7816164E-02  0.1226708E+00
        -11   -1    0    0    0    0  0.00000000000E+00  0.00000000000E+00  0.45593999997E+02  0.45594000000E+02  0.51100000000E-03 0.  1.
         11   -1    0    0    0    0 -0.00000000000E+00 -0.00000000000E+00 -0.45593999997E+02  0.45594000000E+02  0.51100000000E-03 0. -1.
    9900012    2    1    2    0    0  0.59903634982E+00  0.17886468463E+02  0.55133153833E+01  0.72461514875E+02  0.69999927806E+02 0.  0.
         12    1    1    2    0    0 -0.59903634982E+00 -0.17886468463E+02 -0.55133153833E+01  0.18726485125E+02  0.00000000000E+00 0. -1.
         11    1    3    3    0    0 -0.13423278283E+02 -0.16859833550E+02  0.94572367533E+01  0.23534606742E+02  0.51100000000E-03 0. -1.
        -11    1    3    3    0    0  0.60674225145E+01 -0.45727079766E+00  0.87594024154E+01  0.10665357166E+02  0.51100000000E-03 0.  1.
        -12    1    3    3    0    0  0.79548921187E+01  0.35203572810E+02 -0.12703323785E+02  0.38261550967E+02  0.00000000000E+00 0.  1.
</event>
<event>
 7    1  0.2932741E-013  0.7246157E+02  0.7816164E-02  0.1226708E+00
        -11   -1    0    0    0    0  0.00000000000E+00  0.00000000000E+00  0.45593999997E+02  0.45594000000E+02  0.51100000000E-03 0.  1.
         11   -1    0    0    0    0 -0.00000000000E+00 -0.00000000000E+00 -0.45593999997E+02  0.45594000000E+02  0.51100000000E-03 0. -1.
    9900012    2    1    2    0    0 -0.42789040611E+01 -0.10647985957E+02  0.14798334473E+02  0.72461566061E+02  0.69999994485E+02 0.  0.
         12    1    1    2    0    0  0.42789040611E+01  0.10647985957E+02 -0.14798334473E+02  0.18726433939E+02  0.00000000000E+00 0. -1.
         11    1    3    3    0    0 -0.11902231394E+02 -0.49876977080E+01 -0.18517534050E+02  0.22570762241E+02  0.51100000000E-03 0. -1.
        -11    1    3    3    0    0  0.16785144443E+02 -0.12720439847E+02  0.88809165089E+01  0.22856538280E+02  0.51100000000E-03 0.  1.
        -12    1    3    3    0    0 -0.91618171101E+01  0.70601515977E+01  0.24434952014E+02  0.27034265540E+02  0.00000000000E+00 0.  1.
</event>
<event>
 7    1  0.2932741E-013  0.7246157E+02  0.7816164E-02  0.1226708E+00
        -11   -1    0    0    0    0  0.00000000000E+00  0.00000000000E+00  0.45593999997E+02  0.45594000000E+02  0.51100000000E-03 0.  1.
         11   -1    0    0    0    0 -0.00000000000E+00 -0.00000000000E+00 -0.45593999997E+02  0.45594000000E+02  0.51100000000E-03 0. -1.
    9900012    2    1    2    0    0  0.38090538169E+01  0.17793320680E+02 -0.44235610301E+01  0.72461573646E+02  0.70000004366E+02 0.  0.
         12    1    1    2    0    0 -0.38090538169E+01 -0.17793320680E+02  0.44235610301E+01  0.18726426354E+02  0.00000000000E+00 0. -1.
         11    1    3    3    0    0 -0.14708531366E+02  0.31809969870E+02 -0.96406704455E+01  0.36347731772E+02  0.51100000000E-03 0. -1.
        -11    1    3    3    0    0  0.70257515385E+01  0.76552520055E+01 -0.19198260397E+01  0.10566446907E+02  0.51100000000E-03 0.  1.
        -12    1    3    3    0    0  0.11491833644E+02 -0.21671901195E+02  0.71369354551E+01  0.25547394967E+02  0.00000000000E+00 0.  1.
</event>
<event>
 7    1  0.2932741E-013  0.7246160E+02  0.7816164E-02  0.1226708E+00
        -11   -1    0    0    0    0  0.00000000000E+00  0.00000000000E+00  0.45593999997E+02  0.45594000000E+02  0.51100000000E-03 0. -1.
         11   -1    0    0    0    0 -0.00000000000E+00 -0.00000000000E+00 -0.45593999997E+02  0.45594000000E+02  0.51100000000E-03 0.  1.
    9900012    2    1    2    0    0  0.14395289468E+02 -0.21898254379E+01 -0.11775323226E+02  0.72461603353E+02  0.70000043065E+02 0.  0.
         12    1    1    2    0    0 -0.14395289468E+02  0.21898254379E+01  0.11775323226E+02  0.18726396647E+02  0.00000000000E+00 0. -1.
         11    1    3    3    0    0 -0.41551503745E+00 -0.24804415032E+01 -0.10565745309E+02  0.10860949175E+02  0.51100000000E-03 0. -1.
        -11    1    3    3    0    0 -0.12295769820E+02  0.87745340978E+01 -0.21797983933E+02  0.26520379106E+02  0.51100000000E-03 0.  1.
         12    1    3    3    0    0  0.27106574325E+02 -0.84839180325E+01  0.20588406016E+02  0.35080275072E+02  0.00000000000E+00 0. -1.
</event>
<event>
 7    1  0.2932741E-013  0.7246158E+02  0.7816164E-02  0.1226708E+00
        -11   -1    0    0    0    0  0.00000000000E+00  0.00000000000E+00  0.45593999997E+02  0.45594000000E+02  0.51100000000E-03 0. -1.
         11   -1    0    0    0    0 -0.00000000000E+00 -0.00000000000E+00 -0.45593999997E+02  0.45594000000E+02  0.51100000000E-03 0.  1.
    9900012    2    1    2    0    0  0.75055754757E+01 -0.15923980525E+02  0.63852935215E+01  0.72461580365E+02  0.70000013119E+02 0.  0.
         12    1    1    2    0    0 -0.75055754757E+01  0.15923980525E+02 -0.63852935215E+01  0.18726419635E+02  0.00000000000E+00 0. -1.
         11    1    3    3    0    0  0.17439585773E+02  0.10392985260E+02  0.26419626650E+02  0.33318913055E+02  0.51100000000E-03 0. -1.
        -11    1    3    3    0    0  0.11467370156E+01 -0.15980534257E+02 -0.29229587815E+01  0.16286072861E+02  0.51100000000E-03 0.  1.
        -12    1    3    3    0    0 -0.11080747313E+02 -0.10336431528E+02 -0.17111374347E+02  0.22856594449E+02  0.00000000000E+00 0.  1.
</event>
<event>
 7    1  0.2932741E-013  0.7246141E+02  0.7816164E-02  0.1226708E+00
        -11   -1    0    0    0    0  0.00000000000E+00  0.00000000000E+00  0.45593999997E+02  0.45594000000E+02  0.51100000000E-03 0. -1.
         11   -1    0    0    0    0 -0.00000000000E+00 -0.00000000000E+00 -0.45593999997E+02  0.45594000000E+02  0.51100000000E-03 0.  1.
    9900012    2    1    2    0    0  0.16878569446E+02  0.92594082219E+00 -0.80586502560E+01  0.72461406158E+02  0.69999786182E+02 0.  0.
         12    1    1    2    0    0 -0.16878569446E+02 -0.92594082219E+00  0.80586502560E+01  0.18726593842E+02  0.00000000000E+00 0. -1.
         11    1    3    3    0    0 -0.16823916033E+01 -0.14510319433E+02 -0.81665013320E+01  0.16735338533E+02  0.51100000000E-03 0. -1.
        -11    1    3    3    0    0  0.15961624245E+01  0.72448932968E+01 -0.24005749220E+02  0.25125927033E+02  0.51100000000E-03 0.  1.
         12    1    3    3    0    0  0.16964798625E+02  0.81913669582E+01  0.24113600296E+02  0.30600140593E+02  0.00000000000E+00 0. -1.
</event>
<event>
 7    1  0.2932741E-013  0.7246174E+02  0.7816164E-02  0.1226708E+00
        -11   -1    0    0    0    0  0.00000000000E+00  0.00000000000E+00  0.45593999997E+02  0.45594000000E+02  0.51100000000E-03 0.  1.
         11   -1    0    0    0    0 -0.00000000000E+00 -0.00000000000E+00 -0.45593999997E+02  0.45594000000E+02  0.51100000000E-03 0. -1.
    9900012    2    1    2    0    0  0.98040847981E+01  0.13925361429E+02  0.77869901317E+01  0.72461735424E+02  0.70000215112E+02 0.  0.
         12    1    1    2    0    0 -0.98040847981E+01 -0.13925361429E+02 -0.77869901317E+01  0.18726264576E+02  0.00000000000E+00 0. -1.
         11    1    3    3    0    0 -0.14656348177E+01  0.11925056355E+02 -0.18037499885E+02  0.21672712264E+02  0.51100000000E-03 0. -1.
        -11    1    3    3    0    0 -0.69710275987E+01  0.10238328580E+02 -0.55510538741E+01  0.13573238275E+02  0.51100000000E-03 0.  1.
        -12    1    3    3    0    0  0.18240747214E+02 -0.82380235066E+01  0.31375543891E+02  0.37215784886E+02  0.00000000000E+00 0.  1.
</event>
<event>
 7    1  0.2932741E-013  0.7246155E+02  0.7816164E-02  0.1226708E+00
        -11   -1    0    0    0    0  0.00000000000E+00  0.00000000000E+00  0.45593999997E+02  0.45594000000E+02  0.51100000000E-03 0. -1.
         11   -1    0    0    0    0 -0.00000000000E+00 -0.00000000000E+00 -0.45593999997E+02  0.45594000000E+02  0.51100000000E-03 0.  1.
    9900012    2    1    2    0    0  0.12966437283E+02 -0.70333715293E+01 -0.11536168071E+02  0.72461548530E+02  0.69999971648E+02 0.  0.
         12    1    1    2    0    0 -0.12966437283E+02  0.70333715293E+01  0.11536168071E+02  0.18726451470E+02  0.00000000000E+00 0. -1.
         11    1    3    3    0    0  0.22430301894E+02  0.47563957391E+01 -0.39710107770E+01  0.23270381826E+02  0.51100000000E-03 0. -1.
        -11    1    3    3    0    0  0.72587289836E+01  0.11632618761E+02  0.85972617452E+01  0.16183938812E+02  0.51100000000E-03 0.  1.
        -12    1    3    3    0    0 -0.16722593595E+02 -0.23422386030E+02 -0.16162419040E+02  0.33007227891E+02  0.00000000000E+00 0.  1.
</event>
<event>
 7    1  0.2932741E-013  0.7246156E+02  0.7816164E-02  0.1226708E+00
        -11   -1    0    0    0    0  0.00000000000E+00  0.00000000000E+00  0.45593999997E+02  0.45594000000E+02  0.51100000000E-03 0.  1.
         11   -1    0    0    0    0 -0.00000000000E+00 -0.00000000000E+00 -0.45593999997E+02  0.45594000000E+02  0.51100000000E-03 0. -1.
    9900012    2    1    2    0    0 -0.15826602525E+02  0.32133237028E+01  0.94801220773E+01  0.72461561168E+02  0.69999988112E+02 0.  0.
         12    1    1    2    0    0  0.15826602525E+02 -0.32133237028E+01 -0.94801220773E+01  0.18726438832E+02  0.00000000000E+00 0. -1.
         11    1    3    3    0    0 -0.18058612933E+02 -0.60014306961E+01 -0.24124368317E+02  0.30726467718E+02  0.51100000000E-03 0. -1.
        -11    1    3    3    0    0 -0.83834744558E+01  0.69268830525E+01  0.68289925030E+01  0.12841319700E+02  0.51100000000E-03 0.  1.
        -12    1    3    3    0    0  0.10615484863E+02  0.22878713464E+01  0.26775497891E+02  0.28893773750E+02  0.00000000000E+00 0.  1.
</event>
<event>
 7    1  0.2932741E-013  0.7246158E+02  0.7816164E-02  0.1226708E+00
        -11   -1    0    0    0    0  0.00000000000E+00  0.00000000000E+00  0.45593999997E+02  0.45594000000E+02  0.51100000000E-03 0.  1.
         11   -1    0    0    0    0 -0.00000000000E+00 -0.00000000000E+00 -0.45593999997E+02  0.45594000000E+02  0.51100000000E-03 0. -1.
    9900012    2    1    2    0    0  0.43075348364E+01  0.12562010928E+02  0.13203023823E+02  0.72461579814E+02  0.70000012401E+02 0.  0.
         12    1    1    2    0    0 -0.43075348364E+01 -0.12562010928E+02 -0.13203023823E+02  0.18726420186E+02  0.00000000000E+00 0. -1.
         11    1    3    3    0    0 -0.17315041325E+00 -0.10695961422E+02  0.91661246749E+01  0.14087278432E+02  0.51100000000E-03 0. -1.
        -11    1    3    3    0    0 -0.92209211829E+01  0.15810144013E+02  0.25780236892E+02  0.31616556670E+02  0.51100000000E-03 0.  1.
         12    1    3    3    0    0  0.13701606433E+02  0.74478283372E+01 -0.21743337744E+02  0.26757744711E+02  0.00000000000E+00 0. -1.
</event>
<event>
 7    1  0.2932741E-013  0.7246150E+02  0.7816164E-02  0.1226708E+00
        -11   -1    0    0    0    0  0.00000000000E+00  0.00000000000E+00  0.45593999997E+02  0.45594000000E+02  0.51100000000E-03 0.  1.
         11   -1    0    0    0    0 -0.00000000000E+00 -0.00000000000E+00 -0.45593999997E+02  0.45594000000E+02  0.51100000000E-03 0. -1.
    9900012    2    1    2    0    0  0.34776119283E+01 -0.66210735911E+01  0.17168269940E+02  0.72461497578E+02  0.69999905273E+02 0.  0.
         12    1    1    2    0    0 -0.34776119283E+01  0.66210735911E+01 -0.17168269940E+02  0.18726502422E+02  0.00000000000E+00 0. -1.
         11    1    3    3    0    0 -0.75394596552E+01  0.12787310397E+02 -0.99775780745E+00  0.14877979701E+02  0.51100000000E-03 0. -1.
        -11    1    3    3    0    0 -0.13947343995E+02  0.88178163912E+01  0.90280811233E+01  0.18809267382E+02  0.51100000000E-03 0.  1.
         12    1    3    3    0    0  0.24964415578E+02 -0.28226200379E+02  0.91379466243E+01  0.38774250496E+02  0.00000000000E+00 0. -1.
</event>
<event>
 7    1  0.2932741E-013  0.7246149E+02  0.7816164E-02  0.1226708E+00
        -11   -1    0    0    0    0  0.00000000000E+00  0.00000000000E+00  0.45593999997E+02  0.45594000000E+02  0.51100000000E-03 0. -1.
         11   -1    0    0    0    0 -0.00000000000E+00 -0.00000000000E+00 -0.45593999997E+02  0.45594000000E+02  0.51100000000E-03 0.  1.
    9900012    2    1    2    0    0  0.14684636454E+02  0.11585769866E+02 -0.90203627683E+00  0.72461487227E+02  0.69999891790E+02 0.  0.
         12    1    1    2    0    0 -0.14684636454E+02 -0.11585769866E+02  0.90203627683E+00  0.18726512773E+02  0.00000000000E+00 0. -1.
         11    1    3    3    0    0  0.16989045389E+01 -0.12084777575E+02 -0.31164474112E+01  0.12595251899E+02  0.51100000000E-03 0. -1.
        -11    1    3    3    0    0  0.30328547931E+01 -0.16887966986E+02 -0.40698275357E+01  0.17634203513E+02  0.51100000000E-03 0.  1.
         12    1    3    3    0    0  0.99528771220E+01  0.40558514427E+02  0.62842386701E+01  0.42232031815E+02  0.00000000000E+00 0. -1.
</event>
<event>
 7    1  0.2932741E-013  0.7246155E+02  0.7816164E-02  0.1226708E+00
        -11   -1    0    0    0    0  0.00000000000E+00  0.00000000000E+00  0.45593999997E+02  0.45594000000E+02  0.51100000000E-03 0.  1.
         11   -1    0    0    0    0 -0.00000000000E+00 -0.00000000000E+00 -0.45593999997E+02  0.45594000000E+02  0.51100000000E-03 0. -1.
    9900012    2    1    2    0    0  0.17063776711E+02  0.38733046762E+01  0.66712171808E+01  0.72461545359E+02  0.69999967516E+02 0.  0.
         12    1    1    2    0    0 -0.17063776711E+02 -0.38733046762E+01 -0.66712171808E+01  0.18726454641E+02  0.00000000000E+00 0. -1.
         11    1    3    3    0    0  0.23393617805E+02 -0.45117772760E+01 -0.34528709003E+01  0.24073633002E+02  0.51100000000E-03 0. -1.
        -11    1    3    3    0    0  0.44674725195E+01  0.99794649919E+01 -0.16397385559E+02  0.19708431842E+02  0.51100000000E-03 0.  1.
        -12    1    3    3    0    0 -0.10797313613E+02 -0.15943830397E+01  0.26521473640E+02  0.28679480515E+02  0.00000000000E+00 0.  1.
</event>
<event>
 7    1  0.2932741E-013  0.7246163E+02  0.7816164E-02  0.1226708E+00
        -11   -1    0    0    0    0  0.00000000000E+00  0.00000000000E+00  0.45593999997E+02  0.45594000000E+02  0.51100000000E-03 0.  1.
         11   -1    0    0    0    0 -0.00000000000E+00 -0.00000000000E+00 -0.45593999997E+02  0.45594000000E+02  0.51100000000E-03 0. -1.
    9900012    2    1    2    0    0 -0.55787573094E+01  0.27169047528E+01  0.17668415826E+02  0.72461627625E+02  0.70000074683E+02 0.  0.
         12    1    1    2    0    0  0.55787573094E+01 -0.27169047528E+01 -0.17668415826E+02  0.18726372375E+02  0.00000000000E+00 0. -1.
         11    1    3    3    0    0  0.82227848458E+01  0.21894041931E+02  0.16276998781E+02  0.28493928341E+02  0.51100000000E-03 0. -1.
        -11    1    3    3    0    0 -0.40634884230E+01  0.99812865400E+01  0.68158546418E+01  0.12751231075E+02  0.51100000000E-03 0.  1.
        -12    1    3    3    0    0 -0.97380537321E+01 -0.29158423718E+02 -0.54244375973E+01  0.31216468210E+02  0.00000000000E+00 0.  1.
</event>
<event>
 7    1  0.2932741E-013  0.7246157E+02  0.7816164E-02  0.1226708E+00
        -11   -1    0    0    0    0  0.00000000000E+00  0.00000000000E+00  0.45593999997E+02  0.45594000000E+02  0.51100000000E-03 0.  1.
         11   -1    0    0    0    0 -0.00000000000E+00 -0.00000000000E+00 -0.45593999997E+02  0.45594000000E+02  0.51100000000E-03 0. -1.
    9900012    2    1    2    0    0  0.17475855006E+02  0.37985902474E+01  0.55537641131E+01  0.72461572367E+02  0.70000002700E+02 0.  0.
         12    1    1    2    0    0 -0.17475855006E+02 -0.37985902474E+01 -0.55537641131E+01  0.18726427633E+02  0.00000000000E+00 0. -1.
         11    1    3    3    0    0  0.19062975014E+02 -0.73195311658E+01 -0.45991863731E+01  0.20931437324E+02  0.51100000000E-03 0. -1.
        -11    1    3    3    0    0  0.45835414204E+01 -0.17397092145E+02 -0.49750888418E+01  0.18665989829E+02  0.51100000000E-03 0.  1.
        -12    1    3    3    0    0 -0.61706614281E+01  0.28515213558E+02  0.15128039328E+02  0.32864145214E+02  0.00000000000E+00 0.  1.
</event>
<event>
 7    1  0.2932741E-013  0.7246158E+02  0.7816164E-02  0.1226708E+00
        -11   -1    0    0    0    0  0.00000000000E+00  0.00000000000E+00  0.45593999997E+02  0.45594000000E+02  0.51100000000E-03 0.  1.
         11   -1    0    0    0    0 -0.00000000000E+00 -0.00000000000E+00 -0.45593999997E+02  0.45594000000E+02  0.51100000000E-03 0. -1.
    9900012    2    1    2    0    0 -0.12916332001E+02  0.13555756434E+02  0.29800078290E+00  0.72461575640E+02  0.70000006963E+02 0.  0.
         12    1    1    2    0    0  0.12916332001E+02 -0.13555756434E+02 -0.29800078290E+00  0.18726424360E+02  0.00000000000E+00 0. -1.
         11    1    3    3    0    0 -0.13195490826E+02  0.22785993784E+02  0.24063336832E+01  0.26440743804E+02  0.51100000000E-03 0. -1.
        -11    1    3    3    0    0 -0.58934687961E+01  0.16834492947E+02  0.45755975217E+01  0.18413832305E+02  0.51100000000E-03 0.  1.
         12    1    3    3    0    0  0.61726276211E+01 -0.26064730297E+02 -0.66839304220E+01  0.27606999530E+02  0.00000000000E+00 0. -1.
</event>
<event>
 7    1  0.2932741E-013  0.7246159E+02  0.7816164E-02  0.1226708E+00
        -11   -1    0    0    0    0  0.00000000000E+00  0.00000000000E+00  0.45593999997E+02  0.45594000000E+02  0.51100000000E-03 0.  1.
         11   -1    0    0    0    0 -0.00000000000E+00 -0.00000000000E+00 -0.45593999997E+02  0.45594000000E+02  0.51100000000E-03 0. -1.
    9900012    2    1    2    0    0  0.47029265490E+01  0.11261682459E+02 -0.14203360539E+02  0.72461589225E+02  0.70000024660E+02 0.  0.
         12    1    1    2    0    0 -0.47029265490E+01 -0.11261682459E+02  0.14203360539E+02  0.18726410775E+02  0.00000000000E+00 0. -1.
         11    1    3    3    0    0 -0.73962439036E+01 -0.41613308874E+00 -0.40101705178E+00  0.74187873380E+01  0.51100000000E-03 0. -1.
        -11    1    3    3    0    0  0.89790710299E+01  0.19482569667E+02  0.20532113315E+02  0.29694476167E+02  0.51100000000E-03 0.  1.
         12    1    3    3    0    0  0.31200994227E+01 -0.78047541194E+01 -0.34334456802E+02  0.35348325720E+02  0.00000000000E+00 0. -1.
</event>
<event>
 7    1  0.2932741E-013  0.7246158E+02  0.7816164E-02  0.1226708E+00
        -11   -1    0    0    0    0  0.00000000000E+00  0.00000000000E+00  0.45593999997E+02  0.45594000000E+02  0.51100000000E-03 0. -1.
         11   -1    0    0    0    0 -0.00000000000E+00 -0.00000000000E+00 -0.45593999997E+02  0.45594000000E+02  0.51100000000E-03 0.  1.
    9900012    2    1    2    0    0  0.11079541527E+02 -0.76387654023E+01 -0.13021969700E+02  0.72461583573E+02  0.70000017298E+02 0.  0.
         12    1    1    2    0    0 -0.11079541527E+02  0.76387654023E+01  0.13021969700E+02  0.18726416427E+02  0.00000000000E+00 0. -1.
         11    1    3    3    0    0 -0.13210004550E+02 -0.92143663104E+00 -0.14499262713E+02  0.19636239079E+02  0.51100000000E-03 0. -1.
        -11    1    3    3    0    0  0.28397655156E+01  0.17159943439E+02 -0.83000087568E+01  0.19272209853E+02  0.51100000000E-03 0.  1.
        -12    1    3    3    0    0  0.21449780562E+02 -0.23877272210E+02  0.97773017695E+01  0.33553134641E+02  0.00000000000E+00 0.  1.
</event>
<event>
 7    1  0.2932741E-013  0.7246183E+02  0.7816164E-02  0.1226707E+00
        -11   -1    0    0    0    0  0.00000000000E+00  0.00000000000E+00  0.45593999997E+02  0.45594000000E+02  0.51100000000E-03 0.  1.
         11   -1    0    0    0    0 -0.00000000000E+00 -0.00000000000E+00 -0.45593999997E+02  0.45594000000E+02  0.51100000000E-03 0. -1.
    9900012    2    1    2    0    0  0.10435733325E+02  0.14174369155E+02  0.63915749955E+01  0.72461828424E+02  0.70000336261E+02 0.  0.
         12    1    1    2    0    0 -0.10435733325E+02 -0.14174369155E+02 -0.63915749955E+01  0.18726171576E+02  0.00000000000E+00 0. -1.
         11    1    3    3    0    0  0.37129415430E+01 -0.10182616421E+02  0.63689430858E+01  0.12571199162E+02  0.51100000000E-03 0. -1.
        -11    1    3    3    0    0  0.47939274357E+01  0.72151930939E+01  0.26728993963E+02  0.28097684427E+02  0.51100000000E-03 0.  1.
        -12    1    3    3    0    0  0.19288643463E+01  0.17141792482E+02 -0.26706362053E+02  0.31792944835E+02  0.00000000000E+00 0.  1.
</event>
<event>
 7    1  0.2932741E-013  0.7246158E+02  0.7816164E-02  0.1226708E+00
        -11   -1    0    0    0    0  0.00000000000E+00  0.00000000000E+00  0.45593999997E+02  0.45594000000E+02  0.51100000000E-03 0. -1.
         11   -1    0    0    0    0 -0.00000000000E+00 -0.00000000000E+00 -0.45593999997E+02  0.45594000000E+02  0.51100000000E-03 0.  1.
    9900012    2    1    2    0    0  0.14263892062E+02  0.92059776979E+01 -0.79038156698E+01  0.72461576309E+02  0.70000007835E+02 0.  0.
         12    1    1    2    0    0 -0.14263892062E+02 -0.92059776979E+01  0.79038156698E+01  0.18726423691E+02  0.00000000000E+00 0. -1.
         11    1    3    3    0    0 -0.19160573642E+02 -0.29145178703E+01  0.12421550147E+02  0.23019924088E+02  0.51100000000E-03 0. -1.
        -11    1    3    3    0    0  0.10011904767E+01  0.28509023008E+01  0.59619965210E+01  0.66839680637E+01  0.51100000000E-03 0.  1.
        -12    1    3    3    0    0  0.32423275227E+02  0.92695932675E+01 -0.26287362338E+02  0.42757684157E+02  0.00000000000E+00 0.  1.
</event>
<event>
 7    1  0.2932741E-013  0.7246179E+02  0.7816164E-02  0.1226707E+00
        -11   -1    0    0    0    0  0.00000000000E+00  0.00000000000E+00  0.45593999997E+02  0.45594000000E+02  0.51100000000E-03 0.  1.
         11   -1    0    0    0    0 -0.00000000000E+00 -0.00000000000E+00 -0.45593999997E+02  0.45594000000E+02  0.51100000000E-03 0. -1.
    9900012    2    1    2    0    0  0.35423038272E+01 -0.59550415314E+01  0.17397144512E+02  0.72461786469E+02  0.70000281607E+02 0.  0.
         12    1    1    2    0    0 -0.35423038272E+01  0.59550415314E+01 -0.17397144512E+02  0.18726213531E+02  0.00000000000E+00 0. -1.
         11    1    3    3    0    0  0.29740711372E+01 -0.14427146333E+02 -0.92751636144E+01  0.17407363694E+02  0.51100000000E-03 0. -1.
        -11    1    3    3    0    0 -0.11814923193E+02 -0.15705666031E+02  0.49356879302E+01  0.20263794589E+02  0.51100000000E-03 0.  1.
         12    1    3    3    0    0  0.12383155883E+02  0.24177770833E+02  0.21736620196E+02  0.34790628186E+02  0.00000000000E+00 0. -1.
</event>
<event>
 7    1  0.2932741E-013  0.7246152E+02  0.7816164E-02  0.1226708E+00
        -11   -1    0    0    0    0  0.00000000000E+00  0.00000000000E+00  0.45593999997E+02  0.45594000000E+02  0.51100000000E-03 0.  1.
         11   -1    0    0    0    0 -0.00000000000E+00 -0.00000000000E+00 -0.45593999997E+02  0.45594000000E+02  0.51100000000E-03 0. -1.
    9900012    2    1    2    0    0 -0.67472703554E+01 -0.38305630371E+01  0.17043534618E+02  0.72461522950E+02  0.69999938325E+02 0.  0.
         12    1    1    2    0    0  0.67472703554E+01  0.38305630371E+01 -0.17043534618E+02  0.18726477050E+02  0.00000000000E+00 0. -1.
         11    1    3    3    0    0 -0.71449052388E+01 -0.32953812496E+01 -0.18357403870E+02  0.19972568326E+02  0.51100000000E-03 0. -1.
        -11    1    3    3    0    0  0.31009781480E+01  0.17774542800E+02  0.87788557319E+01  0.20065361832E+02  0.51100000000E-03 0.  1.
         12    1    3    3    0    0 -0.27033432646E+01 -0.18309724587E+02  0.26622082756E+02  0.32423592792E+02  0.00000000000E+00 0. -1.
</event>
<event>
 7    1  0.2932741E-013  0.7246156E+02  0.7816164E-02  0.1226708E+00
        -11   -1    0    0    0    0  0.00000000000E+00  0.00000000000E+00  0.45593999997E+02  0.45594000000E+02  0.51100000000E-03 0. -1.
         11   -1    0    0    0    0 -0.00000000000E+00 -0.00000000000E+00 -0.45593999997E+02  0.45594000000E+02  0.51100000000E-03 0.  1.
    9900012    2    1    2    0    0 -0.18279684291E+02 -0.15163493417E+00 -0.40632094818E+01  0.72461560877E+02  0.69999987732E+02 0.  0.
         12    1    1    2    0    0  0.18279684291E+02  0.15163493417E+00  0.40632094818E+01  0.18726439123E+02  0.00000000000E+00 0. -1.
         11    1    3    3    0    0 -0.10588228247E+02  0.11404037920E+02  0.17263329861E+02  0.23241884958E+02  0.51100000000E-03 0. -1.
        -11    1    3    3    0    0 -0.16034597824E+02  0.11415191586E+02 -0.69978056599E+01  0.20889811168E+02  0.51100000000E-03 0.  1.
        -12    1    3    3    0    0  0.83431417795E+01 -0.22970864440E+02 -0.14328733682E+02  0.28329864751E+02  0.00000000000E+00 0.  1.
</event>
<event>
 7    1  0.2932741E-013  0.7246159E+02  0.7816164E-02  0.1226708E+00
        -11   -1    0    0    0    0  0.00000000000E+00  0.00000000000E+00  0.45593999997E+02  0.45594000000E+02  0.51100000000E-03 0. -1.
         11   -1    0    0    0    0 -0.00000000000E+00 -0.00000000000E+00 -0.45593999997E+02  0.45594000000E+02  0.51100000000E-03 0.  1.
    9900012    2    1    2    0    0 -0.18358098329E+02  0.31541032643E+01  0.19262281511E+01  0.72461588263E+02  0.70000023408E+02 0.  0.
         12    1    1    2    0    0  0.18358098329E+02 -0.31541032643E+01 -0.19262281511E+01  0.18726411737E+02  0.00000000000E+00 0. -1.
         11    1    3    3    0    0 -0.10529888304E+02  0.35049496988E+01 -0.18533666352E+01  0.11251586031E+02  0.51100000000E-03 0. -1.
        -11    1    3    3    0    0  0.13784430289E+01 -0.11065437449E+02 -0.25977629568E+02  0.28269793939E+02  0.51100000000E-03 0.  1.
         12    1    3    3    0    0 -0.92066530542E+01  0.10714591015E+02  0.29757224354E+02  0.32940208292E+02  0.00000000000E+00 0. -1.
</event>
<event>
 7    1  0.2932741E-013  0.7246199E+02  0.7816164E-02  0.1226707E+00
        -11   -1    0    0    0    0  0.00000000000E+00  0.00000000000E+00  0.45593999997E+02  0.45594000000E+02  0.51100000000E-03 0.  1.
         11   -1    0    0    0    0 -0.00000000000E+00 -0.00000000000E+00 -0.45593999997E+02  0.45594000000E+02  0.51100000000E-03 0. -1.
    9900012    2    1    2    0    0  0.31177382840E+01 -0.14012621509E+02  0.12024545730E+02  0.72461987249E+02  0.70000543158E+02 0.  0.
         12    1    1    2    0    0 -0.31177382840E+01  0.14012621509E+02 -0.12024545730E+02  0.18726012751E+02  0.00000000000E+00 0. -1.
         11    1    3    3    0    0 -0.89042283574E+01  0.74990907662E+01 -0.23318444944E+02  0.26062837908E+02  0.51100000000E-03 0. -1.
        -11    1    3    3    0    0  0.57610853969E+01 -0.21725819345E+00  0.15520418545E+01  0.59704388659E+01  0.51100000000E-03 0.  1.
        -12    1    3    3    0    0  0.62608812445E+01 -0.21294454081E+02  0.33790948819E+02  0.40428710475E+02  0.00000000000E+00 0.  1.
</event>
<event>
 7    1  0.2932741E-013  0.7246159E+02  0.7816164E-02  0.1226708E+00
        -11   -1    0    0    0    0  0.00000000000E+00  0.00000000000E+00  0.45593999997E+02  0.45594000000E+02  0.51100000000E-03 0.  1.
         11   -1    0    0    0    0 -0.00000000000E+00 -0.00000000000E+00 -0.45593999997E+02  0.45594000000E+02  0.51100000000E-03 0. -1.
    9900012    2    1    2    0    0 -0.14706978433E+02  0.11053827387E+02 -0.34922960795E+01  0.72461589601E+02  0.70000025151E+02 0.  0.
         12    1    1    2    0    0  0.14706978433E+02 -0.11053827387E+02  0.34922960795E+01  0.18726410399E+02  0.00000000000E+00 0. -1.
         11    1    3    3    0    0 -0.49283377900E+01  0.32111800748E+01 -0.26797664951E+01  0.64638486658E+01  0.51100000000E-03 0. -1.
        -11    1    3    3    0    0 -0.43791086265E+00 -0.35570279694E+00  0.31434010571E+02  0.31439073002E+02  0.51100000000E-03 0.  1.
         12    1    3    3    0    0 -0.93407297801E+01  0.81983501087E+01 -0.32246540155E+02  0.34558667933E+02  0.00000000000E+00 0. -1.
</event>
<event>
 7    1  0.2932741E-013  0.7246158E+02  0.7816164E-02  0.1226708E+00
        -11   -1    0    0    0    0  0.00000000000E+00  0.00000000000E+00  0.45593999997E+02  0.45594000000E+02  0.51100000000E-03 0. -1.
         11   -1    0    0    0    0 -0.00000000000E+00 -0.00000000000E+00 -0.45593999997E+02  0.45594000000E+02  0.51100000000E-03 0.  1.
    9900012    2    1    2    0    0 -0.68658396973E+01  0.17401590925E+02 -0.85066376497E+00  0.72461581487E+02  0.70000014581E+02 0.  0.
         12    1    1    2    0    0  0.68658396973E+01 -0.17401590925E+02  0.85066376497E+00  0.18726418513E+02  0.00000000000E+00 0. -1.
         11    1    3    3    0    0  0.10105816170E+02 -0.41087915161E+00 -0.81882394775E+01  0.13013208987E+02  0.51100000000E-03 0. -1.
        -11    1    3    3    0    0 -0.25600990053E+00  0.24484102863E+02 -0.16539331902E+02  0.29548034353E+02  0.51100000000E-03 0.  1.
         12    1    3    3    0    0 -0.16715645966E+02 -0.66716327866E+01  0.23876907614E+02  0.29900338148E+02  0.00000000000E+00 0. -1.
</event>
<event>
 7    1  0.2932741E-013  0.7246157E+02  0.7816164E-02  0.1226708E+00
        -11   -1    0    0    0    0  0.00000000000E+00  0.00000000000E+00  0.45593999997E+02  0.45594000000E+02  0.51100000000E-03 0.  1.
         11   -1    0    0    0    0 -0.00000000000E+00 -0.00000000000E+00 -0.45593999997E+02  0.45594000000E+02  0.51100000000E-03 0. -1.
    9900012    2    1    2    0    0 -0.78358663538E+00  0.58101933257E+01  0.17785016676E+02  0.72461570211E+02  0.69999999891E+02 0.  0.
         12    1    1    2    0    0  0.78358663538E+00 -0.58101933257E+01 -0.17785016676E+02  0.18726429789E+02  0.00000000000E+00 0. -1.
         11    1    3    3    0    0 -0.49174785901E+01  0.16653309825E+02 -0.59565112595E+01  0.18357405875E+02  0.51100000000E-03 0. -1.
        -11    1    3    3    0    0  0.14213174914E+02  0.73813483133E+01 -0.65840018127E+01  0.17316111694E+02  0.51100000000E-03 0.  1.
        -12    1    3    3    0    0 -0.10079282960E+02 -0.18224464813E+02  0.30325529748E+02  0.36788052642E+02  0.00000000000E+00 0.  1.
</event>
<event>
 7    1  0.2932741E-013  0.7246159E+02  0.7816164E-02  0.1226708E+00
        -11   -1    0    0    0    0  0.00000000000E+00  0.00000000000E+00  0.45593999997E+02  0.45594000000E+02  0.51100000000E-03 0. -1.
         11   -1    0    0    0    0 -0.00000000000E+00 -0.00000000000E+00 -0.45593999997E+02  0.45594000000E+02  0.51100000000E-03 0.  1.
    9900012    2    1    2    0    0  0.24034698154E+01 -0.97280227191E+01  0.15819840515E+02  0.72461589583E+02  0.70000025127E+02 0.  0.
         12    1    1    2    0    0 -0.24034698154E+01  0.97280227191E+01 -0.15819840515E+02  0.18726410417E+02  0.00000000000E+00 0. -1.
         11    1    3    3    0    0  0.49967094414E+01 -0.51136495716E+01  0.24480773788E+02  0.25503427273E+02  0.51100000000E-03 0. -1.
        -11    1    3    3    0    0 -0.17072480235E+02 -0.18812260846E+02 -0.14862203554E+01  0.25447585164E+02  0.51100000000E-03 0.  1.
         12    1    3    3    0    0  0.14479240609E+02  0.14197887698E+02 -0.71747129166E+01  0.21510577145E+02  0.00000000000E+00 0. -1.
</event>
<event>
 7    1  0.2932741E-013  0.7246149E+02  0.7816164E-02  0.1226708E+00
        -11   -1    0    0    0    0  0.00000000000E+00  0.00000000000E+00  0.45593999997E+02  0.45594000000E+02  0.51100000000E-03 0.  1.
         11   -1    0    0    0    0 -0.00000000000E+00 -0.00000000000E+00 -0.45593999997E+02  0.45594000000E+02  0.51100000000E-03 0. -1.
    9900012    2    1    2    0    0  0.33748767859E+01 -0.57407252754E+01  0.17502472282E+02  0.72461487885E+02  0.69999892646E+02 0.  0.
         12    1    1    2    0    0 -0.33748767859E+01  0.57407252754E+01 -0.17502472282E+02  0.18726512115E+02  0.00000000000E+00 0. -1.
         11    1    3    3    0    0 -0.25817984955E+02  0.14994094922E+02  0.19102111021E+02  0.35444066857E+02  0.51100000000E-03 0.  1.
        -11    1    3    3    0    0  0.14482502309E+02 -0.15719812680E+02  0.17352635177E+00  0.21374880011E+02  0.51100000000E-03 0. -1.
        -12    1    3    3    0    0  0.14710359432E+02 -0.50150075181E+01 -0.17731650898E+01  0.15642541017E+02  0.00000000000E+00 0.  1.
</event>
<event>
 7    1  0.2932741E-013  0.7246158E+02  0.7816164E-02  0.1226708E+00
        -11   -1    0    0    0    0  0.00000000000E+00  0.00000000000E+00  0.45593999997E+02  0.45594000000E+02  0.51100000000E-03 0.  1.
         11   -1    0    0    0    0 -0.00000000000E+00 -0.00000000000E+00 -0.45593999997E+02  0.45594000000E+02  0.51100000000E-03 0. -1.
    9900012    2    1    2    0    0  0.51974918858E+01 -0.62232683000E+00  0.17979920853E+02  0.72461581056E+02  0.70000014019E+02 0.  0.
         12    1    1    2    0    0 -0.51974918858E+01  0.62232683000E+00 -0.17979920853E+02  0.18726418944E+02  0.00000000000E+00 0. -1.
         11    1    3    3    0    0 -0.11282269231E+02  0.60701843214E+01 -0.15461683658E+02  0.20079850560E+02  0.51100000000E-03 0. -1.
        -11    1    3    3    0    0 -0.94068878841E+01 -0.79497633340E+01  0.19196381823E+02  0.22807659943E+02  0.51100000000E-03 0.  1.
        -12    1    3    3    0    0  0.25886649001E+02  0.12572521827E+01  0.14245222688E+02  0.29574070552E+02  0.00000000000E+00 0.  1.
</event>
<event>
 7    1  0.2932741E-013  0.7246155E+02  0.7816164E-02  0.1226708E+00
        -11   -1    0    0    0    0  0.00000000000E+00  0.00000000000E+00  0.45593999997E+02  0.45594000000E+02  0.51100000000E-03 0.  1.
         11   -1    0    0    0    0 -0.00000000000E+00 -0.00000000000E+00 -0.45593999997E+02  0.45594000000E+02  0.51100000000E-03 0. -1.
    9900012    2    1    2    0    0 -0.40314819684E+00 -0.17734164982E+02  0.60013966014E+01  0.72461550864E+02  0.69999974688E+02 0.  0.
         12    1    1    2    0    0  0.40314819684E+00  0.17734164982E+02 -0.60013966014E+01  0.18726449136E+02  0.00000000000E+00 0. -1.
         11    1    3    3    0    0 -0.47548747347E+01  0.99942746238E+01  0.79657570748E+01  0.13636262136E+02  0.51100000000E-03 0. -1.
        -11    1    3    3    0    0  0.97448358312E+01 -0.12710184859E+02  0.23700205250E+02  0.28604376478E+02  0.51100000000E-03 0.  1.
        -12    1    3    3    0    0 -0.53931092933E+01 -0.15018254747E+02 -0.25664565723E+02  0.30220912250E+02  0.00000000000E+00 0.  1.
</event>
<event>
 7    1  0.2932741E-013  0.7246164E+02  0.7816164E-02  0.1226708E+00
        -11   -1    0    0    0    0  0.00000000000E+00  0.00000000000E+00  0.45593999997E+02  0.45594000000E+02  0.51100000000E-03 0.  1.
         11   -1    0    0    0    0 -0.00000000000E+00 -0.00000000000E+00 -0.45593999997E+02  0.45594000000E+02  0.51100000000E-03 0. -1.
    9900012    2    1    2    0    0 -0.23060000204E+01  0.18507976949E+02 -0.16773885916E+01  0.72461642123E+02  0.70000093570E+02 0.  0.
         12    1    1    2    0    0  0.23060000204E+01 -0.18507976949E+02  0.16773885916E+01  0.18726357877E+02  0.00000000000E+00 0. -1.
         11    1    3    3    0    0  0.94288490262E+01 -0.43954937175E+00 -0.20414254530E+02  0.22490846714E+02  0.51100000000E-03 0. -1.
        -11    1    3    3    0    0  0.14779395510E+02  0.10542395286E+02  0.44048040391E+01  0.18680870667E+02  0.51100000000E-03 0.  1.
        -12    1    3    3    0    0 -0.26514244556E+02  0.84051310346E+01  0.14332061900E+02  0.31289924742E+02  0.00000000000E+00 0.  1.
</event>
<event>
 7    1  0.2932741E-013  0.7246155E+02  0.7816164E-02  0.1226708E+00
        -11   -1    0    0    0    0  0.00000000000E+00  0.00000000000E+00  0.45593999997E+02  0.45594000000E+02  0.51100000000E-03 0.  1.
         11   -1    0    0    0    0 -0.00000000000E+00 -0.00000000000E+00 -0.45593999997E+02  0.45594000000E+02  0.51100000000E-03 0. -1.
    9900012    2    1    2    0    0  0.10452487624E+02 -0.10483155565E+02  0.11468598626E+02  0.72461553392E+02  0.69999977981E+02 0.  0.
         12    1    1    2    0    0 -0.10452487624E+02  0.10483155565E+02 -0.11468598626E+02  0.18726446608E+02  0.00000000000E+00 0. -1.
         11    1    3    3    0    0  0.93928134789E+01  0.99400863082E+01  0.25730461357E+01  0.13915848071E+02  0.51100000000E-03 0. -1.
        -11    1    3    3    0    0  0.19787510028E+02  0.94510345475E+01  0.77834440937E+01  0.23269069800E+02  0.51100000000E-03 0.  1.
         12    1    3    3    0    0 -0.18727835884E+02 -0.29874276421E+02  0.11121083964E+01  0.35276635521E+02  0.00000000000E+00 0. -1.
</event>
<event>
 7    1  0.2932741E-013  0.7246160E+02  0.7816164E-02  0.1226708E+00
        -11   -1    0    0    0    0  0.00000000000E+00  0.00000000000E+00  0.45593999997E+02  0.45594000000E+02  0.51100000000E-03 0.  1.
         11   -1    0    0    0    0 -0.00000000000E+00 -0.00000000000E+00 -0.45593999997E+02  0.45594000000E+02  0.51100000000E-03 0. -1.
    9900012    2    1    2    0    0  0.17277765237E+02 -0.12210538117E+01  0.71180104147E+01  0.72461595746E+02  0.70000033156E+02 0.  0.
         12    1    1    2    0    0 -0.17277765237E+02  0.12210538117E+01 -0.71180104147E+01  0.18726404254E+02  0.00000000000E+00 0. -1.
         11    1    3    3    0    0  0.18547627913E+02  0.92561879806E+01  0.82432861273E+01  0.22307919750E+02  0.51100000000E-03 0. -1.
        -11    1    3    3    0    0 -0.48168118118E+01 -0.15962998236E+02  0.21154644350E+02  0.26935811971E+02  0.51100000000E-03 0.  1.
         12    1    3    3    0    0  0.35469491363E+01  0.54857564437E+01 -0.22279920062E+02  0.23217864026E+02  0.00000000000E+00 0. -1.
</event>
<event>
 7    1  0.2932741E-013  0.7246158E+02  0.7816164E-02  0.1226708E+00
        -11   -1    0    0    0    0  0.00000000000E+00  0.00000000000E+00  0.45593999997E+02  0.45594000000E+02  0.51100000000E-03 0. -1.
         11   -1    0    0    0    0 -0.00000000000E+00 -0.00000000000E+00 -0.45593999997E+02  0.45594000000E+02  0.51100000000E-03 0.  1.
    9900012    2    1    2    0    0  0.92150245430E+01 -0.12005803068E+02 -0.11028273364E+02  0.72461580213E+02  0.70000012921E+02 0.  0.
         12    1    1    2    0    0 -0.92150245430E+01  0.12005803068E+02  0.11028273364E+02  0.18726419787E+02  0.00000000000E+00 0. -1.
         11    1    3    3    0    0  0.11510125732E+02 -0.27169152990E+02 -0.10360986034E+02  0.31272925997E+02  0.51100000000E-03 0. -1.
        -11    1    3    3    0    0  0.83893661153E+01 -0.21467975046E+01 -0.14288130903E+02  0.16707509938E+02  0.51100000000E-03 0.  1.
         12    1    3    3    0    0 -0.10684467304E+02  0.17310147427E+02  0.13620843574E+02  0.24481144278E+02  0.00000000000E+00 0. -1.
</event>
<event>
 7    1  0.2932741E-013  0.7246153E+02  0.7816164E-02  0.1226708E+00
        -11   -1    0    0    0    0  0.00000000000E+00  0.00000000000E+00  0.45593999997E+02  0.45594000000E+02  0.51100000000E-03 0.  1.
         11   -1    0    0    0    0 -0.00000000000E+00 -0.00000000000E+00 -0.45593999997E+02  0.45594000000E+02  0.51100000000E-03 0. -1.
    9900012    2    1    2    0    0 -0.17602663675E+02 -0.61916550426E+01  0.15781296498E+01  0.72461525324E+02  0.69999941417E+02 0.  0.
         12    1    1    2    0    0  0.17602663675E+02  0.61916550426E+01 -0.15781296498E+01  0.18726474676E+02  0.00000000000E+00 0. -1.
         11    1    3    3    0    0 -0.49574410437E+01  0.50056041711E+01 -0.17937945729E+01  0.72698001382E+01  0.51100000000E-03 0. -1.
        -11    1    3    3    0    0 -0.14216857980E+02  0.24671433127E+02  0.63210684624E+01  0.29167697375E+02  0.51100000000E-03 0.  1.
         12    1    3    3    0    0  0.15716353491E+01 -0.35868692341E+02 -0.29491442396E+01  0.36024027810E+02  0.00000000000E+00 0. -1.
</event>
<event>
 7    1  0.2932741E-013  0.7246152E+02  0.7816164E-02  0.1226708E+00
        -11   -1    0    0    0    0  0.00000000000E+00  0.00000000000E+00  0.45593999997E+02  0.45594000000E+02  0.51100000000E-03 0. -1.
         11   -1    0    0    0    0 -0.00000000000E+00 -0.00000000000E+00 -0.45593999997E+02  0.45594000000E+02  0.51100000000E-03 0.  1.
    9900012    2    1    2    0    0  0.53741535399E+01  0.13514375074E+01 -0.17887788273E+02  0.72461524653E+02  0.69999940544E+02 0.  0.
         12    1    1    2    0    0 -0.53741535399E+01 -0.13514375074E+01  0.17887788273E+02  0.18726475347E+02  0.00000000000E+00 0. -1.
         11    1    3    3    0    0  0.25329770130E+02 -0.15788615117E+02 -0.38996640194E+00  0.29850120539E+02  0.51100000000E-03 0. -1.
        -11    1    3    3    0    0  0.34914448577E+01  0.44376546672E+01 -0.14761558030E+02  0.15804637353E+02  0.51100000000E-03 0.  1.
        -12    1    3    3    0    0 -0.23447061447E+02  0.12702397957E+02 -0.27362638413E+01  0.26806766761E+02  0.00000000000E+00 0.  1.
</event>
<event>
 7    1  0.2932741E-013  0.7246156E+02  0.7816164E-02  0.1226708E+00
        -11   -1    0    0    0    0  0.00000000000E+00  0.00000000000E+00  0.45593999997E+02  0.45594000000E+02  0.51100000000E-03 0.  1.
         11   -1    0    0    0    0 -0.00000000000E+00 -0.00000000000E+00 -0.45593999997E+02  0.45594000000E+02  0.51100000000E-03 0. -1.
    9900012    2    1    2    0    0  0.11146685384E+02  0.81840584404E+01  0.12627435040E+02  0.72461560848E+02  0.69999987695E+02 0.  0.
         12    1    1    2    0    0 -0.11146685384E+02 -0.81840584404E+01 -0.12627435040E+02  0.18726439152E+02  0.00000000000E+00 0. -1.
         11    1    3    3    0    0 -0.14499646251E+02 -0.13518257349E+02 -0.75208275128E+01  0.21202496785E+02  0.51100000000E-03 0. -1.
        -11    1    3    3    0    0 -0.90066578020E+00 -0.44890551928E+01 -0.46092295526E+01  0.64967540126E+01  0.51100000000E-03 0.  1.
        -12    1    3    3    0    0  0.26546997416E+02  0.26191370982E+02  0.24757492106E+02  0.44762310051E+02  0.00000000000E+00 0.  1.
</event>
<event>
 7    1  0.2932741E-013  0.7246154E+02  0.7816164E-02  0.1226708E+00
        -11   -1    0    0    0    0  0.00000000000E+00  0.00000000000E+00  0.45593999997E+02  0.45594000000E+02  0.51100000000E-03 0. -1.
         11   -1    0    0    0    0 -0.00000000000E+00 -0.00000000000E+00 -0.45593999997E+02  0.45594000000E+02  0.51100000000E-03 0.  1.
    9900012    2    1    2    0    0  0.11278995265E+02  0.99002831625E+01 -0.11200394979E+02  0.72461543086E+02  0.69999964555E+02 0.  0.
         12    1    1    2    0    0 -0.11278995265E+02 -0.99002831625E+01  0.11200394979E+02  0.18726456914E+02  0.00000000000E+00 0. -1.
         11    1    3    3    0    0  0.17700969676E+02  0.85141229125E+01  0.20158415948E+02  0.28145627551E+02  0.51100000000E-03 0. -1.
        -11    1    3    3    0    0 -0.15094635073E+02  0.19992290315E+01 -0.41937323837E+01  0.15793426363E+02  0.51100000000E-03 0.  1.
        -12    1    3    3    0    0  0.86726606627E+01 -0.61306878147E+00 -0.27165078543E+02  0.28522489172E+02  0.00000000000E+00 0.  1.
</event>
<event>
 7    1  0.2932741E-013  0.7246155E+02  0.7816164E-02  0.1226708E+00
        -11   -1    0    0    0    0  0.00000000000E+00  0.00000000000E+00  0.45593999997E+02  0.45594000000E+02  0.51100000000E-03 0.  1.
         11   -1    0    0    0    0 -0.00000000000E+00 -0.00000000000E+00 -0.45593999997E+02  0.45594000000E+02  0.51100000000E-03 0. -1.
    9900012    2    1    2    0    0 -0.96298380801E+01  0.13608512719E+02  0.85296343806E+01  0.72461546451E+02  0.69999968939E+02 0.  0.
         12    1    1    2    0    0  0.96298380801E+01 -0.13608512719E+02 -0.85296343806E+01  0.18726453549E+02  0.00000000000E+00 0. -1.
         11    1    3    3    0    0 -0.29883462364E+01  0.24695689816E+01  0.14776389748E+01  0.41487831210E+01  0.51100000000E-03 0. -1.
        -11    1    3    3    0    0  0.37397887524E+01  0.98011689962E+01  0.36017459965E+02  0.37514082105E+02  0.51100000000E-03 0.  1.
         12    1    3    3    0    0 -0.10381280596E+02  0.13377747409E+01 -0.28965464559E+02  0.30798681225E+02  0.00000000000E+00 0. -1.
</event>
<event>
 7    1  0.2932741E-013  0.7246163E+02  0.7816164E-02  0.1226708E+00
        -11   -1    0    0    0    0  0.00000000000E+00  0.00000000000E+00  0.45593999997E+02  0.45594000000E+02  0.51100000000E-03 0.  1.
         11   -1    0    0    0    0 -0.00000000000E+00 -0.00000000000E+00 -0.45593999997E+02  0.45594000000E+02  0.51100000000E-03 0. -1.
    9900012    2    1    2    0    0 -0.98653666151E+01 -0.86160464829E+01  0.13383392538E+02  0.72461630590E+02  0.70000078547E+02 0.  0.
         12    1    1    2    0    0  0.98653666151E+01  0.86160464829E+01 -0.13383392538E+02  0.18726369410E+02  0.00000000000E+00 0. -1.
         11    1    3    3    0    0 -0.22402600510E+02  0.22342747687E+02 -0.10336076262E+01  0.31656645887E+02  0.51100000000E-03 0. -1.
        -11    1    3    3    0    0 -0.25791934374E+01 -0.56328935167E+00 -0.17880729687E+01  0.31885324028E+01  0.51100000000E-03 0.  1.
        -12    1    3    3    0    0  0.15116427333E+02 -0.30395504818E+02  0.16205073132E+02  0.37616452301E+02  0.00000000000E+00 0.  1.
</event>
<event>
 7    1  0.2932741E-013  0.7246165E+02  0.7816164E-02  0.1226708E+00
        -11   -1    0    0    0    0  0.00000000000E+00  0.00000000000E+00  0.45593999997E+02  0.45594000000E+02  0.51100000000E-03 0.  1.
         11   -1    0    0    0    0 -0.00000000000E+00 -0.00000000000E+00 -0.45593999997E+02  0.45594000000E+02  0.51100000000E-03 0. -1.
    9900012    2    1    2    0    0  0.98735066428E+00 -0.49421968124E+01  0.18035413298E+02  0.72461646818E+02  0.70000099686E+02 0.  0.
         12    1    1    2    0    0 -0.98735066428E+00  0.49421968124E+01 -0.18035413298E+02  0.18726353182E+02  0.00000000000E+00 0. -1.
         11    1    3    3    0    0  0.82118399097E+01 -0.11467116138E+02 -0.67533134016E+01  0.15637656774E+02  0.51100000000E-03 0. -1.
        -11    1    3    3    0    0  0.22847722378E+01 -0.20334287445E+02  0.18630840646E+02  0.27673302179E+02  0.51100000000E-03 0.  1.
        -12    1    3    3    0    0 -0.95092614832E+01  0.26859206771E+02  0.61578860543E+01  0.29150687864E+02  0.00000000000E+00 0.  1.
</event>
<event>
 7    1  0.2932741E-013  0.7246147E+02  0.7816164E-02  0.1226708E+00
        -11   -1    0    0    0    0  0.00000000000E+00  0.00000000000E+00  0.45593999997E+02  0.45594000000E+02  0.51100000000E-03 0.  1.
         11   -1    0    0    0    0 -0.00000000000E+00 -0.00000000000E+00 -0.45593999997E+02  0.45594000000E+02  0.51100000000E-03 0. -1.
    9900012    2    1    2    0    0 -0.12366828949E+02  0.11464552150E+02  0.81430085096E+01  0.72461467971E+02  0.69999866704E+02 0.  0.
         12    1    1    2    0    0  0.12366828949E+02 -0.11464552150E+02 -0.81430085096E+01  0.18726532029E+02  0.00000000000E+00 0. -1.
         11    1    3    3    0    0  0.28875094264E+01 -0.25824302551E+01 -0.78383719616E+00  0.39523483806E+01  0.51100000000E-03 0. -1.
        -11    1    3    3    0    0  0.76472539657E+01 -0.20160917958E+02 -0.93070010883E+01  0.23485386427E+02  0.51100000000E-03 0.  1.
        -12    1    3    3    0    0 -0.22901592341E+02  0.34207900363E+02  0.18233846794E+02  0.45023733163E+02  0.00000000000E+00 0.  1.
</event>
<event>
 7    1  0.2932741E-013  0.7246156E+02  0.7816164E-02  0.1226708E+00
        -11   -1    0    0    0    0  0.00000000000E+00  0.00000000000E+00  0.45593999997E+02  0.45594000000E+02  0.51100000000E-03 0. -1.
         11   -1    0    0    0    0 -0.00000000000E+00 -0.00000000000E+00 -0.45593999997E+02  0.45594000000E+02  0.51100000000E-03 0.  1.
    9900012    2    1    2    0    0 -0.17742278180E+02 -0.12560096293E+01  0.58577824206E+01  0.72461558531E+02  0.69999984676E+02 0.  0.
         12    1    1    2    0    0  0.17742278180E+02  0.12560096293E+01 -0.58577824206E+01  0.18726441469E+02  0.00000000000E+00 0. -1.
         11    1    3    3    0    0 -0.29240195310E+02 -0.68611451579E+01 -0.92978150534E+01  0.31440637711E+02  0.51100000000E-03 0. -1.
        -11    1    3    3    0    0 -0.64549326960E+01  0.12162480107E+02 -0.36110779827E+01  0.14234885420E+02  0.51100000000E-03 0.  1.
        -12    1    3    3    0    0  0.17952849826E+02 -0.65573445781E+01  0.18766675457E+02  0.26786035400E+02  0.00000000000E+00 0.  1.
</event>
<event>
 7    1  0.2932741E-013  0.7246154E+02  0.7816164E-02  0.1226708E+00
        -11   -1    0    0    0    0  0.00000000000E+00  0.00000000000E+00  0.45593999997E+02  0.45594000000E+02  0.51100000000E-03 0.  1.
         11   -1    0    0    0    0 -0.00000000000E+00 -0.00000000000E+00 -0.45593999997E+02  0.45594000000E+02  0.51100000000E-03 0. -1.
    9900012    2    1    2    0    0  0.32380156235E+01 -0.13485349435E+02  0.12583356409E+02  0.72461541363E+02  0.69999962312E+02 0.  0.
         12    1    1    2    0    0 -0.32380156235E+01  0.13485349435E+02 -0.12583356409E+02  0.18726458637E+02  0.00000000000E+00 0. -1.
         11    1    3    3    0    0 -0.73173584462E+00  0.13818129586E+02 -0.98008201299E+01  0.16956774991E+02  0.51100000000E-03 0.  1.
        -11    1    3    3    0    0  0.29066387784E+01 -0.22890672684E+02 -0.82734952103E+01  0.24512897996E+02  0.51100000000E-03 0. -1.
        -12    1    3    3    0    0  0.10631126898E+01 -0.44128063365E+01  0.30657671749E+02  0.30991868376E+02  0.00000000000E+00 0.  1.
</event>
<event>
 7    1  0.2932741E-013  0.7246162E+02  0.7816164E-02  0.1226708E+00
        -11   -1    0    0    0    0  0.00000000000E+00  0.00000000000E+00  0.45593999997E+02  0.45594000000E+02  0.51100000000E-03 0. -1.
         11   -1    0    0    0    0 -0.00000000000E+00 -0.00000000000E+00 -0.45593999997E+02  0.45594000000E+02  0.51100000000E-03 0.  1.
    9900012    2    1    2    0    0  0.29898580756E+01 -0.53079229073E+01 -0.17707735063E+02  0.72461623469E+02  0.70000069270E+02 0.  0.
         12    1    1    2    0    0 -0.29898580756E+01  0.53079229073E+01  0.17707735063E+02  0.18726376531E+02  0.00000000000E+00 0. -1.
         11    1    3    3    0    0 -0.24584249758E+01 -0.89742161604E+01  0.27414442785E+01  0.97003054616E+01  0.51100000000E-03 0. -1.
        -11    1    3    3    0    0 -0.20905007388E+02 -0.14334258848E+02 -0.17307914040E+02  0.30692901448E+02  0.51100000000E-03 0.  1.
         12    1    3    3    0    0  0.26353290439E+02  0.18000552101E+02 -0.31412653022E+01  0.32068416560E+02  0.00000000000E+00 0. -1.
</event>
<event>
 7    1  0.2932741E-013  0.7246157E+02  0.7816164E-02  0.1226708E+00
        -11   -1    0    0    0    0  0.00000000000E+00  0.00000000000E+00  0.45593999997E+02  0.45594000000E+02  0.51100000000E-03 0.  1.
         11   -1    0    0    0    0 -0.00000000000E+00 -0.00000000000E+00 -0.45593999997E+02  0.45594000000E+02  0.51100000000E-03 0. -1.
    9900012    2    1    2    0    0  0.19890262923E+01  0.16966834250E+02  0.76713449524E+01  0.72461568854E+02  0.69999998124E+02 0.  0.
         12    1    1    2    0    0 -0.19890262923E+01 -0.16966834250E+02 -0.76713449524E+01  0.18726431146E+02  0.00000000000E+00 0. -1.
         11    1    3    3    0    0 -0.17401814989E+02  0.29842146726E+02  0.63984804761E+01  0.35132854122E+02  0.51100000000E-03 0. -1.
        -11    1    3    3    0    0  0.10846952068E+01 -0.13948254938E+02  0.98243058825E+01  0.17095243954E+02  0.51100000000E-03 0.  1.
        -12    1    3    3    0    0  0.18306146074E+02  0.10729424621E+01 -0.85514414062E+01  0.20233470778E+02  0.00000000000E+00 0.  1.
</event>
<event>
 7    1  0.2932741E-013  0.7246161E+02  0.7816164E-02  0.1226708E+00
        -11   -1    0    0    0    0  0.00000000000E+00  0.00000000000E+00  0.45593999997E+02  0.45594000000E+02  0.51100000000E-03 0. -1.
         11   -1    0    0    0    0 -0.00000000000E+00 -0.00000000000E+00 -0.45593999997E+02  0.45594000000E+02  0.51100000000E-03 0.  1.
    9900012    2    1    2    0    0 -0.16881161042E+02  0.25672264869E+00 -0.81017467411E+01  0.72461606730E+02  0.70000047464E+02 0.  0.
         12    1    1    2    0    0  0.16881161042E+02 -0.25672264869E+00  0.81017467411E+01  0.18726393270E+02  0.00000000000E+00 0. -1.
         11    1    3    3    0    0  0.15062143317E+02  0.16639408037E+02 -0.12403287659E+02  0.25643315038E+02  0.51100000000E-03 0. -1.
        -11    1    3    3    0    0  0.14491871305E+01  0.60587811266E+01  0.19038663401E+01  0.65141138600E+01  0.51100000000E-03 0.  1.
        -12    1    3    3    0    0 -0.33392491490E+02 -0.22441466515E+02  0.23976745781E+01  0.40304177831E+02  0.00000000000E+00 0.  1.
</event>
<event>
 7    1  0.2932741E-013  0.7246156E+02  0.7816164E-02  0.1226708E+00
        -11   -1    0    0    0    0  0.00000000000E+00  0.00000000000E+00  0.45593999997E+02  0.45594000000E+02  0.51100000000E-03 0. -1.
         11   -1    0    0    0    0 -0.00000000000E+00 -0.00000000000E+00 -0.45593999997E+02  0.45594000000E+02  0.51100000000E-03 0.  1.
    9900012    2    1    2    0    0  0.16721691453E+02 -0.73999905761E+01 -0.40379128745E+01  0.72461559710E+02  0.69999986211E+02 0.  0.
         12    1    1    2    0    0 -0.16721691453E+02  0.73999905761E+01  0.40379128745E+01  0.18726440290E+02  0.00000000000E+00 0. -1.
         11    1    3    3    0    0  0.19367141179E-01  0.16625972860E+02  0.19780567192E+02  0.25839779166E+02  0.51100000000E-03 0. -1.
        -11    1    3    3    0    0 -0.60608492229E+01 -0.97572895234E+01 -0.13785955074E+02  0.17944111839E+02  0.51100000000E-03 0.  1.
        -12    1    3    3    0    0  0.22763173535E+02 -0.14268673913E+02 -0.10032524993E+02  0.28677668704E+02  0.00000000000E+00 0.  1.
</event>
<event>
 7    1  0.2932741E-013  0.7246159E+02  0.7816164E-02  0.1226708E+00
        -11   -1    0    0    0    0  0.00000000000E+00  0.00000000000E+00  0.45593999997E+02  0.45594000000E+02  0.51100000000E-03 0.  1.
         11   -1    0    0    0    0 -0.00000000000E+00 -0.00000000000E+00 -0.45593999997E+02  0.45594000000E+02  0.51100000000E-03 0. -1.
    9900012    2    1    2    0    0 -0.16133839746E+02 -0.94191836823E+01 -0.12870506045E+01  0.72461593365E+02  0.70000030054E+02 0.  0.
         12    1    1    2    0    0  0.16133839746E+02  0.94191836823E+01  0.12870506045E+01  0.18726406635E+02  0.00000000000E+00 0. -1.
         11    1    3    3    0    0 -0.12874181831E+02  0.25822614662E+02  0.33650907839E+01  0.29049540823E+02  0.51100000000E-03 0. -1.
        -11    1    3    3    0    0  0.30252233229E+01 -0.67035576664E+01 -0.11262935909E+02  0.13451519881E+02  0.51100000000E-03 0.  1.
        -12    1    3    3    0    0 -0.62848812382E+01 -0.28538240678E+02  0.66107945210E+01  0.29960532662E+02  0.00000000000E+00 0.  1.
</event>
<event>
 7    1  0.3574005E-013  0.7246160E+02  0.7816164E-02  0.1226708E+00
        -11   -1    0    0    0    0  0.00000000000E+00  0.00000000000E+00  0.45593999997E+02  0.45594000000E+02  0.51100000000E-03 0. -1.
         11   -1    0    0    0    0 -0.00000000000E+00 -0.00000000000E+00 -0.45593999997E+02  0.45594000000E+02  0.51100000000E-03 0.  1.
    9900012    2    1    2    0    0  0.13933653897E+02 -0.72077185299E+01 -0.10226452183E+02  0.72461595071E+02  0.70000032276E+02 0.  0.
         12    1    1    2    0    0 -0.13933653897E+02  0.72077185299E+01  0.10226452183E+02  0.18726404929E+02  0.00000000000E+00 0. -1.
         11    1    3    3    0    0 -0.43146129306E+01  0.69784018519E+01  0.16730971626E+02  0.18634360439E+02  0.51100000000E-03 0. -1.
        -11    1    3    3    0    0 -0.84199273751E+01 -0.66242766659E+00  0.51982417242E+01  0.99174444642E+01  0.51100000000E-03 0.  1.
        -12    1    3    3    0    0  0.26668194203E+02 -0.13523692715E+02 -0.32155665533E+02  0.43909790168E+02  0.00000000000E+00 0.  1.
</event>
<event>
 7    1  0.2932741E-013  0.7246154E+02  0.7816164E-02  0.1226708E+00
        -11   -1    0    0    0    0  0.00000000000E+00  0.00000000000E+00  0.45593999997E+02  0.45594000000E+02  0.51100000000E-03 0.  1.
         11   -1    0    0    0    0 -0.00000000000E+00 -0.00000000000E+00 -0.45593999997E+02  0.45594000000E+02  0.51100000000E-03 0. -1.
    9900012    2    1    2    0    0 -0.82091357731E+01 -0.30909075603E+01  0.16544995306E+02  0.72461535055E+02  0.69999954094E+02 0.  0.
         12    1    1    2    0    0  0.82091357731E+01  0.30909075603E+01 -0.16544995306E+02  0.18726464945E+02  0.00000000000E+00 0. -1.
         11    1    3    3    0    0 -0.19712619210E+02 -0.73260427768E+01 -0.43585695765E+01  0.21476857030E+02  0.51100000000E-03 0. -1.
        -11    1    3    3    0    0 -0.10377300555E+02  0.13148158464E+02 -0.33978655193E+01  0.17091165208E+02  0.51100000000E-03 0.  1.
        -12    1    3    3    0    0  0.21880783992E+02 -0.89130232478E+01  0.24301430401E+02  0.33893512817E+02  0.00000000000E+00 0.  1.
</event>
<event>
 7    1  0.2932741E-013  0.7246156E+02  0.7816164E-02  0.1226708E+00
        -11   -1    0    0    0    0  0.00000000000E+00  0.00000000000E+00  0.45593999997E+02  0.45594000000E+02  0.51100000000E-03 0.  1.
         11   -1    0    0    0    0 -0.00000000000E+00 -0.00000000000E+00 -0.45593999997E+02  0.45594000000E+02  0.51100000000E-03 0. -1.
    9900012    2    1    2    0    0  0.12281111988E+02  0.79812081986E+01  0.11668513380E+02  0.72461558788E+02  0.69999985011E+02 0.  0.
         12    1    1    2    0    0 -0.12281111988E+02 -0.79812081986E+01 -0.11668513380E+02  0.18726441212E+02  0.00000000000E+00 0. -1.
         11    1    3    3    0    0  0.77292655753E+01 -0.10772661583E+02 -0.62142888396E+01  0.14642717301E+02  0.51100000000E-03 0. -1.
        -11    1    3    3    0    0 -0.10521116920E+02 -0.11823762403E+02  0.17677475647E+02  0.23727376680E+02  0.51100000000E-03 0.  1.
         12    1    3    3    0    0  0.15072963332E+02  0.30577632185E+02  0.20532657213E+00  0.34091464807E+02  0.00000000000E+00 0. -1.
</event>
<event>
 7    1  0.2932741E-013  0.7246159E+02  0.7816164E-02  0.1226708E+00
        -11   -1    0    0    0    0  0.00000000000E+00  0.00000000000E+00  0.45593999997E+02  0.45594000000E+02  0.51100000000E-03 0.  1.
         11   -1    0    0    0    0 -0.00000000000E+00 -0.00000000000E+00 -0.45593999997E+02  0.45594000000E+02  0.51100000000E-03 0. -1.
    9900012    2    1    2    0    0 -0.78078868394E+01  0.47825671516E+01  0.16335311388E+02  0.72461589677E+02  0.70000025249E+02 0.  0.
         12    1    1    2    0    0  0.78078868394E+01 -0.47825671516E+01 -0.16335311388E+02  0.18726410323E+02  0.00000000000E+00 0. -1.
         11    1    3    3    0    0 -0.14083700983E+02  0.11265749069E-01 -0.21408770216E+02  0.25625889306E+02  0.51100000000E-03 0. -1.
        -11    1    3    3    0    0  0.82445640960E+00  0.91690799653E+01  0.80807613300E+00  0.92414686647E+01  0.51100000000E-03 0.  1.
        -12    1    3    3    0    0  0.54513577341E+01 -0.43977785628E+01  0.36936005471E+02  0.37594231706E+02  0.00000000000E+00 0.  1.
</event>
<event>
 7    1  0.2932741E-013  0.7246168E+02  0.7816164E-02  0.1226708E+00
        -11   -1    0    0    0    0  0.00000000000E+00  0.00000000000E+00  0.45593999997E+02  0.45594000000E+02  0.51100000000E-03 0.  1.
         11   -1    0    0    0    0 -0.00000000000E+00 -0.00000000000E+00 -0.45593999997E+02  0.45594000000E+02  0.51100000000E-03 0. -1.
    9900012    2    1    2    0    0 -0.15919305316E+02 -0.94057743252E+00  0.98166320565E+01  0.72461675412E+02  0.70000136935E+02 0.  0.
         12    1    1    2    0    0  0.15919305316E+02  0.94057743252E+00 -0.98166320565E+01  0.18726324588E+02  0.00000000000E+00 0. -1.
         11    1    3    3    0    0 -0.14765613391E+02  0.54498654264E+00  0.12560695302E+01  0.14828960181E+02  0.51100000000E-03 0.  1.
        -11    1    3    3    0    0 -0.15171629079E+02 -0.24238343639E+02  0.11345682165E+02  0.30763617072E+02  0.51100000000E-03 0. -1.
         12    1    3    3    0    0  0.14017937154E+02  0.22752779664E+02 -0.27851196386E+01  0.26869098159E+02  0.00000000000E+00 0. -1.
</event>
<event>
 7    1  0.2932741E-013  0.7246160E+02  0.7816164E-02  0.1226708E+00
        -11   -1    0    0    0    0  0.00000000000E+00  0.00000000000E+00  0.45593999997E+02  0.45594000000E+02  0.51100000000E-03 0.  1.
         11   -1    0    0    0    0 -0.00000000000E+00 -0.00000000000E+00 -0.45593999997E+02  0.45594000000E+02  0.51100000000E-03 0. -1.
    9900012    2    1    2    0    0  0.13077006456E+02 -0.11163886151E+02  0.74187443992E+01  0.72461595638E+02  0.70000033015E+02 0.  0.
         12    1    1    2    0    0 -0.13077006456E+02  0.11163886151E+02 -0.74187443992E+01  0.18726404362E+02  0.00000000000E+00 0. -1.
         11    1    3    3    0    0 -0.67960778672E+00  0.91454930278E+01 -0.11848809194E+02  0.14983196890E+02  0.51100000000E-03 0. -1.
        -11    1    3    3    0    0  0.10907190873E+02 -0.30493695076E+02 -0.33024467259E+01  0.32553623559E+02  0.51100000000E-03 0.  1.
         12    1    3    3    0    0  0.28494233696E+01  0.10184315897E+02  0.22570000319E+02  0.24924775190E+02  0.00000000000E+00 0. -1.
</event>
<event>
 7    1  0.2932741E-013  0.7246166E+02  0.7816164E-02  0.1226708E+00
        -11   -1    0    0    0    0  0.00000000000E+00  0.00000000000E+00  0.45593999997E+02  0.45594000000E+02  0.51100000000E-03 0.  1.
         11   -1    0    0    0    0 -0.00000000000E+00 -0.00000000000E+00 -0.45593999997E+02  0.45594000000E+02  0.51100000000E-03 0. -1.
    9900012    2    1    2    0    0 -0.11886903965E+02  0.92201787426E+01  0.11151939704E+02  0.72461656495E+02  0.70000112292E+02 0.  0.
         12    1    1    2    0    0  0.11886903965E+02 -0.92201787426E+01 -0.11151939704E+02  0.18726343505E+02  0.00000000000E+00 0. -1.
         11    1    3    3    0    0 -0.17671892383E+02  0.41978183418E+01 -0.67522764714E+01  0.19378098386E+02  0.51100000000E-03 0. -1.
        -11    1    3    3    0    0 -0.52386366268E-01 -0.77160978582E+01  0.32172783313E+02  0.33085176391E+02  0.51100000000E-03 0.  1.
         12    1    3    3    0    0  0.58373747848E+01  0.12738458259E+02 -0.14268567137E+02  0.19998381718E+02  0.00000000000E+00 0. -1.
</event>
<event>
 7    1  0.2932741E-013  0.7246156E+02  0.7816164E-02  0.1226708E+00
        -11   -1    0    0    0    0  0.00000000000E+00  0.00000000000E+00  0.45593999997E+02  0.45594000000E+02  0.51100000000E-03 0.  1.
         11   -1    0    0    0    0 -0.00000000000E+00 -0.00000000000E+00 -0.45593999997E+02  0.45594000000E+02  0.51100000000E-03 0. -1.
    9900012    2    1    2    0    0 -0.90156580159E+01  0.14184932971E+02  0.82574203436E+01  0.72461564045E+02  0.69999991859E+02 0.  0.
         12    1    1    2    0    0  0.90156580159E+01 -0.14184932971E+02 -0.82574203436E+01  0.18726435955E+02  0.00000000000E+00 0. -1.
         11    1    3    3    0    0 -0.53039507020E+01  0.65421284536E+01 -0.18271495222E+02  0.20119117169E+02  0.51100000000E-03 0. -1.
        -11    1    3    3    0    0  0.14419074152E+02  0.18894028813E+02  0.13285382128E+02  0.27228576950E+02  0.51100000000E-03 0.  1.
        -12    1    3    3    0    0 -0.18130781465E+02 -0.11251224296E+02  0.13243533438E+02  0.25113869926E+02  0.00000000000E+00 0.  1.
</event>
<event>
 7    1  0.2932741E-013  0.7246164E+02  0.7816164E-02  0.1226708E+00
        -11   -1    0    0    0    0  0.00000000000E+00  0.00000000000E+00  0.45593999997E+02  0.45594000000E+02  0.51100000000E-03 0.  1.
         11   -1    0    0    0    0 -0.00000000000E+00 -0.00000000000E+00 -0.45593999997E+02  0.45594000000E+02  0.51100000000E-03 0. -1.
    9900012    2    1    2    0    0  0.17988373013E+02 -0.18847913759E+01  0.48520508331E+01  0.72461644255E+02  0.70000096348E+02 0.  0.
         12    1    1    2    0    0 -0.17988373013E+02  0.18847913759E+01 -0.48520508331E+01  0.18726355745E+02  0.00000000000E+00 0. -1.
         11    1    3    3    0    0 -0.13661475730E+02  0.14530264640E+02  0.11827455565E+02  0.23187350324E+02  0.51100000000E-03 0. -1.
        -11    1    3    3    0    0  0.30737170338E+01 -0.19101623192E+02  0.13347646388E+01  0.19393332407E+02  0.51100000000E-03 0.  1.
         12    1    3    3    0    0  0.28576131709E+02  0.26865671755E+01 -0.83101693703E+01  0.29880961524E+02  0.00000000000E+00 0. -1.
</event>
<event>
 7    1  0.2932741E-013  0.7246154E+02  0.7816164E-02  0.1226708E+00
        -11   -1    0    0    0    0  0.00000000000E+00  0.00000000000E+00  0.45593999997E+02  0.45594000000E+02  0.51100000000E-03 0.  1.
         11   -1    0    0    0    0 -0.00000000000E+00 -0.00000000000E+00 -0.45593999997E+02  0.45594000000E+02  0.51100000000E-03 0. -1.
    9900012    2    1    2    0    0  0.15274340366E+02 -0.50539693586E+01  0.95829049226E+01  0.72461544205E+02  0.69999966014E+02 0.  0.
         12    1    1    2    0    0 -0.15274340366E+02  0.50539693586E+01 -0.95829049226E+01  0.18726455795E+02  0.00000000000E+00 0. -1.
         11    1    3    3    0    0  0.32241085767E+02  0.99534591240E+01 -0.60891415853E+01  0.34287557589E+02  0.51100000000E-03 0. -1.
        -11    1    3    3    0    0  0.42750699907E+01 -0.43646378877E+01 -0.40215240209E+01  0.73142971657E+01  0.51100000000E-03 0.  1.
        -12    1    3    3    0    0 -0.21241815391E+02 -0.10642790595E+02  0.19693570529E+02  0.30859689450E+02  0.00000000000E+00 0.  1.
</event>
<event>
 7    1  0.2932741E-013  0.7246162E+02  0.7816164E-02  0.1226708E+00
        -11   -1    0    0    0    0  0.00000000000E+00  0.00000000000E+00  0.45593999997E+02  0.45594000000E+02  0.51100000000E-03 0. -1.
         11   -1    0    0    0    0 -0.00000000000E+00 -0.00000000000E+00 -0.45593999997E+02  0.45594000000E+02  0.51100000000E-03 0.  1.
    9900012    2    1    2    0    0 -0.15936358991E+02 -0.29293759105E+01 -0.93876704629E+01  0.72461624541E+02  0.70000070666E+02 0.  0.
         12    1    1    2    0    0  0.15936358991E+02  0.29293759105E+01  0.93876704629E+01  0.18726375459E+02  0.00000000000E+00 0. -1.
         11    1    3    3    0    0  0.42269607097E+01  0.16007023835E+02 -0.73532629452E+01  0.18115255591E+02  0.51100000000E-03 0. -1.
        -11    1    3    3    0    0 -0.22884272569E+01  0.10553180775E+02 -0.14146658699E+02  0.17797035607E+02  0.51100000000E-03 0.  1.
        -12    1    3    3    0    0 -0.17874892444E+02 -0.29489580521E+02  0.12112251182E+02  0.36549333343E+02  0.00000000000E+00 0.  1.
</event>
<event>
 7    1  0.2932741E-013  0.7246158E+02  0.7816164E-02  0.1226708E+00
        -11   -1    0    0    0    0  0.00000000000E+00  0.00000000000E+00  0.45593999997E+02  0.45594000000E+02  0.51100000000E-03 0. -1.
         11   -1    0    0    0    0 -0.00000000000E+00 -0.00000000000E+00 -0.45593999997E+02  0.45594000000E+02  0.51100000000E-03 0.  1.
    9900012    2    1    2    0    0  0.16976194706E+02 -0.36675059869E+01 -0.70026482525E+01  0.72461578308E+02  0.70000010439E+02 0.  0.
         12    1    1    2    0    0 -0.16976194706E+02  0.36675059869E+01  0.70026482525E+01  0.18726421692E+02  0.00000000000E+00 0. -1.
         11    1    3    3    0    0  0.36123967454E+01 -0.17782621826E+02  0.36637641956E+01  0.18512001988E+02  0.51100000000E-03 0. -1.
        -11    1    3    3    0    0  0.79727594187E+01 -0.18010065552E+02 -0.80259057986E+01  0.21268345448E+02  0.51100000000E-03 0.  1.
        -12    1    3    3    0    0  0.53910385417E+01  0.32125181391E+02 -0.26405066495E+01  0.32681230872E+02  0.00000000000E+00 0.  1.
</event>
<event>
 7    1  0.2932741E-013  0.7246158E+02  0.7816164E-02  0.1226708E+00
        -11   -1    0    0    0    0  0.00000000000E+00  0.00000000000E+00  0.45593999997E+02  0.45594000000E+02  0.51100000000E-03 0. -1.
         11   -1    0    0    0    0 -0.00000000000E+00 -0.00000000000E+00 -0.45593999997E+02  0.45594000000E+02  0.51100000000E-03 0.  1.
    9900012    2    1    2    0    0  0.15186005830E+02 -0.95303074878E+01 -0.54071382679E+01  0.72461583414E+02  0.70000017091E+02 0.  0.
         12    1    1    2    0    0 -0.15186005830E+02  0.95303074878E+01  0.54071382679E+01  0.18726416586E+02  0.00000000000E+00 0. -1.
         11    1    3    3    0    0  0.13325096401E+02  0.13598616239E+02 -0.21347398108E+02  0.28604055026E+02  0.51100000000E-03 0. -1.
        -11    1    3    3    0    0  0.93783381184E+01 -0.54882378924E+01 -0.77737970619E+01  0.13360610093E+02  0.51100000000E-03 0.  1.
        -12    1    3    3    0    0 -0.75174286886E+01 -0.17640685835E+02  0.23714056901E+02  0.30496918296E+02  0.00000000000E+00 0.  1.
</event>
<event>
 7    1  0.2983492E-013  0.7246147E+02  0.7816164E-02  0.1226708E+00
        -11   -1    0    0    0    0  0.00000000000E+00  0.00000000000E+00  0.45593999997E+02  0.45594000000E+02  0.51100000000E-03 0. -1.
         11   -1    0    0    0    0 -0.00000000000E+00 -0.00000000000E+00 -0.45593999997E+02  0.45594000000E+02  0.51100000000E-03 0.  1.
    9900012    2    1    2    0    0 -0.10306986859E+00  0.15921377011E+02 -0.98581007223E+01  0.72461467508E+02  0.69999866102E+02 0.  0.
         12    1    1    2    0    0  0.10306986859E+00 -0.15921377011E+02  0.98581007223E+01  0.18726532492E+02  0.00000000000E+00 0. -1.
         11    1    3    3    0    0 -0.17203181623E+02 -0.12156323114E+01  0.13509340161E+02  0.21907293117E+02  0.51100000000E-03 0. -1.
        -11    1    3    3    0    0  0.72301318488E+01 -0.10546272234E+02  0.34445940070E+00  0.12791298492E+02  0.51100000000E-03 0.  1.
        -12    1    3    3    0    0  0.98699799055E+01  0.27683281556E+02 -0.23711900284E+02  0.37762875899E+02  0.00000000000E+00 0.  1.
</event>
<event>
 7    1  0.2932741E-013  0.7246158E+02  0.7816164E-02  0.1226708E+00
        -11   -1    0    0    0    0  0.00000000000E+00  0.00000000000E+00  0.45593999997E+02  0.45594000000E+02  0.51100000000E-03 0. -1.
         11   -1    0    0    0    0 -0.00000000000E+00 -0.00000000000E+00 -0.45593999997E+02  0.45594000000E+02  0.51100000000E-03 0.  1.
    9900012    2    1    2    0    0  0.10834789487E+02 -0.67015841147E+00 -0.15259003347E+02  0.72461575925E+02  0.70000007334E+02 0.  0.
         12    1    1    2    0    0 -0.10834789487E+02  0.67015841147E+00  0.15259003347E+02  0.18726424075E+02  0.00000000000E+00 0. -1.
         11    1    3    3    0    0  0.31917879546E+02  0.42360606908E+01 -0.54502800498E+01  0.32655792714E+02  0.51100000000E-03 0. -1.
        -11    1    3    3    0    0 -0.13504726372E+02  0.10725960969E+02 -0.13673449523E+02  0.22008795860E+02  0.51100000000E-03 0.  1.
        -12    1    3    3    0    0 -0.75783636873E+01 -0.15632180071E+02  0.38647262267E+01  0.17796987351E+02  0.00000000000E+00 0.  1.
</event>
<event>
 7    1  0.2932741E-013  0.7246159E+02  0.7816164E-02  0.1226708E+00
        -11   -1    0    0    0    0  0.00000000000E+00  0.00000000000E+00  0.45593999997E+02  0.45594000000E+02  0.51100000000E-03 0.  1.
         11   -1    0    0    0    0 -0.00000000000E+00 -0.00000000000E+00 -0.45593999997E+02  0.45594000000E+02  0.51100000000E-03 0. -1.
    9900012    2    1    2    0    0  0.23024023408E+01  0.18498198247E+02  0.17871478605E+01  0.72461593714E+02  0.70000030508E+02 0.  0.
         12    1    1    2    0    0 -0.23024023408E+01 -0.18498198247E+02 -0.17871478605E+01  0.18726406286E+02  0.00000000000E+00 0. -1.
         11    1    3    3    0    0 -0.63032853885E+01  0.29267998164E+02 -0.54719674146E+01  0.30435005354E+02  0.51100000000E-03 0. -1.
        -11    1    3    3    0    0 -0.17452693388E+00  0.10792849367E+02 -0.86465058364E+01  0.13830333349E+02  0.51100000000E-03 0.  1.
         12    1    3    3    0    0  0.87802146632E+01 -0.21562649285E+02  0.15905621112E+02  0.28196255011E+02  0.00000000000E+00 0. -1.
</event>
<event>
 7    1  0.3347618E-013  0.7246159E+02  0.7816164E-02  0.1226708E+00
        -11   -1    0    0    0    0  0.00000000000E+00  0.00000000000E+00  0.45593999997E+02  0.45594000000E+02  0.51100000000E-03 0. -1.
         11   -1    0    0    0    0 -0.00000000000E+00 -0.00000000000E+00 -0.45593999997E+02  0.45594000000E+02  0.51100000000E-03 0.  1.
    9900012    2    1    2    0    0  0.27006669313E+01 -0.11436870627E+02 -0.14580218851E+02  0.72461591018E+02  0.70000026996E+02 0.  0.
         12    1    1    2    0    0 -0.27006669313E+01  0.11436870627E+02  0.14580218851E+02  0.18726408982E+02  0.00000000000E+00 0. -1.
         11    1    3    3    0    0  0.56989480046E+01 -0.32920615379E+01  0.19915116695E+02  0.20974449951E+02  0.51100000000E-03 0. -1.
        -11    1    3    3    0    0 -0.22018009149E+01  0.10874518588E+02  0.10711699263E+01  0.11146770252E+02  0.51100000000E-03 0.  1.
        -12    1    3    3    0    0 -0.79648015839E+00 -0.19019327677E+02 -0.35566505473E+02  0.40340370814E+02  0.00000000000E+00 0.  1.
</event>
<event>
 7    1  0.2932741E-013  0.7246157E+02  0.7816164E-02  0.1226708E+00
        -11   -1    0    0    0    0  0.00000000000E+00  0.00000000000E+00  0.45593999997E+02  0.45594000000E+02  0.51100000000E-03 0.  1.
         11   -1    0    0    0    0 -0.00000000000E+00 -0.00000000000E+00 -0.45593999997E+02  0.45594000000E+02  0.51100000000E-03 0. -1.
    9900012    2    1    2    0    0  0.44644258572E+01  0.16252686166E+01  0.18113715446E+02  0.72461567249E+02  0.69999996033E+02 0.  0.
         12    1    1    2    0    0 -0.44644258572E+01 -0.16252686166E+01 -0.18113715446E+02  0.18726432751E+02  0.00000000000E+00 0. -1.
         11    1    3    3    0    0 -0.10598905279E+01  0.27680028793E+02 -0.31532313321E+01  0.27879207844E+02  0.51100000000E-03 0. -1.
        -11    1    3    3    0    0 -0.53665446201E-01 -0.38547784628E+01 -0.71318332234E+01  0.81071106052E+01  0.51100000000E-03 0.  1.
        -12    1    3    3    0    0  0.55779818313E+01 -0.22199981714E+02  0.28398780002E+02  0.36475248800E+02  0.00000000000E+00 0.  1.
</event>
<event>
 7    1  0.2932741E-013  0.7246161E+02  0.7816164E-02  0.1226708E+00
        -11   -1    0    0    0    0  0.00000000000E+00  0.00000000000E+00  0.45593999997E+02  0.45594000000E+02  0.51100000000E-03 0.  1.
         11   -1    0    0    0    0 -0.00000000000E+00 -0.00000000000E+00 -0.45593999997E+02  0.45594000000E+02  0.51100000000E-03 0. -1.
    9900012    2    1    2    0    0  0.17016979685E+02 -0.26080729500E+00  0.78122971954E+01  0.72461612054E+02  0.70000054400E+02 0.  0.
         12    1    1    2    0    0 -0.17016979685E+02  0.26080729500E+00 -0.78122971954E+01  0.18726387946E+02  0.00000000000E+00 0. -1.
         11    1    3    3    0    0  0.29190424754E+02  0.12770849151E+02  0.19727967403E+01  0.31922835284E+02  0.51100000000E-03 0.  1.
        -11    1    3    3    0    0 -0.10878726339E+02  0.89622599806E+01 -0.62379094387E+01  0.15413640230E+02  0.51100000000E-03 0. -1.
        -12    1    3    3    0    0 -0.12947187300E+01 -0.21993916427E+02  0.12077409894E+02  0.25125136539E+02  0.00000000000E+00 0.  1.
</event>
<event>
 7    1  0.2932741E-013  0.7246141E+02  0.7816164E-02  0.1226708E+00
        -11   -1    0    0    0    0  0.00000000000E+00  0.00000000000E+00  0.45593999997E+02  0.45594000000E+02  0.51100000000E-03 0. -1.
         11   -1    0    0    0    0 -0.00000000000E+00 -0.00000000000E+00 -0.45593999997E+02  0.45594000000E+02  0.51100000000E-03 0.  1.
    9900012    2    1    2    0    0  0.13859854185E+02 -0.97258616138E+01 -0.79998286718E+01  0.72461409255E+02  0.69999790216E+02 0.  0.
         12    1    1    2    0    0 -0.13859854185E+02  0.97258616138E+01  0.79998286718E+01  0.18726590745E+02  0.00000000000E+00 0. -1.
         11    1    3    3    0    0  0.22354511483E+02  0.10782983966E+02  0.37051865593E+01  0.25094328733E+02  0.51100000000E-03 0. -1.
        -11    1    3    3    0    0 -0.12748942762E+02  0.10069364286E+01 -0.20149451645E+02  0.23865243858E+02  0.51100000000E-03 0.  1.
         12    1    3    3    0    0  0.42542854638E+01 -0.21515782008E+02  0.84444364139E+01  0.23501836664E+02  0.00000000000E+00 0. -1.
</event>
<event>
 7    1  0.2932741E-013  0.7246153E+02  0.7816164E-02  0.1226708E+00
        -11   -1    0    0    0    0  0.00000000000E+00  0.00000000000E+00  0.45593999997E+02  0.45594000000E+02  0.51100000000E-03 0.  1.
         11   -1    0    0    0    0 -0.00000000000E+00 -0.00000000000E+00 -0.45593999997E+02  0.45594000000E+02  0.51100000000E-03 0. -1.
    9900012    2    1    2    0    0  0.11620606559E+02  0.10578363512E+02  0.10185296680E+02  0.72461533706E+02  0.69999952337E+02 0.  0.
         12    1    1    2    0    0 -0.11620606559E+02 -0.10578363512E+02 -0.10185296680E+02  0.18726466294E+02  0.00000000000E+00 0. -1.
         11    1    3    3    0    0 -0.30865477869E+01  0.50383152303E+00 -0.11956729728E+01  0.33481722721E+01  0.51100000000E-03 0. -1.
        -11    1    3    3    0    0  0.39473282453E+01  0.37191035819E+02 -0.10199011687E+01  0.37413830921E+02  0.51100000000E-03 0.  1.
         12    1    3    3    0    0  0.10759826100E+02 -0.27116503829E+02  0.12400870821E+02  0.31699530513E+02  0.00000000000E+00 0. -1.
</event>
<event>
 7    1  0.2932741E-013  0.7246158E+02  0.7816164E-02  0.1226708E+00
        -11   -1    0    0    0    0  0.00000000000E+00  0.00000000000E+00  0.45593999997E+02  0.45594000000E+02  0.51100000000E-03 0.  1.
         11   -1    0    0    0    0 -0.00000000000E+00 -0.00000000000E+00 -0.45593999997E+02  0.45594000000E+02  0.51100000000E-03 0. -1.
    9900012    2    1    2    0    0  0.37387719032E+01 -0.13243543128E+02  0.12700743254E+02  0.72461582053E+02  0.70000015317E+02 0.  0.
         12    1    1    2    0    0 -0.37387719032E+01  0.13243543128E+02 -0.12700743254E+02  0.18726417947E+02  0.00000000000E+00 0. -1.
         11    1    3    3    0    0 -0.60546662187E+01  0.24597231583E+02  0.10269778138E+02  0.27334065337E+02  0.51100000000E-03 0. -1.
        -11    1    3    3    0    0  0.19442190364E+01 -0.16464632222E+01  0.73384841151E+01  0.77681515287E+01  0.51100000000E-03 0.  1.
         12    1    3    3    0    0  0.78492190856E+01 -0.36194311489E+02 -0.49075189989E+01  0.37359365187E+02  0.00000000000E+00 0. -1.
</event>
<event>
 7    1  0.2932741E-013  0.7246159E+02  0.7816164E-02  0.1226708E+00
        -11   -1    0    0    0    0  0.00000000000E+00  0.00000000000E+00  0.45593999997E+02  0.45594000000E+02  0.51100000000E-03 0. -1.
         11   -1    0    0    0    0 -0.00000000000E+00 -0.00000000000E+00 -0.45593999997E+02  0.45594000000E+02  0.51100000000E-03 0.  1.
    9900012    2    1    2    0    0  0.60694263495E+01  0.86035261461E+01 -0.15486117464E+02  0.72461589974E+02  0.70000025636E+02 0.  0.
         12    1    1    2    0    0 -0.60694263495E+01 -0.86035261461E+01  0.15486117464E+02  0.18726410026E+02  0.00000000000E+00 0. -1.
         11    1    3    3    0    0  0.39076806710E+01  0.18286742283E+02  0.13975062203E+02  0.23344748348E+02  0.51100000000E-03 0. -1.
        -11    1    3    3    0    0 -0.17625863718E+02 -0.44966086103E+01 -0.94422773809E+01  0.20495052164E+02  0.51100000000E-03 0.  1.
        -12    1    3    3    0    0  0.19787609397E+02 -0.51866075271E+01 -0.20018902286E+02  0.28621789462E+02  0.00000000000E+00 0.  1.
</event>
<event>
 7    1  0.2932741E-013  0.7246153E+02  0.7816164E-02  0.1226708E+00
        -11   -1    0    0    0    0  0.00000000000E+00  0.00000000000E+00  0.45593999997E+02  0.45594000000E+02  0.51100000000E-03 0.  1.
         11   -1    0    0    0    0 -0.00000000000E+00 -0.00000000000E+00 -0.45593999997E+02  0.45594000000E+02  0.51100000000E-03 0. -1.
    9900012    2    1    2    0    0  0.31863943312E+01 -0.18433707702E+02 -0.85197291145E+00  0.72461533533E+02  0.69999952112E+02 0.  0.
         12    1    1    2    0    0 -0.31863943312E+01  0.18433707702E+02  0.85197291145E+00  0.18726466467E+02  0.00000000000E+00 0. -1.
         11    1    3    3    0    0  0.20050579660E+02 -0.17157611910E+02 -0.15709586231E+01  0.26436287607E+02  0.51100000000E-03 0. -1.
        -11    1    3    3    0    0 -0.44368789741E+00 -0.16149965207E+02  0.12961103039E+02  0.20712518616E+02  0.51100000000E-03 0.  1.
        -12    1    3    3    0    0 -0.16420497432E+02  0.14873869415E+02 -0.12242117327E+02  0.25312727311E+02  0.00000000000E+00 0.  1.
</event>
<event>
 7    1  0.2932741E-013  0.7246157E+02  0.7816164E-02  0.1226708E+00
        -11   -1    0    0    0    0  0.00000000000E+00  0.00000000000E+00  0.45593999997E+02  0.45594000000E+02  0.51100000000E-03 0.  1.
         11   -1    0    0    0    0 -0.00000000000E+00 -0.00000000000E+00 -0.45593999997E+02  0.45594000000E+02  0.51100000000E-03 0. -1.
    9900012    2    1    2    0    0 -0.86880731672E+01  0.14901825684E+02 -0.72891881503E+01  0.72461567132E+02  0.69999995880E+02 0.  0.
         12    1    1    2    0    0  0.86880731672E+01 -0.14901825684E+02  0.72891881503E+01  0.18726432868E+02  0.00000000000E+00 0. -1.
         11    1    3    3    0    0 -0.26310742605E+00  0.11044248840E+02 -0.76232033195E+01  0.13422290679E+02  0.51100000000E-03 0. -1.
        -11    1    3    3    0    0  0.40669455469E+01 -0.26141253500E+02  0.17416984917E+01  0.26512991052E+02  0.51100000000E-03 0.  1.
         12    1    3    3    0    0 -0.12491911288E+02  0.29998830344E+02 -0.14076833226E+01  0.32526285401E+02  0.00000000000E+00 0. -1.
</event>
<event>
 7    1  0.2932741E-013  0.7246152E+02  0.7816164E-02  0.1226708E+00
        -11   -1    0    0    0    0  0.00000000000E+00  0.00000000000E+00  0.45593999997E+02  0.45594000000E+02  0.51100000000E-03 0. -1.
         11   -1    0    0    0    0 -0.00000000000E+00 -0.00000000000E+00 -0.45593999997E+02  0.45594000000E+02  0.51100000000E-03 0.  1.
    9900012    2    1    2    0    0  0.10143345261E+02 -0.12299747813E+02  0.98239382749E+01  0.72461521085E+02  0.69999935896E+02 0.  0.
         12    1    1    2    0    0 -0.10143345261E+02  0.12299747813E+02 -0.98239382749E+01  0.18726478915E+02  0.00000000000E+00 0. -1.
         11    1    3    3    0    0 -0.63901609610E+01 -0.31546747607E+01  0.95966493122E+00  0.71907640063E+01  0.51100000000E-03 0. -1.
        -11    1    3    3    0    0 -0.15781893295E+02 -0.10827457359E+02  0.23031809505E+02  0.29946055470E+02  0.51100000000E-03 0.  1.
         12    1    3    3    0    0  0.32315399517E+02  0.16823843070E+01 -0.14167536162E+02  0.35324701609E+02  0.00000000000E+00 0. -1.
</event>
<event>
 7    1  0.2932741E-013  0.7246160E+02  0.7816164E-02  0.1226708E+00
        -11   -1    0    0    0    0  0.00000000000E+00  0.00000000000E+00  0.45593999997E+02  0.45594000000E+02  0.51100000000E-03 0. -1.
         11   -1    0    0    0    0 -0.00000000000E+00 -0.00000000000E+00 -0.45593999997E+02  0.45594000000E+02  0.51100000000E-03 0.  1.
    9900012    2    1    2    0    0  0.15884335145E+02  0.16957257426E+01 -0.97719274584E+01  0.72461597381E+02  0.70000035286E+02 0.  0.
         12    1    1    2    0    0 -0.15884335145E+02 -0.16957257426E+01  0.97719274584E+01  0.18726402619E+02  0.00000000000E+00 0. -1.
         11    1    3    3    0    0  0.69698619906E+01 -0.36876180584E+01  0.11205564634E+02  0.13701904325E+02  0.51100000000E-03 0. -1.
        -11    1    3    3    0    0  0.28006469168E+02 -0.91669503102E+01 -0.18100112130E+02  0.34583368150E+02  0.51100000000E-03 0.  1.
         12    1    3    3    0    0 -0.19091996014E+02  0.14550294111E+02 -0.28773799624E+01  0.24176324906E+02  0.00000000000E+00 0. -1.
</event>
<event>
 7    1  0.2932741E-013  0.7246147E+02  0.7816164E-02  0.1226708E+00
        -11   -1    0    0    0    0  0.00000000000E+00  0.00000000000E+00  0.45593999997E+02  0.45594000000E+02  0.51100000000E-03 0.  1.
         11   -1    0    0    0    0 -0.00000000000E+00 -0.00000000000E+00 -0.45593999997E+02  0.45594000000E+02  0.51100000000E-03 0. -1.
    9900012    2    1    2    0    0  0.42952970719E+01  0.16198890710E+02  0.83563929851E+01  0.72461469598E+02  0.69999868824E+02 0.  0.
         12    1    1    2    0    0 -0.42952970719E+01 -0.16198890710E+02 -0.83563929851E+01  0.18726530402E+02  0.00000000000E+00 0. -1.
         11    1    3    3    0    0  0.20735992148E+01 -0.20723541623E+01 -0.26343492846E+01  0.39413527997E+01  0.51100000000E-03 0. -1.
        -11    1    3    3    0    0 -0.16583678901E+02  0.15179251867E+02  0.32668118290E+02  0.39656450245E+02  0.51100000000E-03 0.  1.
         12    1    3    3    0    0  0.18805376759E+02  0.30919930063E+01 -0.21677376020E+02  0.28863666553E+02  0.00000000000E+00 0. -1.
</event>
<event>
 7    1  0.2932741E-013  0.7246156E+02  0.7816164E-02  0.1226708E+00
        -11   -1    0    0    0    0  0.00000000000E+00  0.00000000000E+00  0.45593999997E+02  0.45594000000E+02  0.51100000000E-03 0. -1.
         11   -1    0    0    0    0 -0.00000000000E+00 -0.00000000000E+00 -0.45593999997E+02  0.45594000000E+02  0.51100000000E-03 0.  1.
    9900012    2    1    2    0    0 -0.66969183025E+01  0.10258916864E+02 -0.14162815301E+02  0.72461563413E+02  0.69999991036E+02 0.  0.
         12    1    1    2    0    0  0.66969183025E+01 -0.10258916864E+02  0.14162815301E+02  0.18726436587E+02  0.00000000000E+00 0. -1.
         11    1    3    3    0    0 -0.93048432312E+01 -0.55578200924E+01 -0.14865126556E+02  0.18396778510E+02  0.51100000000E-03 0. -1.
        -11    1    3    3    0    0 -0.18313152394E+02 -0.47449365107E+01 -0.11670789745E+02  0.22228209704E+02  0.51100000000E-03 0.  1.
         12    1    3    3    0    0  0.20921077322E+02  0.20561673467E+02  0.12373101001E+02  0.31836575200E+02  0.00000000000E+00 0. -1.
</event>
<event>
 7    1  0.2932741E-013  0.7246153E+02  0.7816164E-02  0.1226708E+00
        -11   -1    0    0    0    0  0.00000000000E+00  0.00000000000E+00  0.45593999997E+02  0.45594000000E+02  0.51100000000E-03 0. -1.
         11   -1    0    0    0    0 -0.00000000000E+00 -0.00000000000E+00 -0.45593999997E+02  0.45594000000E+02  0.51100000000E-03 0.  1.
    9900012    2    1    2    0    0 -0.45641057056E+01  0.10231126064E+02 -0.15005787481E+02  0.72461530515E+02  0.69999948181E+02 0.  0.
         12    1    1    2    0    0  0.45641057056E+01 -0.10231126064E+02  0.15005787481E+02  0.18726469485E+02  0.00000000000E+00 0. -1.
         11    1    3    3    0    0  0.10504650987E+02  0.82717408997E+01 -0.51714042099E+01  0.14335718037E+02  0.51100000000E-03 0. -1.
        -11    1    3    3    0    0  0.16273609659E+02  0.10799513921E+01 -0.19399701297E+02  0.25344527555E+02  0.51100000000E-03 0.  1.
         12    1    3    3    0    0 -0.31342366352E+02  0.87943377244E+00  0.95653180258E+01  0.32781284923E+02  0.00000000000E+00 0. -1.
</event>
<event>
 7    1  0.2932741E-013  0.7246156E+02  0.7816164E-02  0.1226708E+00
        -11   -1    0    0    0    0  0.00000000000E+00  0.00000000000E+00  0.45593999997E+02  0.45594000000E+02  0.51100000000E-03 0. -1.
         11   -1    0    0    0    0 -0.00000000000E+00 -0.00000000000E+00 -0.45593999997E+02  0.45594000000E+02  0.51100000000E-03 0.  1.
    9900012    2    1    2    0    0 -0.14236622101E+02  0.12082279614E+02  0.14200932269E+01  0.72461560021E+02  0.69999986617E+02 0.  0.
         12    1    1    2    0    0  0.14236622101E+02 -0.12082279614E+02 -0.14200932269E+01  0.18726439979E+02  0.00000000000E+00 0. -1.
         11    1    3    3    0    0 -0.15636457329E+02  0.29964568766E+01  0.17119355687E+02  0.23378406511E+02  0.51100000000E-03 0. -1.
        -11    1    3    3    0    0  0.65000981923E+01 -0.17617979131E+02 -0.27813674239E+01  0.18983689583E+02  0.51100000000E-03 0.  1.
         12    1    3    3    0    0 -0.51002629650E+01  0.26703801868E+02 -0.12917895036E+02  0.30099463927E+02  0.00000000000E+00 0. -1.
</event>
<event>
 7    1  0.2932741E-013  0.7246155E+02  0.7816164E-02  0.1226708E+00
        -11   -1    0    0    0    0  0.00000000000E+00  0.00000000000E+00  0.45593999997E+02  0.45594000000E+02  0.51100000000E-03 0. -1.
         11   -1    0    0    0    0 -0.00000000000E+00 -0.00000000000E+00 -0.45593999997E+02  0.45594000000E+02  0.51100000000E-03 0.  1.
    9900012    2    1    2    0    0 -0.47450042827E+01  0.17735002352E+02  0.36925029531E+01  0.72461549399E+02  0.69999972779E+02 0.  0.
         12    1    1    2    0    0  0.47450042827E+01 -0.17735002352E+02 -0.36925029531E+01  0.18726450601E+02  0.00000000000E+00 0. -1.
         11    1    3    3    0    0 -0.33727145640E+01 -0.79829492865E+01 -0.14725565051E+02  0.17086396612E+02  0.51100000000E-03 0. -1.
        -11    1    3    3    0    0 -0.85636177726E+01  0.18875807869E+02 -0.11604000501E+02  0.23754673223E+02  0.51100000000E-03 0.  1.
        -12    1    3    3    0    0  0.71913280539E+01  0.68421437698E+01  0.30022068505E+02  0.31620479564E+02  0.00000000000E+00 0.  1.
</event>
<event>
 7    1  0.2932741E-013  0.7246157E+02  0.7816164E-02  0.1226708E+00
        -11   -1    0    0    0    0  0.00000000000E+00  0.00000000000E+00  0.45593999997E+02  0.45594000000E+02  0.51100000000E-03 0. -1.
         11   -1    0    0    0    0 -0.00000000000E+00 -0.00000000000E+00 -0.45593999997E+02  0.45594000000E+02  0.51100000000E-03 0.  1.
    9900012    2    1    2    0    0 -0.59436233213E+01 -0.15603086539E+02 -0.84791692259E+01  0.72461567385E+02  0.69999996210E+02 0.  0.
         12    1    1    2    0    0  0.59436233213E+01  0.15603086539E+02  0.84791692259E+01  0.18726432615E+02  0.00000000000E+00 0. -1.
         11    1    3    3    0    0 -0.79501662572E+01 -0.16183914761E+02  0.12074884812E+02  0.21700854453E+02  0.51100000000E-03 0. -1.
        -11    1    3    3    0    0  0.37525153674E+01  0.15078176853E+02 -0.29708333702E+02  0.33526375891E+02  0.51100000000E-03 0.  1.
         12    1    3    3    0    0 -0.17459724314E+01 -0.14497348631E+02  0.91542796641E+01  0.17234337040E+02  0.00000000000E+00 0. -1.
</event>
<event>
 7    1  0.2932741E-013  0.7246154E+02  0.7816164E-02  0.1226708E+00
        -11   -1    0    0    0    0  0.00000000000E+00  0.00000000000E+00  0.45593999997E+02  0.45594000000E+02  0.51100000000E-03 0.  1.
         11   -1    0    0    0    0 -0.00000000000E+00 -0.00000000000E+00 -0.45593999997E+02  0.45594000000E+02  0.51100000000E-03 0. -1.
    9900012    2    1    2    0    0 -0.15641252196E+02  0.88968972309E+01  0.51842853575E+01  0.72461538368E+02  0.69999958409E+02 0.  0.
         12    1    1    2    0    0  0.15641252196E+02 -0.88968972309E+01 -0.51842853575E+01  0.18726461632E+02  0.00000000000E+00 0. -1.
         11    1    3    3    0    0 -0.18802170448E+01 -0.15994452176E+02 -0.20801712337E+02  0.26307203442E+02  0.51100000000E-03 0. -1.
        -11    1    3    3    0    0 -0.39428513383E+01 -0.43399392919E+01  0.54111343725E-01  0.58637938259E+01  0.51100000000E-03 0.  1.
        -12    1    3    3    0    0 -0.98181838132E+01  0.29231288699E+02  0.25931886351E+02  0.40290541099E+02  0.00000000000E+00 0.  1.
</event>
<event>
 7    1  0.2932741E-013  0.7246166E+02  0.7816164E-02  0.1226708E+00
        -11   -1    0    0    0    0  0.00000000000E+00  0.00000000000E+00  0.45593999997E+02  0.45594000000E+02  0.51100000000E-03 0. -1.
         11   -1    0    0    0    0 -0.00000000000E+00 -0.00000000000E+00 -0.45593999997E+02  0.45594000000E+02  0.51100000000E-03 0.  1.
    9900012    2    1    2    0    0 -0.11698852073E+01  0.15082429360E+02 -0.11037548289E+02  0.72461660821E+02  0.70000117928E+02 0.  0.
         12    1    1    2    0    0  0.11698852073E+01 -0.15082429360E+02  0.11037548289E+02  0.18726339179E+02  0.00000000000E+00 0. -1.
         11    1    3    3    0    0 -0.30193760174E+02  0.21792917181E+02 -0.13464273688E+02  0.39596477860E+02  0.51100000000E-03 0. -1.
        -11    1    3    3    0    0  0.86543474434E+01  0.39933352188E+01  0.25030181506E+01  0.98544180936E+01  0.51100000000E-03 0.  1.
        -12    1    3    3    0    0  0.20369527524E+02 -0.10703823039E+02 -0.76292752228E-01  0.23010764867E+02  0.00000000000E+00 0.  1.
</event>
<event>
 7    1  0.2932741E-013  0.7246189E+02  0.7816164E-02  0.1226707E+00
        -11   -1    0    0    0    0  0.00000000000E+00  0.00000000000E+00  0.45593999997E+02  0.45594000000E+02  0.51100000000E-03 0.  1.
         11   -1    0    0    0    0 -0.00000000000E+00 -0.00000000000E+00 -0.45593999997E+02  0.45594000000E+02  0.51100000000E-03 0. -1.
    9900012    2    1    2    0    0 -0.54406889111E+01 -0.55758608010E+01  0.17028680385E+02  0.72461887879E+02  0.70000413712E+02 0.  0.
         12    1    1    2    0    0  0.54406889111E+01  0.55758608010E+01 -0.17028680385E+02  0.18726112121E+02  0.00000000000E+00 0. -1.
         11    1    3    3    0    0 -0.24279074386E+02  0.39226112373E+01 -0.17672182641E+02  0.30284754771E+02  0.51100000000E-03 0. -1.
        -11    1    3    3    0    0 -0.33628577752E+00  0.17138192464E+01  0.21546451395E+01  0.27735826058E+01  0.51100000000E-03 0.  1.
        -12    1    3    3    0    0  0.19174671253E+02 -0.11212291285E+02  0.32546217886E+02  0.39403550503E+02  0.00000000000E+00 0.  1.
</event>
<event>
 7    1  0.2932741E-013  0.7246155E+02  0.7816164E-02  0.1226708E+00
        -11   -1    0    0    0    0  0.00000000000E+00  0.00000000000E+00  0.45593999997E+02  0.45594000000E+02  0.51100000000E-03 0. -1.
         11   -1    0    0    0    0 -0.00000000000E+00 -0.00000000000E+00 -0.45593999997E+02  0.45594000000E+02  0.51100000000E-03 0.  1.
    9900012    2    1    2    0    0  0.31975410944E+01 -0.16919708509E+02 -0.73606470317E+01  0.72461549995E+02  0.69999973556E+02 0.  0.
         12    1    1    2    0    0 -0.31975410944E+01  0.16919708509E+02  0.73606470317E+01  0.18726450005E+02  0.00000000000E+00 0. -1.
         11    1    3    3    0    0  0.24212996028E+02 -0.82591898196E+01 -0.93609582644E+01  0.27241713107E+02  0.51100000000E-03 0. -1.
        -11    1    3    3    0    0 -0.57179862150E+00  0.14642380372E+00 -0.16356498960E+02  0.16367145508E+02  0.51100000000E-03 0.  1.
        -12    1    3    3    0    0 -0.20443656312E+02 -0.88069424927E+01  0.18356810192E+02  0.28852691380E+02  0.00000000000E+00 0.  1.
</event>
<event>
 7    1  0.2932741E-013  0.7246183E+02  0.7816164E-02  0.1226707E+00
        -11   -1    0    0    0    0  0.00000000000E+00  0.00000000000E+00  0.45593999997E+02  0.45594000000E+02  0.51100000000E-03 0. -1.
         11   -1    0    0    0    0 -0.00000000000E+00 -0.00000000000E+00 -0.45593999997E+02  0.45594000000E+02  0.51100000000E-03 0.  1.
    9900012    2    1    2    0    0  0.12486385893E+02  0.13657570540E+02 -0.28688561987E+01  0.72461831102E+02  0.70000339749E+02 0.  0.
         12    1    1    2    0    0 -0.12486385893E+02 -0.13657570540E+02  0.28688561987E+01  0.18726168898E+02  0.00000000000E+00 0. -1.
         11    1    3    3    0    0  0.50888621621E+01  0.28616064130E+02 -0.19218237991E+01  0.29128492089E+02  0.51100000000E-03 0. -1.
        -11    1    3    3    0    0  0.16410116434E+02  0.40111684158E+00 -0.13739619645E+02  0.21406306649E+02  0.51100000000E-03 0.  1.
        -12    1    3    3    0    0 -0.90125927029E+01 -0.15359610432E+02  0.12792587246E+02  0.21927032364E+02  0.00000000000E+00 0.  1.
</event>
<event>
 7    1  0.2932741E-013  0.7246099E+02  0.7816164E-02  0.1226710E+00
        -11   -1    0    0    0    0  0.00000000000E+00  0.00000000000E+00  0.45593999997E+02  0.45594000000E+02  0.51100000000E-03 0. -1.
         11   -1    0    0    0    0 -0.00000000000E+00 -0.00000000000E+00 -0.45593999997E+02  0.45594000000E+02  0.51100000000E-03 0.  1.
    9900012    2    1    2    0    0 -0.20013803155E+01 -0.18498339163E+02 -0.21229496735E+01  0.72460987684E+02  0.69999241038E+02 0.  0.
         12    1    1    2    0    0  0.20013803155E+01  0.18498339163E+02  0.21229496735E+01  0.18727012316E+02  0.00000000000E+00 0. -1.
         11    1    3    3    0    0  0.18169638906E+01 -0.30617598201E+01  0.23456515948E+01  0.42635446100E+01  0.51100000000E-03 0. -1.
        -11    1    3    3    0    0  0.16526958182E+02  0.35425233712E+01 -0.27365139181E+02  0.32164276165E+02  0.51100000000E-03 0.  1.
         12    1    3    3    0    0 -0.20345302388E+02 -0.18979102714E+02  0.22896537913E+02  0.36033166909E+02  0.00000000000E+00 0. -1.
</event>
<event>
 7    1  0.2932741E-013  0.7246158E+02  0.7816164E-02  0.1226708E+00
        -11   -1    0    0    0    0  0.00000000000E+00  0.00000000000E+00  0.45593999997E+02  0.45594000000E+02  0.51100000000E-03 0.  1.
         11   -1    0    0    0    0 -0.00000000000E+00 -0.00000000000E+00 -0.45593999997E+02  0.45594000000E+02  0.51100000000E-03 0. -1.
    9900012    2    1    2    0    0 -0.17908913608E+02 -0.25731006522E+01  0.48300019113E+01  0.72461576101E+02  0.70000007565E+02 0.  0.
         12    1    1    2    0    0  0.17908913608E+02  0.25731006522E+01 -0.48300019113E+01  0.18726423899E+02  0.00000000000E+00 0. -1.
         11    1    3    3    0    0  0.18632196205E+02 -0.54713856962E+01  0.89048458207E+01  0.21363311452E+02  0.51100000000E-03 0. -1.
        -11    1    3    3    0    0 -0.11290061321E+02 -0.18495543060E+01  0.15167229909E+02  0.18998189365E+02  0.51100000000E-03 0.  1.
         12    1    3    3    0    0 -0.25251048492E+02  0.47478393500E+01 -0.19242073818E+02  0.32100075284E+02  0.00000000000E+00 0. -1.
</event>
<event>
 7    1  0.2932741E-013  0.7246157E+02  0.7816164E-02  0.1226708E+00
        -11   -1    0    0    0    0  0.00000000000E+00  0.00000000000E+00  0.45593999997E+02  0.45594000000E+02  0.51100000000E-03 0.  1.
         11   -1    0    0    0    0 -0.00000000000E+00 -0.00000000000E+00 -0.45593999997E+02  0.45594000000E+02  0.51100000000E-03 0. -1.
    9900012    2    1    2    0    0  0.11917963819E+02  0.66403605548E+01  0.12827583232E+02  0.72461571043E+02  0.70000000976E+02 0.  0.
         12    1    1    2    0    0 -0.11917963819E+02 -0.66403605548E+01 -0.12827583232E+02  0.18726428957E+02  0.00000000000E+00 0. -1.
         11    1    3    3    0    0  0.30946717597E+01 -0.40221533121E+01  0.16557415240E+01  0.53381823519E+01  0.51100000000E-03 0. -1.
        -11    1    3    3    0    0  0.48628084465E+01 -0.25009299174E+02  0.17185657877E+02  0.30732048225E+02  0.51100000000E-03 0.  1.
         12    1    3    3    0    0  0.39604836132E+01  0.35671813041E+02 -0.60138161694E+01  0.36391340467E+02  0.00000000000E+00 0. -1.
</event>
<event>
 7    1  0.3030096E-013  0.7246157E+02  0.7816164E-02  0.1226708E+00
        -11   -1    0    0    0    0  0.00000000000E+00  0.00000000000E+00  0.45593999997E+02  0.45594000000E+02  0.51100000000E-03 0. -1.
         11   -1    0    0    0    0 -0.00000000000E+00 -0.00000000000E+00 -0.45593999997E+02  0.45594000000E+02  0.51100000000E-03 0.  1.
    9900012    2    1    2    0    0  0.17631318445E+01  0.12584641914E+02 -0.13754899141E+02  0.72461572247E+02  0.70000002544E+02 0.  0.
         12    1    1    2    0    0 -0.17631318445E+01 -0.12584641914E+02  0.13754899141E+02  0.18726427753E+02  0.00000000000E+00 0. -1.
         11    1    3    3    0    0  0.17591665916E+02  0.11681503666E+02 -0.37157965638E+01  0.21441347485E+02  0.51100000000E-03 0. -1.
        -11    1    3    3    0    0  0.76613080759E+01  0.61049272735E+01 -0.22051229994E+02  0.24129287659E+02  0.51100000000E-03 0.  1.
         12    1    3    3    0    0 -0.23489842148E+02 -0.52017890253E+01  0.12012127417E+02  0.26890937103E+02  0.00000000000E+00 0. -1.
</event>
<event>
 7    1  0.2932741E-013  0.7246164E+02  0.7816164E-02  0.1226708E+00
        -11   -1    0    0    0    0  0.00000000000E+00  0.00000000000E+00  0.45593999997E+02  0.45594000000E+02  0.51100000000E-03 0.  1.
         11   -1    0    0    0    0 -0.00000000000E+00 -0.00000000000E+00 -0.45593999997E+02  0.45594000000E+02  0.51100000000E-03 0. -1.
    9900012    2    1    2    0    0 -0.43864396046E+01  0.17733002689E+02 -0.41202418529E+01  0.72461638109E+02  0.70000088341E+02 0.  0.
         12    1    1    2    0    0  0.43864396046E+01 -0.17733002689E+02  0.41202418529E+01  0.18726361891E+02  0.00000000000E+00 0. -1.
         11    1    3    3    0    0 -0.26157838491E+01  0.73347647948E+01 -0.43329053103E+01  0.89115188621E+01  0.51100000000E-03 0. -1.
        -11    1    3    3    0    0  0.26836381495E+02  0.20264527473E+01  0.14417728403E+02  0.30531439126E+02  0.51100000000E-03 0.  1.
         12    1    3    3    0    0 -0.28607037251E+02  0.83717851466E+01 -0.14205064946E+02  0.33018680121E+02  0.00000000000E+00 0. -1.
</event>
<event>
 7    1  0.2932741E-013  0.7246109E+02  0.7816164E-02  0.1226709E+00
        -11   -1    0    0    0    0  0.00000000000E+00  0.00000000000E+00  0.45593999997E+02  0.45594000000E+02  0.51100000000E-03 0. -1.
         11   -1    0    0    0    0 -0.00000000000E+00 -0.00000000000E+00 -0.45593999997E+02  0.45594000000E+02  0.51100000000E-03 0.  1.
    9900012    2    1    2    0    0  0.90102371308E+01 -0.52474154485E+01 -0.15555621798E+02  0.72461091244E+02  0.69999375945E+02 0.  0.
         12    1    1    2    0    0 -0.90102371308E+01  0.52474154485E+01  0.15555621798E+02  0.18726908756E+02  0.00000000000E+00 0. -1.
         11    1    3    3    0    0  0.40051400615E+01  0.88391692347E+01 -0.10772691320E+02  0.14499066804E+02  0.51100000000E-03 0. -1.
        -11    1    3    3    0    0  0.62944033858E+01  0.26884265326E+01 -0.28261025477E+02  0.29078045197E+02  0.51100000000E-03 0.  1.
         12    1    3    3    0    0 -0.12893063165E+01 -0.16775011216E+02  0.23478094999E+02  0.28883979242E+02  0.00000000000E+00 0. -1.
</event>
<event>
 7    1  0.2932741E-013  0.7246159E+02  0.7816164E-02  0.1226708E+00
        -11   -1    0    0    0    0  0.00000000000E+00  0.00000000000E+00  0.45593999997E+02  0.45594000000E+02  0.51100000000E-03 0. -1.
         11   -1    0    0    0    0 -0.00000000000E+00 -0.00000000000E+00 -0.45593999997E+02  0.45594000000E+02  0.51100000000E-03 0.  1.
    9900012    2    1    2    0    0 -0.62844902720E+01  0.15820436112E+02 -0.78036826375E+01  0.72461588719E+02  0.70000024002E+02 0.  0.
         12    1    1    2    0    0  0.62844902720E+01 -0.15820436112E+02  0.78036826375E+01  0.18726411281E+02  0.00000000000E+00 0. -1.
         11    1    3    3    0    0 -0.16023877083E+02  0.13144933166E+02  0.20737154217E+02  0.29318653960E+02  0.51100000000E-03 0. -1.
        -11    1    3    3    0    0  0.13697911456E+02  0.75288252360E+01 -0.18646849956E+01  0.15741443329E+02  0.51100000000E-03 0.  1.
        -12    1    3    3    0    0 -0.39585246448E+01 -0.48533222906E+01 -0.26676151859E+02  0.27401491431E+02  0.00000000000E+00 0.  1.
</event>
<event>
 7    1  0.2932741E-013  0.7246158E+02  0.7816164E-02  0.1226708E+00
        -11   -1    0    0    0    0  0.00000000000E+00  0.00000000000E+00  0.45593999997E+02  0.45594000000E+02  0.51100000000E-03 0. -1.
         11   -1    0    0    0    0 -0.00000000000E+00 -0.00000000000E+00 -0.45593999997E+02  0.45594000000E+02  0.51100000000E-03 0.  1.
    9900012    2    1    2    0    0 -0.14902016197E+01 -0.10220983363E+02 -0.15620167628E+02  0.72461579132E+02  0.70000011513E+02 0.  0.
         12    1    1    2    0    0  0.14902016197E+01  0.10220983363E+02  0.15620167628E+02  0.18726420868E+02  0.00000000000E+00 0. -1.
         11    1    3    3    0    0 -0.50837600880E+00 -0.66469569631E+01 -0.73272795923E+01  0.99060339956E+01  0.51100000000E-03 0. -1.
        -11    1    3    3    0    0 -0.19495568500E+01 -0.17959914718E+02 -0.30869797350E+02  0.35767355190E+02  0.51100000000E-03 0.  1.
         12    1    3    3    0    0  0.96773123914E+00  0.14385888318E+02  0.22576909314E+02  0.26788189947E+02  0.00000000000E+00 0. -1.
</event>
<event>
 7    1  0.2932741E-013  0.7246157E+02  0.7816164E-02  0.1226708E+00
        -11   -1    0    0    0    0  0.00000000000E+00  0.00000000000E+00  0.45593999997E+02  0.45594000000E+02  0.51100000000E-03 0.  1.
         11   -1    0    0    0    0 -0.00000000000E+00 -0.00000000000E+00 -0.45593999997E+02  0.45594000000E+02  0.51100000000E-03 0. -1.
    9900012    2    1    2    0    0  0.11809492456E+02  0.38043198660E+01  0.14026484243E+02  0.72461568895E+02  0.69999998177E+02 0.  0.
         12    1    1    2    0    0 -0.11809492456E+02 -0.38043198660E+01 -0.14026484243E+02  0.18726431105E+02  0.00000000000E+00 0. -1.
         11    1    3    3    0    0 -0.16892857742E+02 -0.18270682807E+02 -0.56125985233E+01  0.25508581994E+02  0.51100000000E-03 0. -1.
        -11    1    3    3    0    0  0.25825439578E+01 -0.43753437482E+01  0.45963730282E+01  0.68512634955E+01  0.51100000000E-03 0.  1.
        -12    1    3    3    0    0  0.26119806240E+02  0.26450346421E+02  0.15042709738E+02  0.40101723405E+02  0.00000000000E+00 0.  1.
</event>
<event>
 7    1  0.2932741E-013  0.7246159E+02  0.7816164E-02  0.1226708E+00
        -11   -1    0    0    0    0  0.00000000000E+00  0.00000000000E+00  0.45593999997E+02  0.45594000000E+02  0.51100000000E-03 0.  1.
         11   -1    0    0    0    0 -0.00000000000E+00 -0.00000000000E+00 -0.45593999997E+02  0.45594000000E+02  0.51100000000E-03 0. -1.
    9900012    2    1    2    0    0 -0.12473614368E+02  0.67159288901E+01  0.12246774981E+02  0.72461594747E+02  0.70000031854E+02 0.  0.
         12    1    1    2    0    0  0.12473614368E+02 -0.67159288901E+01 -0.12246774981E+02  0.18726405253E+02  0.00000000000E+00 0. -1.
         11    1    3    3    0    0 -0.11526597215E+02 -0.68823416355E+01  0.70863589186E+01  0.15180433220E+02  0.51100000000E-03 0. -1.
        -11    1    3    3    0    0 -0.27784046563E+02  0.10952618072E+02  0.22286497513E+00  0.29865745514E+02  0.51100000000E-03 0.  1.
        -12    1    3    3    0    0  0.26837029410E+02  0.26456524537E+01  0.49375510876E+01  0.27415416013E+02  0.00000000000E+00 0.  1.
</event>
<event>
 7    1  0.2932741E-013  0.7246148E+02  0.7816164E-02  0.1226708E+00
        -11   -1    0    0    0    0  0.00000000000E+00  0.00000000000E+00  0.45593999997E+02  0.45594000000E+02  0.51100000000E-03 0.  1.
         11   -1    0    0    0    0 -0.00000000000E+00 -0.00000000000E+00 -0.45593999997E+02  0.45594000000E+02  0.51100000000E-03 0. -1.
    9900012    2    1    2    0    0  0.13302171561E+02 -0.79515660419E+00  0.13156837625E+02  0.72461483545E+02  0.69999886993E+02 0.  0.
         12    1    1    2    0    0 -0.13302171561E+02  0.79515660419E+00 -0.13156837625E+02  0.18726516455E+02  0.00000000000E+00 0. -1.
         11    1    3    3    0    0 -0.41664057859E+01  0.10508396934E+02 -0.31888849887E-02  0.11304218404E+02  0.51100000000E-03 0. -1.
        -11    1    3    3    0    0  0.50334374730E+01  0.20965808603E+02  0.15409195359E+02  0.26501772111E+02  0.51100000000E-03 0.  1.
        -12    1    3    3    0    0  0.12435139874E+02 -0.32269362141E+02 -0.22491688490E+01  0.34655493030E+02  0.00000000000E+00 0.  1.
</event>
<event>
 7    1  0.2932741E-013  0.7246161E+02  0.7816164E-02  0.1226708E+00
        -11   -1    0    0    0    0  0.00000000000E+00  0.00000000000E+00  0.45593999997E+02  0.45594000000E+02  0.51100000000E-03 0.  1.
         11   -1    0    0    0    0 -0.00000000000E+00 -0.00000000000E+00 -0.45593999997E+02  0.45594000000E+02  0.51100000000E-03 0. -1.
    9900012    2    1    2    0    0  0.53693443954E+01  0.12356528758E+02  0.13006303958E+02  0.72461612072E+02  0.70000054423E+02 0.  0.
         12    1    1    2    0    0 -0.53693443954E+01 -0.12356528758E+02 -0.13006303958E+02  0.18726387928E+02  0.00000000000E+00 0. -1.
         11    1    3    3    0    0 -0.43179607118E+00 -0.42935724080E+01  0.58706703361E+01  0.72860127866E+01  0.51100000000E-03 0. -1.
        -11    1    3    3    0    0 -0.15516608151E+01 -0.23460716287E+02 -0.12420567498E+01  0.23544756640E+02  0.51100000000E-03 0.  1.
         12    1    3    3    0    0  0.73528012816E+01  0.40110817453E+02  0.83776903718E+01  0.41630842646E+02  0.00000000000E+00 0. -1.
</event>
<event>
 7    1  0.2932741E-013  0.7246155E+02  0.7816164E-02  0.1226708E+00
        -11   -1    0    0    0    0  0.00000000000E+00  0.00000000000E+00  0.45593999997E+02  0.45594000000E+02  0.51100000000E-03 0.  1.
         11   -1    0    0    0    0 -0.00000000000E+00 -0.00000000000E+00 -0.45593999997E+02  0.45594000000E+02  0.51100000000E-03 0. -1.
    9900012    2    1    2    0    0  0.12464424439E+02 -0.12933463025E+02  0.52956189182E+01  0.72461550199E+02  0.69999973822E+02 0.  0.
         12    1    1    2    0    0 -0.12464424439E+02  0.12933463025E+02 -0.52956189182E+01  0.18726449801E+02  0.00000000000E+00 0. -1.
         11    1    3    3    0    0 -0.11805295885E+02 -0.11838153933E+02  0.18001976588E+01  0.16815100693E+02  0.51100000000E-03 0. -1.
        -11    1    3    3    0    0  0.15461253052E+01 -0.16210986038E+02  0.18382652089E+02  0.24558266834E+02  0.51100000000E-03 0.  1.
        -12    1    3    3    0    0  0.22723595018E+02  0.15115676945E+02 -0.14887230830E+02  0.31088182672E+02  0.00000000000E+00 0.  1.
</event>
<event>
 7    1  0.2932741E-013  0.7246158E+02  0.7816164E-02  0.1226708E+00
        -11   -1    0    0    0    0  0.00000000000E+00  0.00000000000E+00  0.45593999997E+02  0.45594000000E+02  0.51100000000E-03 0.  1.
         11   -1    0    0    0    0 -0.00000000000E+00 -0.00000000000E+00 -0.45593999997E+02  0.45594000000E+02  0.51100000000E-03 0. -1.
    9900012    2    1    2    0    0 -0.43589149979E+01 -0.14151423170E+02  0.11463678244E+02  0.72461579184E+02  0.70000011580E+02 0.  0.
         12    1    1    2    0    0  0.43589149979E+01  0.14151423170E+02 -0.11463678244E+02  0.18726420816E+02  0.00000000000E+00 0. -1.
         11    1    3    3    0    0  0.19109609290E+00  0.11241251703E+02  0.70330890691E+01  0.13261470495E+02  0.51100000000E-03 0. -1.
        -11    1    3    3    0    0 -0.47651029997E+01  0.26930917320E+00  0.25532970351E+02  0.25975205663E+02  0.51100000000E-03 0.  1.
         12    1    3    3    0    0  0.21509190881E+00 -0.25661984047E+02 -0.21102381176E+02  0.33224903026E+02  0.00000000000E+00 0. -1.
</event>
<event>
 7    1  0.2932741E-013  0.7246179E+02  0.7816164E-02  0.1226707E+00
        -11   -1    0    0    0    0  0.00000000000E+00  0.00000000000E+00  0.45593999997E+02  0.45594000000E+02  0.51100000000E-03 0.  1.
         11   -1    0    0    0    0 -0.00000000000E+00 -0.00000000000E+00 -0.45593999997E+02  0.45594000000E+02  0.51100000000E-03 0. -1.
    9900012    2    1    2    0    0 -0.40552165076E+01  0.20438086232E+01  0.18167247132E+02  0.72461793685E+02  0.70000291007E+02 0.  0.
         12    1    1    2    0    0  0.40552165076E+01 -0.20438086232E+01 -0.18167247132E+02  0.18726206315E+02  0.00000000000E+00 0. -1.
         11    1    3    3    0    0  0.78309702213E+01 -0.11878673263E+02  0.16279976948E+02  0.21620930202E+02  0.51100000000E-03 0. -1.
        -11    1    3    3    0    0  0.15981677434E+02 -0.34112456591E+00  0.95365352858E+01  0.18613862713E+02  0.51100000000E-03 0.  1.
         12    1    3    3    0    0 -0.27867864163E+02  0.14263606452E+02 -0.76492651018E+01  0.32227000770E+02  0.00000000000E+00 0. -1.
</event>
<event>
 7    1  0.2932741E-013  0.7246160E+02  0.7816164E-02  0.1226708E+00
        -11   -1    0    0    0    0  0.00000000000E+00  0.00000000000E+00  0.45593999997E+02  0.45594000000E+02  0.51100000000E-03 0. -1.
         11   -1    0    0    0    0 -0.00000000000E+00 -0.00000000000E+00 -0.45593999997E+02  0.45594000000E+02  0.51100000000E-03 0.  1.
    9900012    2    1    2    0    0  0.18525528964E+02 -0.15608611686E+01 -0.22464201057E+01  0.72461603809E+02  0.70000043660E+02 0.  0.
         12    1    1    2    0    0 -0.18525528964E+02  0.15608611686E+01  0.22464201057E+01  0.18726396191E+02  0.00000000000E+00 0. -1.
         11    1    3    3    0    0  0.25001637653E+02 -0.16516518831E+02  0.18675725090E+01  0.30022743161E+02  0.51100000000E-03 0. -1.
        -11    1    3    3    0    0  0.10953012693E+02  0.23266183338E+00 -0.13827777838E+02  0.17641713601E+02  0.51100000000E-03 0.  1.
         12    1    3    3    0    0 -0.17429121381E+02  0.14722995829E+02  0.97137852236E+01  0.24797147047E+02  0.00000000000E+00 0. -1.
</event>
<event>
 7    1  0.2932741E-013  0.7246152E+02  0.7816164E-02  0.1226708E+00
        -11   -1    0    0    0    0  0.00000000000E+00  0.00000000000E+00  0.45593999997E+02  0.45594000000E+02  0.51100000000E-03 0.  1.
         11   -1    0    0    0    0 -0.00000000000E+00 -0.00000000000E+00 -0.45593999997E+02  0.45594000000E+02  0.51100000000E-03 0. -1.
    9900012    2    1    2    0    0 -0.15744251499E+02  0.36469112318E+01  0.94604279314E+01  0.72461518391E+02  0.69999932386E+02 0.  0.
         12    1    1    2    0    0  0.15744251499E+02 -0.36469112318E+01 -0.94604279314E+01  0.18726481609E+02  0.00000000000E+00 0. -1.
         11    1    3    3    0    0 -0.69447162469E+01 -0.21940113766E+02  0.20075517514E+02  0.30538894537E+02  0.51100000000E-03 0. -1.
        -11    1    3    3    0    0  0.94425726344E+01  0.78494857806E+01  0.35753926466E+01  0.12789059301E+02  0.51100000000E-03 0.  1.
        -12    1    3    3    0    0 -0.18242107887E+02  0.17737539217E+02 -0.14190482230E+02  0.29133564553E+02  0.00000000000E+00 0.  1.
</event>
<event>
 7    1  0.2932741E-013  0.7246160E+02  0.7816164E-02  0.1226708E+00
        -11   -1    0    0    0    0  0.00000000000E+00  0.00000000000E+00  0.45593999997E+02  0.45594000000E+02  0.51100000000E-03 0.  1.
         11   -1    0    0    0    0 -0.00000000000E+00 -0.00000000000E+00 -0.45593999997E+02  0.45594000000E+02  0.51100000000E-03 0. -1.
    9900012    2    1    2    0    0  0.11313580148E+02  0.28195171574E+01  0.14653713292E+02  0.72461599225E+02  0.70000037687E+02 0.  0.
         12    1    1    2    0    0 -0.11313580148E+02 -0.28195171574E+01 -0.14653713292E+02  0.18726400775E+02  0.00000000000E+00 0. -1.
         11    1    3    3    0    0 -0.63933128985E+01 -0.12705029813E+02 -0.10997604246E+02  0.17978863473E+02  0.51100000000E-03 0. -1.
        -11    1    3    3    0    0 -0.98598940241E+01 -0.55765201451E+00 -0.42476965918E+01  0.10750414528E+02  0.51100000000E-03 0.  1.
        -12    1    3    3    0    0  0.27566787071E+02  0.16082198985E+02  0.29899014130E+02  0.43732321223E+02  0.00000000000E+00 0.  1.
</event>
<event>
 7    1  0.2932741E-013  0.7246172E+02  0.7816164E-02  0.1226708E+00
        -11   -1    0    0    0    0  0.00000000000E+00  0.00000000000E+00  0.45593999997E+02  0.45594000000E+02  0.51100000000E-03 0.  1.
         11   -1    0    0    0    0 -0.00000000000E+00 -0.00000000000E+00 -0.45593999997E+02  0.45594000000E+02  0.51100000000E-03 0. -1.
    9900012    2    1    2    0    0  0.15506898684E+01  0.11262146653E+00  0.18661626940E+02  0.72461717862E+02  0.70000192234E+02 0.  0.
         12    1    1    2    0    0 -0.15506898684E+01 -0.11262146653E+00 -0.18661626940E+02  0.18726282138E+02  0.00000000000E+00 0. -1.
         11    1    3    3    0    0  0.58776073777E+00  0.89578818489E+01 -0.17608025718E+02  0.19764404364E+02  0.51100000000E-03 0. -1.
        -11    1    3    3    0    0  0.16589090860E+02  0.44207071569E+01  0.21070419358E+02  0.27179094162E+02  0.51100000000E-03 0.  1.
         12    1    3    3    0    0 -0.15626161729E+02 -0.13265967539E+02  0.15199233301E+02  0.25518219336E+02  0.00000000000E+00 0. -1.
</event>
<event>
 7    1  0.2932741E-013  0.7246162E+02  0.7816164E-02  0.1226708E+00
        -11   -1    0    0    0    0  0.00000000000E+00  0.00000000000E+00  0.45593999997E+02  0.45594000000E+02  0.51100000000E-03 0. -1.
         11   -1    0    0    0    0 -0.00000000000E+00 -0.00000000000E+00 -0.45593999997E+02  0.45594000000E+02  0.51100000000E-03 0.  1.
    9900012    2    1    2    0    0 -0.45373473581E+01 -0.13266457324E+02 -0.12413333030E+02  0.72461621603E+02  0.70000066839E+02 0.  0.
         12    1    1    2    0    0  0.45373473581E+01  0.13266457324E+02  0.12413333030E+02  0.18726378397E+02  0.00000000000E+00 0. -1.
         11    1    3    3    0    0 -0.19564164958E+02 -0.20375110898E+02  0.19186982940E+01  0.28312242900E+02  0.51100000000E-03 0. -1.
        -11    1    3    3    0    0  0.15924977789E+02 -0.13336989238E+02 -0.37422908002E+01  0.21106514165E+02  0.51100000000E-03 0.  1.
         12    1    3    3    0    0 -0.89816018911E+00  0.20445642812E+02 -0.10589740523E+02  0.23042864537E+02  0.00000000000E+00 0. -1.
</event>
<event>
 7    1  0.2932741E-013  0.7246157E+02  0.7816164E-02  0.1226708E+00
        -11   -1    0    0    0    0  0.00000000000E+00  0.00000000000E+00  0.45593999997E+02  0.45594000000E+02  0.51100000000E-03 0. -1.
         11   -1    0    0    0    0 -0.00000000000E+00 -0.00000000000E+00 -0.45593999997E+02  0.45594000000E+02  0.51100000000E-03 0.  1.
    9900012    2    1    2    0    0 -0.24159984752E+01 -0.67693656293E+01 -0.17292126448E+02  0.72461574907E+02  0.70000006009E+02 0.  0.
         12    1    1    2    0    0  0.24159984752E+01  0.67693656293E+01  0.17292126448E+02  0.18726425093E+02  0.00000000000E+00 0. -1.
         11    1    3    3    0    0 -0.25645456268E+01  0.11955608867E+02 -0.58706546399E+01  0.13563851364E+02  0.51100000000E-03 0. -1.
        -11    1    3    3    0    0 -0.14067977712E+01 -0.32209409243E+02 -0.24155795138E+02  0.40285575120E+02  0.51100000000E-03 0.  1.
         12    1    3    3    0    0  0.15553449228E+01  0.13484434747E+02  0.12734323330E+02  0.18612148423E+02  0.00000000000E+00 0. -1.
</event>
<event>
 7    1  0.2932741E-013  0.7246156E+02  0.7816164E-02  0.1226708E+00
        -11   -1    0    0    0    0  0.00000000000E+00  0.00000000000E+00  0.45593999997E+02  0.45594000000E+02  0.51100000000E-03 0.  1.
         11   -1    0    0    0    0 -0.00000000000E+00 -0.00000000000E+00 -0.45593999997E+02  0.45594000000E+02  0.51100000000E-03 0. -1.
    9900012    2    1    2    0    0 -0.56304879856E+01 -0.15480201955E+02  0.89073221867E+01  0.72461563177E+02  0.69999990729E+02 0.  0.
         12    1    1    2    0    0  0.56304879856E+01  0.15480201955E+02 -0.89073221867E+01  0.18726436823E+02  0.00000000000E+00 0. -1.
         11    1    3    3    0    0  0.60331888389E+01  0.19701168970E+02 -0.16873875543E+02  0.26631993963E+02  0.51100000000E-03 0. -1.
        -11    1    3    3    0    0 -0.51061675564E+01 -0.12880795523E+02  0.52542760215E+01  0.14818746816E+02  0.51100000000E-03 0.  1.
        -12    1    3    3    0    0 -0.65575092681E+01 -0.22300575402E+02  0.20526921708E+02  0.31010822399E+02  0.00000000000E+00 0.  1.
</event>
<event>
 7    1  0.2932741E-013  0.7246163E+02  0.7816164E-02  0.1226708E+00
        -11   -1    0    0    0    0  0.00000000000E+00  0.00000000000E+00  0.45593999997E+02  0.45594000000E+02  0.51100000000E-03 0.  1.
         11   -1    0    0    0    0 -0.00000000000E+00 -0.00000000000E+00 -0.45593999997E+02  0.45594000000E+02  0.51100000000E-03 0. -1.
    9900012    2    1    2    0    0 -0.17964055740E+01 -0.17278154910E+01  0.18559757624E+02  0.72461627622E+02  0.70000074680E+02 0.  0.
         12    1    1    2    0    0  0.17964055740E+01  0.17278154910E+01 -0.18559757624E+02  0.18726372378E+02  0.00000000000E+00 0. -1.
         11    1    3    3    0    0  0.52874743623E-01 -0.23637890832E+02 -0.80954344091E+01  0.24985770696E+02  0.51100000000E-03 0. -1.
        -11    1    3    3    0    0  0.83085285075E+01 -0.59222669636E+00 -0.30318842976E+01  0.88642371965E+01  0.51100000000E-03 0.  1.
        -12    1    3    3    0    0 -0.10157808825E+02  0.22502302037E+02  0.29687076331E+02  0.38611619730E+02  0.00000000000E+00 0.  1.
</event>
<event>
 7    1  0.2932741E-013  0.7246162E+02  0.7816164E-02  0.1226708E+00
        -11   -1    0    0    0    0  0.00000000000E+00  0.00000000000E+00  0.45593999997E+02  0.45594000000E+02  0.51100000000E-03 0. -1.
         11   -1    0    0    0    0 -0.00000000000E+00 -0.00000000000E+00 -0.45593999997E+02  0.45594000000E+02  0.51100000000E-03 0.  1.
    9900012    2    1    2    0    0  0.10122220803E+02 -0.37160536678E+00 -0.15750549835E+02  0.72461621155E+02  0.70000066255E+02 0.  0.
         12    1    1    2    0    0 -0.10122220803E+02  0.37160536678E+00  0.15750549835E+02  0.18726378845E+02  0.00000000000E+00 0. -1.
         11    1    3    3    0    0  0.19308153135E+02 -0.77946514134E+01 -0.42850830697E+01  0.21258487842E+02  0.51100000000E-03 0. -1.
        -11    1    3    3    0    0  0.12965274656E+02 -0.10550899315E+02 -0.14999489070E+02  0.22458951353E+02  0.51100000000E-03 0.  1.
        -12    1    3    3    0    0 -0.22151206988E+02  0.17973945361E+02  0.35340223044E+01  0.28744181960E+02  0.00000000000E+00 0.  1.
</event>
<event>
 7    1  0.2932741E-013  0.7246155E+02  0.7816164E-02  0.1226708E+00
        -11   -1    0    0    0    0  0.00000000000E+00  0.00000000000E+00  0.45593999997E+02  0.45594000000E+02  0.51100000000E-03 0.  1.
         11   -1    0    0    0    0 -0.00000000000E+00 -0.00000000000E+00 -0.45593999997E+02  0.45594000000E+02  0.51100000000E-03 0. -1.
    9900012    2    1    2    0    0 -0.16882003857E+02  0.66747588981E+01  0.45962501393E+01  0.72461548763E+02  0.69999971951E+02 0.  0.
         12    1    1    2    0    0  0.16882003857E+02 -0.66747588981E+01 -0.45962501393E+01  0.18726451237E+02  0.00000000000E+00 0. -1.
         11    1    3    3    0    0 -0.19070341404E+01  0.36273883844E+01  0.27237945018E+01  0.49207501921E+01  0.51100000000E-03 0.  1.
        -11    1    3    3    0    0  0.78660316651E+01 -0.55034727223E+01  0.29303123739E+02  0.30835624321E+02  0.51100000000E-03 0. -1.
         12    1    3    3    0    0 -0.22841001382E+02  0.85508432360E+01 -0.27430668102E+02  0.36705174249E+02  0.00000000000E+00 0. -1.
</event>
<event>
 7    1  0.2932741E-013  0.7246153E+02  0.7816164E-02  0.1226708E+00
        -11   -1    0    0    0    0  0.00000000000E+00  0.00000000000E+00  0.45593999997E+02  0.45594000000E+02  0.51100000000E-03 0. -1.
         11   -1    0    0    0    0 -0.00000000000E+00 -0.00000000000E+00 -0.45593999997E+02  0.45594000000E+02  0.51100000000E-03 0.  1.
    9900012    2    1    2    0    0 -0.10001011011E+02  0.15731227381E+02  0.17857250797E+01  0.72461533429E+02  0.69999951977E+02 0.  0.
         12    1    1    2    0    0  0.10001011011E+02 -0.15731227381E+02 -0.17857250797E+01  0.18726466571E+02  0.00000000000E+00 0. -1.
         11    1    3    3    0    0  0.15169823989E+02  0.21453003325E+02  0.25273481337E+01  0.26395878474E+02  0.51100000000E-03 0.  1.
        -11    1    3    3    0    0  0.16239134889E+01 -0.12484347935E+02  0.10340157519E+02  0.16291559046E+02  0.51100000000E-03 0. -1.
         12    1    3    3    0    0 -0.26794748490E+02  0.67625719904E+01 -0.11081780573E+02  0.29774095909E+02  0.00000000000E+00 0. -1.
</event>
<event>
 7    1  0.2932741E-013  0.7246155E+02  0.7816164E-02  0.1226708E+00
        -11   -1    0    0    0    0  0.00000000000E+00  0.00000000000E+00  0.45593999997E+02  0.45594000000E+02  0.51100000000E-03 0. -1.
         11   -1    0    0    0    0 -0.00000000000E+00 -0.00000000000E+00 -0.45593999997E+02  0.45594000000E+02  0.51100000000E-03 0.  1.
    9900012    2    1    2    0    0 -0.17855117534E+02 -0.35574177998E+01 -0.43839830613E+01  0.72461554768E+02  0.69999979774E+02 0.  0.
         12    1    1    2    0    0  0.17855117534E+02  0.35574177998E+01  0.43839830613E+01  0.18726445232E+02  0.00000000000E+00 0. -1.
         11    1    3    3    0    0 -0.24280360352E+02  0.58140712745E+01  0.77772926871E+01  0.26150059377E+02  0.51100000000E-03 0. -1.
        -11    1    3    3    0    0 -0.13151340293E+02  0.70913483067E+01  0.47143699685E+01  0.15667490442E+02  0.51100000000E-03 0.  1.
         12    1    3    3    0    0  0.19576583111E+02 -0.16462837381E+02 -0.16875645717E+02  0.30644004949E+02  0.00000000000E+00 0. -1.
</event>
<event>
 7    1  0.2932741E-013  0.7246153E+02  0.7816164E-02  0.1226708E+00
        -11   -1    0    0    0    0  0.00000000000E+00  0.00000000000E+00  0.45593999997E+02  0.45594000000E+02  0.51100000000E-03 0.  1.
         11   -1    0    0    0    0 -0.00000000000E+00 -0.00000000000E+00 -0.45593999997E+02  0.45594000000E+02  0.51100000000E-03 0. -1.
    9900012    2    1    2    0    0  0.10894810074E+02  0.78117481460E+01  0.13075183113E+02  0.72461529188E+02  0.69999946451E+02 0.  0.
         12    1    1    2    0    0 -0.10894810074E+02 -0.78117481460E+01 -0.13075183113E+02  0.18726470812E+02  0.00000000000E+00 0. -1.
         11    1    3    3    0    0  0.10734684633E+02  0.34810677552E+02  0.22180226249E+01  0.36495703177E+02  0.51100000000E-03 0. -1.
        -11    1    3    3    0    0  0.79848066123E+01 -0.22351814672E+01  0.20358625870E+01  0.85380272641E+01  0.51100000000E-03 0.  1.
         12    1    3    3    0    0 -0.78246811707E+01 -0.24763747939E+02  0.88212979011E+01  0.27427798746E+02  0.00000000000E+00 0. -1.
</event>
<event>
 7    1  0.2932741E-013  0.7246156E+02  0.7816164E-02  0.1226708E+00
        -11   -1    0    0    0    0  0.00000000000E+00  0.00000000000E+00  0.45593999997E+02  0.45594000000E+02  0.51100000000E-03 0.  1.
         11   -1    0    0    0    0 -0.00000000000E+00 -0.00000000000E+00 -0.45593999997E+02  0.45594000000E+02  0.51100000000E-03 0. -1.
    9900012    2    1    2    0    0  0.79101627339E+00 -0.10258736706E+02  0.15646480331E+02  0.72461555268E+02  0.69999980425E+02 0.  0.
         12    1    1    2    0    0 -0.79101627339E+00  0.10258736706E+02 -0.15646480331E+02  0.18726444732E+02  0.00000000000E+00 0. -1.
         11    1    3    3    0    0 -0.68135251509E+00 -0.17910719479E+02 -0.76518672122E+01  0.19488693789E+02  0.51100000000E-03 0. -1.
        -11    1    3    3    0    0  0.59987808290E+01 -0.13619214748E+02  0.27079328450E+02  0.30899165221E+02  0.51100000000E-03 0.  1.
         12    1    3    3    0    0 -0.45264120405E+01  0.21271197520E+02 -0.37809809068E+01  0.22073696259E+02  0.00000000000E+00 0. -1.
</event>
<event>
 7    1  0.2932741E-013  0.7246160E+02  0.7816164E-02  0.1226708E+00
        -11   -1    0    0    0    0  0.00000000000E+00  0.00000000000E+00  0.45593999997E+02  0.45594000000E+02  0.51100000000E-03 0.  1.
         11   -1    0    0    0    0 -0.00000000000E+00 -0.00000000000E+00 -0.45593999997E+02  0.45594000000E+02  0.51100000000E-03 0. -1.
    9900012    2    1    2    0    0 -0.16226259267E+02 -0.70792939282E+01  0.61049435921E+01  0.72461595417E+02  0.70000032727E+02 0.  0.
         12    1    1    2    0    0  0.16226259267E+02  0.70792939282E+01 -0.61049435921E+01  0.18726404583E+02  0.00000000000E+00 0. -1.
         11    1    3    3    0    0  0.46864003194E+00 -0.63094013580E+01 -0.60589096379E+01  0.87600545225E+01  0.51100000000E-03 0. -1.
        -11    1    3    3    0    0  0.31766614193E+01 -0.28161600705E+02  0.22042386295E+01  0.28425791110E+02  0.51100000000E-03 0.  1.
         12    1    3    3    0    0 -0.19871560718E+02  0.27391708134E+02  0.99596146005E+01  0.35275749785E+02  0.00000000000E+00 0. -1.
</event>
<event>
 7    1  0.2932741E-013  0.7246156E+02  0.7816164E-02  0.1226708E+00
        -11   -1    0    0    0    0  0.00000000000E+00  0.00000000000E+00  0.45593999997E+02  0.45594000000E+02  0.51100000000E-03 0. -1.
         11   -1    0    0    0    0 -0.00000000000E+00 -0.00000000000E+00 -0.45593999997E+02  0.45594000000E+02  0.51100000000E-03 0.  1.
    9900012    2    1    2    0    0  0.76581923450E+01 -0.67739173981E+01 -0.15689032435E+02  0.72461558649E+02  0.69999984830E+02 0.  0.
         12    1    1    2    0    0 -0.76581923450E+01  0.67739173981E+01  0.15689032435E+02  0.18726441351E+02  0.00000000000E+00 0. -1.
         11    1    3    3    0    0 -0.15054442028E+01 -0.92323895983E+01  0.73770482630E+01  0.11913195259E+02  0.51100000000E-03 0. -1.
        -11    1    3    3    0    0  0.18361221803E+02  0.16132988097E+02  0.77172459237E+01  0.25631302267E+02  0.51100000000E-03 0.  1.
        -12    1    3    3    0    0 -0.91975852549E+01 -0.13674515897E+02 -0.30783326622E+02  0.34917061123E+02  0.00000000000E+00 0.  1.
</event>
<event>
 7    1  0.2932741E-013  0.7246161E+02  0.7816164E-02  0.1226708E+00
        -11   -1    0    0    0    0  0.00000000000E+00  0.00000000000E+00  0.45593999997E+02  0.45594000000E+02  0.51100000000E-03 0. -1.
         11   -1    0    0    0    0 -0.00000000000E+00 -0.00000000000E+00 -0.45593999997E+02  0.45594000000E+02  0.51100000000E-03 0.  1.
    9900012    2    1    2    0    0 -0.11184714931E+02 -0.13238763274E+02 -0.70933087194E+01  0.72461608738E+02  0.70000050080E+02 0.  0.
         12    1    1    2    0    0  0.11184714931E+02  0.13238763274E+02  0.70933087194E+01  0.18726391262E+02  0.00000000000E+00 0. -1.
         11    1    3    3    0    0  0.35894319547E+01 -0.65235593511E+01 -0.28574204828E+01  0.79753182032E+01  0.51100000000E-03 0. -1.
        -11    1    3    3    0    0 -0.72054145492E+00 -0.68729666648E+01 -0.32336653933E+02  0.33066841981E+02  0.51100000000E-03 0.  1.
         12    1    3    3    0    0 -0.14053605431E+02  0.15776274237E+00  0.28100765696E+02  0.31419448554E+02  0.00000000000E+00 0. -1.
</event>
<event>
 7    1  0.2932741E-013  0.7246166E+02  0.7816164E-02  0.1226708E+00
        -11   -1    0    0    0    0  0.00000000000E+00  0.00000000000E+00  0.45593999997E+02  0.45594000000E+02  0.51100000000E-03 0. -1.
         11   -1    0    0    0    0 -0.00000000000E+00 -0.00000000000E+00 -0.45593999997E+02  0.45594000000E+02  0.51100000000E-03 0.  1.
    9900012    2    1    2    0    0  0.13361198254E+02  0.69145702549E+01 -0.11150922070E+02  0.72461655893E+02  0.70000111508E+02 0.  0.
         12    1    1    2    0    0 -0.13361198254E+02 -0.69145702549E+01  0.11150922070E+02  0.18726344107E+02  0.00000000000E+00 0. -1.
         11    1    3    3    0    0 -0.99667295614E+01 -0.23313584657E+02 -0.35624626693E+01  0.25603712001E+02  0.51100000000E-03 0. -1.
        -11    1    3    3    0    0 -0.24598219656E+01  0.12789572533E+02  0.40248962412E+01  0.13631715949E+02  0.51100000000E-03 0.  1.
        -12    1    3    3    0    0  0.25787749781E+02  0.17438582378E+02 -0.11613355642E+02  0.33226227944E+02  0.00000000000E+00 0.  1.
</event>
<event>
 7    1  0.2932741E-013  0.7246152E+02  0.7816164E-02  0.1226708E+00
        -11   -1    0    0    0    0  0.00000000000E+00  0.00000000000E+00  0.45593999997E+02  0.45594000000E+02  0.51100000000E-03 0. -1.
         11   -1    0    0    0    0 -0.00000000000E+00 -0.00000000000E+00 -0.45593999997E+02  0.45594000000E+02  0.51100000000E-03 0.  1.
    9900012    2    1    2    0    0  0.12630822846E+02  0.12465769718E+02 -0.59789476795E+01  0.72461523668E+02  0.69999939261E+02 0.  0.
         12    1    1    2    0    0 -0.12630822846E+02 -0.12465769718E+02  0.59789476795E+01  0.18726476332E+02  0.00000000000E+00 0. -1.
         11    1    3    3    0    0 -0.16667524124E+02  0.11954333587E+02  0.13145836227E+02  0.24362378010E+02  0.51100000000E-03 0. -1.
        -11    1    3    3    0    0 -0.56085785913E+01  0.43153366250E+01  0.16956634732E+01  0.72769196009E+01  0.51100000000E-03 0.  1.
        -12    1    3    3    0    0  0.34906925562E+02 -0.38039004943E+01 -0.20820447380E+02  0.40822226057E+02  0.00000000000E+00 0.  1.
</event>
<event>
 7    1  0.2932741E-013  0.7246153E+02  0.7816164E-02  0.1226708E+00
        -11   -1    0    0    0    0  0.00000000000E+00  0.00000000000E+00  0.45593999997E+02  0.45594000000E+02  0.51100000000E-03 0.  1.
         11   -1    0    0    0    0 -0.00000000000E+00 -0.00000000000E+00 -0.45593999997E+02  0.45594000000E+02  0.51100000000E-03 0. -1.
    9900012    2    1    2    0    0 -0.15540157661E+02 -0.10339459550E+02 -0.15099449121E+01  0.72461525224E+02  0.69999941287E+02 0.  0.
         12    1    1    2    0    0  0.15540157661E+02  0.10339459550E+02  0.15099449121E+01  0.18726474776E+02  0.00000000000E+00 0. -1.
         11    1    3    3    0    0  0.51639124212E+01  0.11886565286E+02  0.16464999712E+02  0.20953583025E+02  0.51100000000E-03 0. -1.
        -11    1    3    3    0    0  0.10247628944E+00  0.97569585409E+01 -0.12109618889E+01  0.98323532440E+01  0.51100000000E-03 0.  1.
        -12    1    3    3    0    0 -0.20806546371E+02 -0.31982983377E+02 -0.16763982735E+02  0.41675588955E+02  0.00000000000E+00 0.  1.
</event>
<event>
 7    1  0.2932741E-013  0.7246162E+02  0.7816164E-02  0.1226708E+00
        -11   -1    0    0    0    0  0.00000000000E+00  0.00000000000E+00  0.45593999997E+02  0.45594000000E+02  0.51100000000E-03 0. -1.
         11   -1    0    0    0    0 -0.00000000000E+00 -0.00000000000E+00 -0.45593999997E+02  0.45594000000E+02  0.51100000000E-03 0.  1.
    9900012    2    1    2    0    0  0.66748180118E+01 -0.14127656735E+02 -0.10321507435E+02  0.72461617647E+02  0.70000061685E+02 0.  0.
         12    1    1    2    0    0 -0.66748180118E+01  0.14127656735E+02  0.10321507435E+02  0.18726382353E+02  0.00000000000E+00 0. -1.
         11    1    3    3    0    0 -0.16518069579E+02 -0.44233515764E+01 -0.14321527033E+02  0.22305129424E+02  0.51100000000E-03 0. -1.
        -11    1    3    3    0    0 -0.10547236502E+02 -0.10760147005E+02 -0.37384589738E+01  0.15524208101E+02  0.51100000000E-03 0.  1.
         12    1    3    3    0    0  0.33740124094E+02  0.10558418462E+01  0.77384785714E+01  0.34632280122E+02  0.00000000000E+00 0. -1.
</event>
<event>
 7    1  0.2932741E-013  0.7246156E+02  0.7816164E-02  0.1226708E+00
        -11   -1    0    0    0    0  0.00000000000E+00  0.00000000000E+00  0.45593999997E+02  0.45594000000E+02  0.51100000000E-03 0.  1.
         11   -1    0    0    0    0 -0.00000000000E+00 -0.00000000000E+00 -0.45593999997E+02  0.45594000000E+02  0.51100000000E-03 0. -1.
    9900012    2    1    2    0    0  0.11629840052E+02 -0.46717599590E+01  0.13914064033E+02  0.72461556166E+02  0.69999981595E+02 0.  0.
         12    1    1    2    0    0 -0.11629840052E+02  0.46717599590E+01 -0.13914064033E+02  0.18726443834E+02  0.00000000000E+00 0. -1.
         11    1    3    3    0    0  0.98864792566E+01 -0.79570015775E+01  0.21202462708E+02  0.24710337338E+02  0.51100000000E-03 0.  1.
        -11    1    3    3    0    0  0.91482652296E+01  0.23574899497E+02 -0.66306225397E+01  0.26142528541E+02  0.51100000000E-03 0. -1.
         12    1    3    3    0    0 -0.74049044344E+01 -0.20289657878E+02 -0.65777613524E+00  0.21608690288E+02  0.00000000000E+00 0. -1.
</event>
<event>
 7    1  0.2932741E-013  0.7246159E+02  0.7816164E-02  0.1226708E+00
        -11   -1    0    0    0    0  0.00000000000E+00  0.00000000000E+00  0.45593999997E+02  0.45594000000E+02  0.51100000000E-03 0.  1.
         11   -1    0    0    0    0 -0.00000000000E+00 -0.00000000000E+00 -0.45593999997E+02  0.45594000000E+02  0.51100000000E-03 0. -1.
    9900012    2    1    2    0    0 -0.18023853748E+02  0.14069627326E+01  0.48825825566E+01  0.72461589226E+02  0.70000024662E+02 0.  0.
         12    1    1    2    0    0  0.18023853748E+02 -0.14069627326E+01 -0.48825825566E+01  0.18726410774E+02  0.00000000000E+00 0. -1.
         11    1    3    3    0    0 -0.59341119863E+01  0.83436359354E+01 -0.11450957718E+02  0.15360806574E+02  0.51100000000E-03 0. -1.
        -11    1    3    3    0    0 -0.23636582413E+02  0.41449778980E+01 -0.10231448234E+02  0.26087380151E+02  0.51100000000E-03 0.  1.
        -12    1    3    3    0    0  0.11546840651E+02 -0.11081651101E+02  0.26564988509E+02  0.31013402500E+02  0.00000000000E+00 0.  1.
</event>
<event>
 7    1  0.2932741E-013  0.7246163E+02  0.7816164E-02  0.1226708E+00
        -11   -1    0    0    0    0  0.00000000000E+00  0.00000000000E+00  0.45593999997E+02  0.45594000000E+02  0.51100000000E-03 0.  1.
         11   -1    0    0    0    0 -0.00000000000E+00 -0.00000000000E+00 -0.45593999997E+02  0.45594000000E+02  0.51100000000E-03 0. -1.
    9900012    2    1    2    0    0 -0.18125860234E+02 -0.42912808706E+01  0.19274079454E+01  0.72461633505E+02  0.70000082343E+02 0.  0.
         12    1    1    2    0    0  0.18125860234E+02  0.42912808706E+01 -0.19274079454E+01  0.18726366495E+02  0.00000000000E+00 0. -1.
         11    1    3    3    0    0 -0.11022637672E+02  0.81434713734E+01  0.76243257956E+01  0.15682634069E+02  0.51100000000E-03 0.  1.
        -11    1    3    3    0    0  0.96390676303E+01 -0.19266192015E+02 -0.23167232856E+02  0.31635714912E+02  0.51100000000E-03 0. -1.
         12    1    3    3    0    0 -0.16742290192E+02  0.68314397714E+01  0.17470315006E+02  0.25143284523E+02  0.00000000000E+00 0. -1.
</event>
<event>
 7    1  0.2932741E-013  0.7246159E+02  0.7816164E-02  0.1226708E+00
        -11   -1    0    0    0    0  0.00000000000E+00  0.00000000000E+00  0.45593999997E+02  0.45594000000E+02  0.51100000000E-03 0.  1.
         11   -1    0    0    0    0 -0.00000000000E+00 -0.00000000000E+00 -0.45593999997E+02  0.45594000000E+02  0.51100000000E-03 0. -1.
    9900012    2    1    2    0    0  0.14112453112E+02  0.76076806121E+01  0.96767872802E+01  0.72461592197E+02  0.70000028533E+02 0.  0.
         12    1    1    2    0    0 -0.14112453112E+02 -0.76076806121E+01 -0.96767872802E+01  0.18726407803E+02  0.00000000000E+00 0. -1.
         11    1    3    3    0    0 -0.23945620801E+01 -0.31480431038E+01 -0.14835930089E+02  0.15354117519E+02  0.51100000000E-03 0. -1.
        -11    1    3    3    0    0  0.28133416575E+02  0.53279422141E+01 -0.89093341755E+00  0.28647335985E+02  0.51100000000E-03 0.  1.
        -12    1    3    3    0    0 -0.11626401383E+02  0.54277815017E+01  0.25403650786E+02  0.28460138693E+02  0.00000000000E+00 0.  1.
</event>
<event>
 7    1  0.2932741E-013  0.7246155E+02  0.7816164E-02  0.1226708E+00
        -11   -1    0    0    0    0  0.00000000000E+00  0.00000000000E+00  0.45593999997E+02  0.45594000000E+02  0.51100000000E-03 0. -1.
         11   -1    0    0    0    0 -0.00000000000E+00 -0.00000000000E+00 -0.45593999997E+02  0.45594000000E+02  0.51100000000E-03 0.  1.
    9900012    2    1    2    0    0 -0.17387239701E+02  0.16820655224E+01 -0.67479163320E+01  0.72461552828E+02  0.69999977247E+02 0.  0.
         12    1    1    2    0    0  0.17387239701E+02 -0.16820655224E+01  0.67479163320E+01  0.18726447172E+02  0.00000000000E+00 0. -1.
         11    1    3    3    0    0 -0.11958729331E+02 -0.11521105639E+02 -0.53600450928E+01  0.17449274083E+02  0.51100000000E-03 0. -1.
        -11    1    3    3    0    0 -0.15321006637E+01 -0.18161185557E+02 -0.11827747160E+02  0.21727208666E+02  0.51100000000E-03 0.  1.
         12    1    3    3    0    0 -0.38964097065E+01  0.31364356718E+02  0.10439875921E+02  0.33285070079E+02  0.00000000000E+00 0. -1.
</event>
<event>
 7    1  0.2932741E-013  0.7246148E+02  0.7816164E-02  0.1226708E+00
        -11   -1    0    0    0    0  0.00000000000E+00  0.00000000000E+00  0.45593999997E+02  0.45594000000E+02  0.51100000000E-03 0. -1.
         11   -1    0    0    0    0 -0.00000000000E+00 -0.00000000000E+00 -0.45593999997E+02  0.45594000000E+02  0.51100000000E-03 0.  1.
    9900012    2    1    2    0    0  0.36107516795E+01 -0.11282890015E+02 -0.14503149208E+02  0.72461482125E+02  0.69999885143E+02 0.  0.
         12    1    1    2    0    0 -0.36107516795E+01  0.11282890015E+02  0.14503149208E+02  0.18726517875E+02  0.00000000000E+00 0. -1.
         11    1    3    3    0    0 -0.39868716305E+01  0.26057230924E+02  0.37723355034E+01  0.26629024470E+02  0.51100000000E-03 0. -1.
        -11    1    3    3    0    0 -0.39637989478E+01 -0.97440263119E+01  0.46179781518E+00  0.10529530301E+02  0.51100000000E-03 0.  1.
        -12    1    3    3    0    0  0.11561422258E+02 -0.27596094627E+02 -0.18737282526E+02  0.35302927354E+02  0.00000000000E+00 0.  1.
</event>
<event>
 7    1  0.2932741E-013  0.7246145E+02  0.7816164E-02  0.1226708E+00
        -11   -1    0    0    0    0  0.00000000000E+00  0.00000000000E+00  0.45593999997E+02  0.45594000000E+02  0.51100000000E-03 0.  1.
         11   -1    0    0    0    0 -0.00000000000E+00 -0.00000000000E+00 -0.45593999997E+02  0.45594000000E+02  0.51100000000E-03 0. -1.
    9900012    2    1    2    0    0  0.16139317709E+02  0.16930370348E+01 -0.93455705732E+01  0.72461450936E+02  0.69999844513E+02 0.  0.
         12    1    1    2    0    0 -0.16139317709E+02 -0.16930370348E+01  0.93455705732E+01  0.18726549064E+02  0.00000000000E+00 0. -1.
         11    1    3    3    0    0  0.12111959467E+02 -0.15463795434E+02 -0.31723840936E+02  0.37312606655E+02  0.51100000000E-03 0. -1.
        -11    1    3    3    0    0 -0.18827270303E+01 -0.26429038833E+01 -0.14971199267E+01  0.35736494432E+01  0.51100000000E-03 0.  1.
        -12    1    3    3    0    0  0.59100852726E+01  0.19799736353E+02  0.23875390290E+02  0.31575194838E+02  0.00000000000E+00 0.  1.
</event>
<event>
 7    1  0.2932741E-013  0.7246158E+02  0.7816164E-02  0.1226708E+00
        -11   -1    0    0    0    0  0.00000000000E+00  0.00000000000E+00  0.45593999997E+02  0.45594000000E+02  0.51100000000E-03 0.  1.
         11   -1    0    0    0    0 -0.00000000000E+00 -0.00000000000E+00 -0.45593999997E+02  0.45594000000E+02  0.51100000000E-03 0. -1.
    9900012    2    1    2    0    0 -0.48726739635E+01  0.15057664345E+02  0.10010116199E+02  0.72461584609E+02  0.70000018648E+02 0.  0.
         12    1    1    2    0    0  0.48726739635E+01 -0.15057664345E+02 -0.10010116199E+02  0.18726415391E+02  0.00000000000E+00 0. -1.
         11    1    3    3    0    0 -0.21998701111E+02 -0.10031449963E+01  0.72283006484E+00  0.22033420842E+02  0.51100000000E-03 0. -1.
        -11    1    3    3    0    0 -0.72354980555E+01  0.23009344993E+02  0.62261318962E+01  0.24910782962E+02  0.51100000000E-03 0.  1.
         12    1    3    3    0    0  0.24361525203E+02 -0.69485356517E+01  0.30611542377E+01  0.25517380805E+02  0.00000000000E+00 0. -1.
</event>
<event>
 7    1  0.2932741E-013  0.7246156E+02  0.7816164E-02  0.1226708E+00
        -11   -1    0    0    0    0  0.00000000000E+00  0.00000000000E+00  0.45593999997E+02  0.45594000000E+02  0.51100000000E-03 0.  1.
         11   -1    0    0    0    0 -0.00000000000E+00 -0.00000000000E+00 -0.45593999997E+02  0.45594000000E+02  0.51100000000E-03 0. -1.
    9900012    2    1    2    0    0 -0.17469671567E+02  0.60304245883E+01 -0.30205871094E+01  0.72461564358E+02  0.69999992267E+02 0.  0.
         12    1    1    2    0    0  0.17469671567E+02 -0.60304245883E+01  0.30205871094E+01  0.18726435642E+02  0.00000000000E+00 0. -1.
         11    1    3    3    0    0 -0.95151344294E+01  0.11574921559E+02 -0.17828941251E+02  0.23289219367E+02  0.51100000000E-03 0.  1.
        -11    1    3    3    0    0 -0.19532490424E+02 -0.14700906992E+02 -0.45109720639E+01  0.24859278303E+02  0.51100000000E-03 0. -1.
        -12    1    3    3    0    0  0.11577953286E+02  0.91564100208E+01  0.19319326206E+02  0.24313066689E+02  0.00000000000E+00 0.  1.
</event>
<event>
 7    1  0.2932741E-013  0.7246166E+02  0.7816164E-02  0.1226708E+00
        -11   -1    0    0    0    0  0.00000000000E+00  0.00000000000E+00  0.45593999997E+02  0.45594000000E+02  0.51100000000E-03 0.  1.
         11   -1    0    0    0    0 -0.00000000000E+00 -0.00000000000E+00 -0.45593999997E+02  0.45594000000E+02  0.51100000000E-03 0. -1.
    9900012    2    1    2    0    0 -0.10853653726E+02 -0.27613072268E+00  0.15257708183E+02  0.72461662762E+02  0.70000120456E+02 0.  0.
         12    1    1    2    0    0  0.10853653726E+02  0.27613072268E+00 -0.15257708183E+02  0.18726337238E+02  0.00000000000E+00 0. -1.
         11    1    3    3    0    0 -0.88448341092E+01 -0.15835143087E+02 -0.55804172515E+01  0.18976930836E+02  0.51100000000E-03 0. -1.
        -11    1    3    3    0    0 -0.14657369532E+02  0.14914987220E+02  0.30898935047E+02  0.37310045734E+02  0.51100000000E-03 0.  1.
         12    1    3    3    0    0  0.12648549915E+02  0.64402514455E+00 -0.10060809613E+02  0.16174686192E+02  0.00000000000E+00 0. -1.
</event>
<event>
 7    1  0.2932741E-013  0.7246151E+02  0.7816164E-02  0.1226708E+00
        -11   -1    0    0    0    0  0.00000000000E+00  0.00000000000E+00  0.45593999997E+02  0.45594000000E+02  0.51100000000E-03 0.  1.
         11   -1    0    0    0    0 -0.00000000000E+00 -0.00000000000E+00 -0.45593999997E+02  0.45594000000E+02  0.51100000000E-03 0. -1.
    9900012    2    1    2    0    0 -0.17617521660E+02 -0.61379478001E+01  0.16216643808E+01  0.72461514265E+02  0.69999927011E+02 0.  0.
         12    1    1    2    0    0  0.17617521660E+02  0.61379478001E+01 -0.16216643808E+01  0.18726485735E+02  0.00000000000E+00 0. -1.
         11    1    3    3    0    0  0.48437361257E+01 -0.24011047524E+01  0.43575436313E+01  0.69437216568E+01  0.51100000000E-03 0. -1.
        -11    1    3    3    0    0 -0.28615383951E+02  0.93224749150E+01  0.21722700329E+02  0.37116363602E+02  0.51100000000E-03 0.  1.
        -12    1    3    3    0    0  0.61541261658E+01 -0.13059317963E+02 -0.24458579579E+02  0.28401429005E+02  0.00000000000E+00 0.  1.
</event>
<event>
 7    1  0.2932741E-013  0.7246158E+02  0.7816164E-02  0.1226708E+00
        -11   -1    0    0    0    0  0.00000000000E+00  0.00000000000E+00  0.45593999997E+02  0.45594000000E+02  0.51100000000E-03 0.  1.
         11   -1    0    0    0    0 -0.00000000000E+00 -0.00000000000E+00 -0.45593999997E+02  0.45594000000E+02  0.51100000000E-03 0. -1.
    9900012    2    1    2    0    0 -0.17582161706E+02 -0.64385227739E+01  0.30292465710E+00  0.72461581520E+02  0.70000014623E+02 0.  0.
         12    1    1    2    0    0  0.17582161706E+02  0.64385227739E+01 -0.30292465710E+00  0.18726418480E+02  0.00000000000E+00 0. -1.
         11    1    3    3    0    0 -0.17600814942E+02 -0.54009570920E+01  0.19349821955E+02  0.26709074003E+02  0.51100000000E-03 0. -1.
        -11    1    3    3    0    0 -0.15031918829E+02  0.22274459322E+01  0.60098216075E+01  0.16341299063E+02  0.51100000000E-03 0.  1.
         12    1    3    3    0    0  0.15050572066E+02 -0.32650116141E+01 -0.25056718906E+02  0.29411208453E+02  0.00000000000E+00 0. -1.
</event>
<event>
 7    1  0.2932741E-013  0.7246155E+02  0.7816164E-02  0.1226708E+00
        -11   -1    0    0    0    0  0.00000000000E+00  0.00000000000E+00  0.45593999997E+02  0.45594000000E+02  0.51100000000E-03 0. -1.
         11   -1    0    0    0    0 -0.00000000000E+00 -0.00000000000E+00 -0.45593999997E+02  0.45594000000E+02  0.51100000000E-03 0.  1.
    9900012    2    1    2    0    0 -0.17456806796E+02 -0.63742838715E+01 -0.23039652801E+01  0.72461552008E+02  0.69999976179E+02 0.  0.
         12    1    1    2    0    0  0.17456806796E+02  0.63742838715E+01  0.23039652801E+01  0.18726447992E+02  0.00000000000E+00 0. -1.
         11    1    3    3    0    0 -0.97807179463E+00  0.15573566070E+02  0.59994762473E+01  0.16717843763E+02  0.51100000000E-03 0. -1.
        -11    1    3    3    0    0  0.56843375334E+01  0.58448224569E+00 -0.20939960425E+02  0.21705650314E+02  0.51100000000E-03 0.  1.
         12    1    3    3    0    0 -0.22163072534E+02 -0.22532332187E+02  0.12636518897E+02  0.34038057932E+02  0.00000000000E+00 0. -1.
</event>
<event>
 7    1  0.2932741E-013  0.7246168E+02  0.7816164E-02  0.1226708E+00
        -11   -1    0    0    0    0  0.00000000000E+00  0.00000000000E+00  0.45593999997E+02  0.45594000000E+02  0.51100000000E-03 0.  1.
         11   -1    0    0    0    0 -0.00000000000E+00 -0.00000000000E+00 -0.45593999997E+02  0.45594000000E+02  0.51100000000E-03 0. -1.
    9900012    2    1    2    0    0  0.41289904868E+01  0.14011069008E+02  0.11718212152E+02  0.72461678598E+02  0.70000141086E+02 0.  0.
         12    1    1    2    0    0 -0.41289904868E+01 -0.14011069008E+02 -0.11718212152E+02  0.18726321402E+02  0.00000000000E+00 0. -1.
         11    1    3    3    0    0  0.32330949804E+02  0.10548034549E+01  0.32535709789E+00  0.32349787991E+02  0.51100000000E-03 0. -1.
        -11    1    3    3    0    0  0.11609185725E+01 -0.71268289804E+00  0.73462951777E+01  0.74715260786E+01  0.51100000000E-03 0.  1.
        -12    1    3    3    0    0 -0.29362877890E+02  0.13668948451E+02  0.40465598769E+01  0.32640364529E+02  0.00000000000E+00 0.  1.
</event>
<event>
 7    1  0.2932741E-013  0.7246156E+02  0.7816164E-02  0.1226708E+00
        -11   -1    0    0    0    0  0.00000000000E+00  0.00000000000E+00  0.45593999997E+02  0.45594000000E+02  0.51100000000E-03 0.  1.
         11   -1    0    0    0    0 -0.00000000000E+00 -0.00000000000E+00 -0.45593999997E+02  0.45594000000E+02  0.51100000000E-03 0. -1.
    9900012    2    1    2    0    0 -0.14558025732E+02 -0.10767787757E+02 -0.47747388237E+01  0.72461561544E+02  0.69999988601E+02 0.  0.
         12    1    1    2    0    0  0.14558025732E+02  0.10767787757E+02  0.47747388237E+01  0.18726438456E+02  0.00000000000E+00 0. -1.
         11    1    3    3    0    0 -0.19507100559E+02 -0.14653535175E+02 -0.10535272923E+02  0.26575271235E+02  0.51100000000E-03 0. -1.
        -11    1    3    3    0    0 -0.66597715668E+01 -0.17708255238E+02 -0.42734100191E+01  0.19395795790E+02  0.51100000000E-03 0.  1.
        -12    1    3    3    0    0  0.11608846394E+02  0.21594002656E+02  0.10033944119E+02  0.26490494519E+02  0.00000000000E+00 0.  1.
</event>
<event>
 7    1  0.2932741E-013  0.7246145E+02  0.7816164E-02  0.1226708E+00
        -11   -1    0    0    0    0  0.00000000000E+00  0.00000000000E+00  0.45593999997E+02  0.45594000000E+02  0.51100000000E-03 0. -1.
         11   -1    0    0    0    0 -0.00000000000E+00 -0.00000000000E+00 -0.45593999997E+02  0.45594000000E+02  0.51100000000E-03 0.  1.
    9900012    2    1    2    0    0 -0.16967112861E+02  0.36637417848E+01  0.70269316160E+01  0.72461449580E+02  0.69999842746E+02 0.  0.
         12    1    1    2    0    0  0.16967112861E+02 -0.36637417848E+01 -0.70269316160E+01  0.18726550420E+02  0.00000000000E+00 0. -1.
         11    1    3    3    0    0  0.15874474791E+02 -0.86700495981E+01 -0.76223331365E+01  0.19628262088E+02  0.51100000000E-03 0. -1.
        -11    1    3    3    0    0  0.77363307695E+01  0.57017386235E+01  0.20138710608E+01  0.98191809239E+01  0.51100000000E-03 0.  1.
         12    1    3    3    0    0 -0.40577918421E+02  0.66320527594E+01  0.12635393692E+02  0.43014006567E+02  0.00000000000E+00 0. -1.
</event>
<event>
 7    1  0.2932741E-013  0.7246157E+02  0.7816164E-02  0.1226708E+00
        -11   -1    0    0    0    0  0.00000000000E+00  0.00000000000E+00  0.45593999997E+02  0.45594000000E+02  0.51100000000E-03 0.  1.
         11   -1    0    0    0    0 -0.00000000000E+00 -0.00000000000E+00 -0.45593999997E+02  0.45594000000E+02  0.51100000000E-03 0. -1.
    9900012    2    1    2    0    0  0.47239002088E+01  0.13429971467E+02 -0.12165515028E+02  0.72461571545E+02  0.70000001630E+02 0.  0.
         12    1    1    2    0    0 -0.47239002088E+01 -0.13429971467E+02  0.12165515028E+02  0.18726428455E+02  0.00000000000E+00 0. -1.
         11    1    3    3    0    0  0.10708698271E+02 -0.13948587104E+02  0.46250455712E+01  0.18183243595E+02  0.51100000000E-03 0. -1.
        -11    1    3    3    0    0  0.72269241665E+01  0.30007047143E+02  0.22584751026E+01  0.30947568906E+02  0.51100000000E-03 0.  1.
        -12    1    3    3    0    0 -0.13211722228E+02 -0.26284885726E+01 -0.19049035701E+02  0.23330759044E+02  0.00000000000E+00 0.  1.
</event>
<event>
 7    1  0.2932741E-013  0.7246158E+02  0.7816164E-02  0.1226708E+00
        -11   -1    0    0    0    0  0.00000000000E+00  0.00000000000E+00  0.45593999997E+02  0.45594000000E+02  0.51100000000E-03 0.  1.
         11   -1    0    0    0    0 -0.00000000000E+00 -0.00000000000E+00 -0.45593999997E+02  0.45594000000E+02  0.51100000000E-03 0. -1.
    9900012    2    1    2    0    0  0.13606241619E+02 -0.82028302964E+01 -0.99127529356E+01  0.72461577314E+02  0.70000009144E+02 0.  0.
         12    1    1    2    0    0 -0.13606241619E+02  0.82028302964E+01  0.99127529356E+01  0.18726422686E+02  0.00000000000E+00 0. -1.
         11    1    3    3    0    0  0.28931323023E+01 -0.25107924492E+02  0.12112171231E+02  0.28026465689E+02  0.51100000000E-03 0. -1.
        -11    1    3    3    0    0  0.29785764550E+01  0.11406489144E+02  0.71280883983E+01  0.13776413059E+02  0.51100000000E-03 0.  1.
         12    1    3    3    0    0  0.77345328616E+01  0.54986050514E+01 -0.29153012565E+02  0.30658698565E+02  0.00000000000E+00 0. -1.
</event>
<event>
 7    1  0.2932741E-013  0.7246156E+02  0.7816164E-02  0.1226708E+00
        -11   -1    0    0    0    0  0.00000000000E+00  0.00000000000E+00  0.45593999997E+02  0.45594000000E+02  0.51100000000E-03 0.  1.
         11   -1    0    0    0    0 -0.00000000000E+00 -0.00000000000E+00 -0.45593999997E+02  0.45594000000E+02  0.51100000000E-03 0. -1.
    9900012    2    1    2    0    0 -0.14317617734E+02 -0.61842498518E+01  0.10365342315E+02  0.72461562936E+02  0.69999990414E+02 0.  0.
         12    1    1    2    0    0  0.14317617734E+02  0.61842498518E+01 -0.10365342315E+02  0.18726437064E+02  0.00000000000E+00 0. -1.
         11    1    3    3    0    0 -0.11091805317E+02  0.24671691470E+02  0.37078823445E+01  0.27303276304E+02  0.51100000000E-03 0. -1.
        -11    1    3    3    0    0 -0.12246435966E+02 -0.85930831407E+01  0.13532461641E+02  0.20172847842E+02  0.51100000000E-03 0.  1.
         12    1    3    3    0    0  0.90206235486E+01 -0.22262858181E+02 -0.68750016703E+01  0.24985438790E+02  0.00000000000E+00 0. -1.
</event>
<event>
 7    1  0.2932741E-013  0.7246156E+02  0.7816164E-02  0.1226708E+00
        -11   -1    0    0    0    0  0.00000000000E+00  0.00000000000E+00  0.45593999997E+02  0.45594000000E+02  0.51100000000E-03 0.  1.
         11   -1    0    0    0    0 -0.00000000000E+00 -0.00000000000E+00 -0.45593999997E+02  0.45594000000E+02  0.51100000000E-03 0. -1.
    9900012    2    1    2    0    0 -0.89690694323E+01 -0.12290637529E+02  0.10916762212E+02  0.72461556810E+02  0.69999982434E+02 0.  0.
         12    1    1    2    0    0  0.89690694323E+01  0.12290637529E+02 -0.10916762212E+02  0.18726443190E+02  0.00000000000E+00 0. -1.
         11    1    3    3    0    0 -0.60863381306E+01  0.63943120455E+01 -0.22487895043E+02  0.24158562915E+02  0.51100000000E-03 0. -1.
        -11    1    3    3    0    0 -0.42479861740E+01 -0.21942807798E+02  0.97470573203E+01  0.24383136124E+02  0.51100000000E-03 0.  1.
        -12    1    3    3    0    0  0.13652548723E+01  0.32578582236E+01  0.23657599935E+02  0.23919857771E+02  0.00000000000E+00 0.  1.
</event>
<event>
 7    1  0.2932741E-013  0.7246155E+02  0.7816164E-02  0.1226708E+00
        -11   -1    0    0    0    0  0.00000000000E+00  0.00000000000E+00  0.45593999997E+02  0.45594000000E+02  0.51100000000E-03 0.  1.
         11   -1    0    0    0    0 -0.00000000000E+00 -0.00000000000E+00 -0.45593999997E+02  0.45594000000E+02  0.51100000000E-03 0. -1.
    9900012    2    1    2    0    0  0.44467400058E+01  0.12353190929E+02  0.13353096587E+02  0.72461547819E+02  0.69999970722E+02 0.  0.
         12    1    1    2    0    0 -0.44467400058E+01 -0.12353190929E+02 -0.13353096587E+02  0.18726452181E+02  0.00000000000E+00 0. -1.
         11    1    3    3    0    0 -0.63664106336E+01  0.15494011505E+02  0.36216788457E+01  0.17138031824E+02  0.51100000000E-03 0. -1.
        -11    1    3    3    0    0  0.20754129704E+02  0.13951539490E+02  0.20920325145E+02  0.32604284356E+02  0.51100000000E-03 0.  1.
         12    1    3    3    0    0 -0.99409790647E+01 -0.17092360066E+02 -0.11188907404E+02  0.22719231639E+02  0.00000000000E+00 0. -1.
</event>
<event>
 7    1  0.2932741E-013  0.7246157E+02  0.7816164E-02  0.1226708E+00
        -11   -1    0    0    0    0  0.00000000000E+00  0.00000000000E+00  0.45593999997E+02  0.45594000000E+02  0.51100000000E-03 0.  1.
         11   -1    0    0    0    0 -0.00000000000E+00 -0.00000000000E+00 -0.45593999997E+02  0.45594000000E+02  0.51100000000E-03 0. -1.
    9900012    2    1    2    0    0  0.48633810362E+01 -0.10952886885E+02  0.14389611358E+02  0.72461571583E+02  0.70000001679E+02 0.  0.
         12    1    1    2    0    0 -0.48633810362E+01  0.10952886885E+02 -0.14389611358E+02  0.18726428417E+02  0.00000000000E+00 0. -1.
         11    1    3    3    0    0  0.59383043321E+01 -0.40492898631E+01 -0.99780019781E+01  0.12297183843E+02  0.51100000000E-03 0. -1.
        -11    1    3    3    0    0  0.22166873889E+02 -0.18453281680E+02  0.10180674131E+02  0.30586598843E+02  0.51100000000E-03 0.  1.
         12    1    3    3    0    0 -0.23241797185E+02  0.11549684658E+02  0.14186939205E+02  0.29577788898E+02  0.00000000000E+00 0. -1.
</event>
<event>
 7    1  0.2932741E-013  0.7246155E+02  0.7816164E-02  0.1226708E+00
        -11   -1    0    0    0    0  0.00000000000E+00  0.00000000000E+00  0.45593999997E+02  0.45594000000E+02  0.51100000000E-03 0.  1.
         11   -1    0    0    0    0 -0.00000000000E+00 -0.00000000000E+00 -0.45593999997E+02  0.45594000000E+02  0.51100000000E-03 0. -1.
    9900012    2    1    2    0    0 -0.13008301883E+02 -0.12727240199E+02  0.44137854445E+01  0.72461546441E+02  0.69999968926E+02 0.  0.
         12    1    1    2    0    0  0.13008301883E+02  0.12727240199E+02 -0.44137854445E+01  0.18726453559E+02  0.00000000000E+00 0. -1.
         11    1    3    3    0    0 -0.24279538046E+02  0.10223451380E+02  0.73659324893E+01  0.27354558807E+02  0.51100000000E-03 0. -1.
        -11    1    3    3    0    0 -0.10689173456E+02 -0.67454100228E+01 -0.10889888677E+02  0.16683784379E+02  0.51100000000E-03 0.  1.
        -12    1    3    3    0    0  0.21960409620E+02 -0.16205281556E+02  0.79377416326E+01  0.28423203254E+02  0.00000000000E+00 0.  1.
</event>
<event>
 7    1  0.2932741E-013  0.7246162E+02  0.7816164E-02  0.1226708E+00
        -11   -1    0    0    0    0  0.00000000000E+00  0.00000000000E+00  0.45593999997E+02  0.45594000000E+02  0.51100000000E-03 0.  1.
         11   -1    0    0    0    0 -0.00000000000E+00 -0.00000000000E+00 -0.45593999997E+02  0.45594000000E+02  0.51100000000E-03 0. -1.
    9900012    2    1    2    0    0 -0.15947775353E+02  0.40212620962E+01 -0.89540665249E+01  0.72461617678E+02  0.70000061726E+02 0.  0.
         12    1    1    2    0    0  0.15947775353E+02 -0.40212620962E+01  0.89540665249E+01  0.18726382322E+02  0.00000000000E+00 0. -1.
         11    1    3    3    0    0 -0.47663047319E+01 -0.99198353462E+01 -0.14934139180E+02  0.18551261612E+02  0.51100000000E-03 0. -1.
        -11    1    3    3    0    0  0.12266704335E+02 -0.86988168895E+01 -0.95409708302E+01  0.17809311474E+02  0.51100000000E-03 0.  1.
        -12    1    3    3    0    0 -0.23448174956E+02  0.22639914332E+02  0.15521043485E+02  0.36101044592E+02  0.00000000000E+00 0.  1.
</event>
<event>
 7    1  0.2932741E-013  0.7246168E+02  0.7816164E-02  0.1226708E+00
        -11   -1    0    0    0    0  0.00000000000E+00  0.00000000000E+00  0.45593999997E+02  0.45594000000E+02  0.51100000000E-03 0.  1.
         11   -1    0    0    0    0 -0.00000000000E+00 -0.00000000000E+00 -0.45593999997E+02  0.45594000000E+02  0.51100000000E-03 0. -1.
    9900012    2    1    2    0    0  0.15074852747E+02 -0.11050438207E+01 -0.11054532872E+02  0.72461681509E+02  0.70000144878E+02 0.  0.
         12    1    1    2    0    0 -0.15074852747E+02  0.11050438207E+01  0.11054532872E+02  0.18726318491E+02  0.00000000000E+00 0. -1.
         11    1    3    3    0    0  0.49917893741E+01  0.12306962093E+02 -0.23634049224E+02  0.27109916268E+02  0.51100000000E-03 0. -1.
        -11    1    3    3    0    0  0.14366976253E+02  0.42293734331E+01 -0.87477798006E+01  0.17344199549E+02  0.51100000000E-03 0.  1.
        -12    1    3    3    0    0 -0.42839128799E+01 -0.17641379347E+02  0.21327296152E+02  0.28007565692E+02  0.00000000000E+00 0.  1.
</event>
<event>
 7    1  0.2932741E-013  0.7246154E+02  0.7816164E-02  0.1226708E+00
        -11   -1    0    0    0    0  0.00000000000E+00  0.00000000000E+00  0.45593999997E+02  0.45594000000E+02  0.51100000000E-03 0.  1.
         11   -1    0    0    0    0 -0.00000000000E+00 -0.00000000000E+00 -0.45593999997E+02  0.45594000000E+02  0.51100000000E-03 0. -1.
    9900012    2    1    2    0    0 -0.13574986844E+02 -0.10969235961E+02  0.67879315370E+01  0.72461536908E+02  0.69999956508E+02 0.  0.
         12    1    1    2    0    0  0.13574986844E+02  0.10969235961E+02 -0.67879315370E+01  0.18726463092E+02  0.00000000000E+00 0. -1.
         11    1    3    3    0    0  0.31594461632E+01  0.18329893527E+02 -0.34974316033E+01  0.18926149235E+02  0.51100000000E-03 0. -1.
        -11    1    3    3    0    0  0.10772954749E+02 -0.21298440331E+02  0.38897055353E+01  0.24182843587E+02  0.51100000000E-03 0.  1.
        -12    1    3    3    0    0 -0.27507387756E+02 -0.80006891567E+01  0.63956576049E+01  0.29352544086E+02  0.00000000000E+00 0.  1.
</event>
<event>
 7    1  0.2932741E-013  0.7246161E+02  0.7816164E-02  0.1226708E+00
        -11   -1    0    0    0    0  0.00000000000E+00  0.00000000000E+00  0.45593999997E+02  0.45594000000E+02  0.51100000000E-03 0. -1.
         11   -1    0    0    0    0 -0.00000000000E+00 -0.00000000000E+00 -0.45593999997E+02  0.45594000000E+02  0.51100000000E-03 0.  1.
    9900012    2    1    2    0    0 -0.31727204598E+01 -0.83486687466E+01 -0.16459385842E+02  0.72461606667E+02  0.70000047383E+02 0.  0.
         12    1    1    2    0    0  0.31727204598E+01  0.83486687466E+01  0.16459385842E+02  0.18726393333E+02  0.00000000000E+00 0. -1.
         11    1    3    3    0    0 -0.88507709488E+01 -0.67551794539E+01  0.66490439079E+01  0.12968360767E+02  0.51100000000E-03 0. -1.
        -11    1    3    3    0    0 -0.19818566134E+02  0.34115991393E+01  0.54979020730E+01  0.20848057457E+02  0.51100000000E-03 0.  1.
        -12    1    3    3    0    0  0.25496616623E+02 -0.50050884320E+01 -0.28606331823E+02  0.38645188443E+02  0.00000000000E+00 0.  1.
</event>
<event>
 7    1  0.2932741E-013  0.7246155E+02  0.7816164E-02  0.1226708E+00
        -11   -1    0    0    0    0  0.00000000000E+00  0.00000000000E+00  0.45593999997E+02  0.45594000000E+02  0.51100000000E-03 0.  1.
         11   -1    0    0    0    0 -0.00000000000E+00 -0.00000000000E+00 -0.45593999997E+02  0.45594000000E+02  0.51100000000E-03 0. -1.
    9900012    2    1    2    0    0  0.69724168565E+01 -0.91248571716E+01  0.14791970272E+02  0.72461548127E+02  0.69999971123E+02 0.  0.
         12    1    1    2    0    0 -0.69724168565E+01  0.91248571716E+01 -0.14791970272E+02  0.18726451873E+02  0.00000000000E+00 0. -1.
         11    1    3    3    0    0  0.61094524991E+01 -0.68127683990E+01  0.12262627541E+02  0.15300694676E+02  0.51100000000E-03 0. -1.
        -11    1    3    3    0    0  0.20831741416E+02 -0.18508909158E+02  0.11190708437E+02  0.30029537529E+02  0.51100000000E-03 0.  1.
         12    1    3    3    0    0 -0.19968777058E+02  0.16196820385E+02 -0.86613657059E+01  0.27131315922E+02  0.00000000000E+00 0. -1.
</event>
<event>
 7    1  0.2932741E-013  0.7246160E+02  0.7816164E-02  0.1226708E+00
        -11   -1    0    0    0    0  0.00000000000E+00  0.00000000000E+00  0.45593999997E+02  0.45594000000E+02  0.51100000000E-03 0. -1.
         11   -1    0    0    0    0 -0.00000000000E+00 -0.00000000000E+00 -0.45593999997E+02  0.45594000000E+02  0.51100000000E-03 0.  1.
    9900012    2    1    2    0    0 -0.15333632414E+02  0.65327439086E+01 -0.85370351524E+01  0.72461601649E+02  0.70000040846E+02 0.  0.
         12    1    1    2    0    0  0.15333632414E+02 -0.65327439086E+01  0.85370351524E+01  0.18726398351E+02  0.00000000000E+00 0. -1.
         11    1    3    3    0    0 -0.23342895964E+02 -0.45717398959E+00  0.17959811597E+02  0.29455977881E+02  0.51100000000E-03 0.  1.
        -11    1    3    3    0    0 -0.12220127858E+02  0.33556430946E-02 -0.12200441901E+02  0.17267956421E+02  0.51100000000E-03 0. -1.
         12    1    3    3    0    0  0.20229391408E+02  0.69865622551E+01 -0.14296404848E+02  0.25737667347E+02  0.00000000000E+00 0. -1.
</event>
<event>
 7    1  0.2932741E-013  0.7246130E+02  0.7816164E-02  0.1226709E+00
        -11   -1    0    0    0    0  0.00000000000E+00  0.00000000000E+00  0.45593999997E+02  0.45594000000E+02  0.51100000000E-03 0. -1.
         11   -1    0    0    0    0 -0.00000000000E+00 -0.00000000000E+00 -0.45593999997E+02  0.45594000000E+02  0.51100000000E-03 0.  1.
    9900012    2    1    2    0    0 -0.10718626056E+02 -0.16319148684E+01 -0.15268833901E+02  0.72461297691E+02  0.69999644883E+02 0.  0.
         12    1    1    2    0    0  0.10718626056E+02  0.16319148684E+01  0.15268833901E+02  0.18726702309E+02  0.00000000000E+00 0. -1.
         11    1    3    3    0    0 -0.64664315996E+01 -0.43866283044E+01 -0.20744719574E+02  0.22167558188E+02  0.51100000000E-03 0.  1.
        -11    1    3    3    0    0  0.18714812782E+02 -0.11966819355E+02 -0.10691544258E+01  0.22239426125E+02  0.51100000000E-03 0. -1.
        -12    1    3    3    0    0 -0.22967007239E+02  0.14721532791E+02  0.65450400995E+01  0.28054313378E+02  0.00000000000E+00 0.  1.
</event>
<event>
 7    1  0.2932741E-013  0.7246157E+02  0.7816164E-02  0.1226708E+00
        -11   -1    0    0    0    0  0.00000000000E+00  0.00000000000E+00  0.45593999997E+02  0.45594000000E+02  0.51100000000E-03 0.  1.
         11   -1    0    0    0    0 -0.00000000000E+00 -0.00000000000E+00 -0.45593999997E+02  0.45594000000E+02  0.51100000000E-03 0. -1.
    9900012    2    1    2    0    0  0.62219109471E+00  0.81384977951E+00  0.18698384749E+02  0.72461573073E+02  0.70000003620E+02 0.  0.
         12    1    1    2    0    0 -0.62219109471E+00 -0.81384977951E+00 -0.18698384749E+02  0.18726426927E+02  0.00000000000E+00 0. -1.
         11    1    3    3    0    0 -0.51979227943E+01 -0.19771671712E+02  0.11082606128E+01  0.20473535247E+02  0.51100000000E-03 0. -1.
        -11    1    3    3    0    0  0.11147203030E+02 -0.25260724653E+01  0.24709481882E+02  0.27224982510E+02  0.51100000000E-03 0.  1.
         12    1    3    3    0    0 -0.53270891406E+01  0.23111593956E+02 -0.71193577464E+01  0.24763055317E+02  0.00000000000E+00 0. -1.
</event>
<event>
 7    1  0.2932741E-013  0.7246152E+02  0.7816164E-02  0.1226708E+00
        -11   -1    0    0    0    0  0.00000000000E+00  0.00000000000E+00  0.45593999997E+02  0.45594000000E+02  0.51100000000E-03 0.  1.
         11   -1    0    0    0    0 -0.00000000000E+00 -0.00000000000E+00 -0.45593999997E+02  0.45594000000E+02  0.51100000000E-03 0. -1.
    9900012    2    1    2    0    0 -0.26571949678E+01  0.15710937254E+02  0.98380324350E+01  0.72461518305E+02  0.69999932274E+02 0.  0.
         12    1    1    2    0    0  0.26571949678E+01 -0.15710937254E+02 -0.98380324350E+01  0.18726481695E+02  0.00000000000E+00 0. -1.
         11    1    3    3    0    0 -0.67537721277E+01  0.18496929998E+02  0.99528232027E+01  0.22063738289E+02  0.51100000000E-03 0. -1.
        -11    1    3    3    0    0  0.80471713201E+01  0.22031308912E+02 -0.67497407550E+01  0.24406854348E+02  0.51100000000E-03 0.  1.
         12    1    3    3    0    0 -0.39505941602E+01 -0.24817301657E+02  0.66349499873E+01  0.25990925668E+02  0.00000000000E+00 0. -1.
</event>
<event>
 7    1  0.2932741E-013  0.7246161E+02  0.7816164E-02  0.1226708E+00
        -11   -1    0    0    0    0  0.00000000000E+00  0.00000000000E+00  0.45593999997E+02  0.45594000000E+02  0.51100000000E-03 0. -1.
         11   -1    0    0    0    0 -0.00000000000E+00 -0.00000000000E+00 -0.45593999997E+02  0.45594000000E+02  0.51100000000E-03 0.  1.
    9900012    2    1    2    0    0  0.15153909060E+02  0.12344750286E+01 -0.10932196968E+02  0.72461606356E+02  0.70000046976E+02 0.  0.
         12    1    1    2    0    0 -0.15153909060E+02 -0.12344750286E+01  0.10932196968E+02  0.18726393644E+02  0.00000000000E+00 0. -1.
         11    1    3    3    0    0  0.11664325142E+02 -0.81630808071E+01  0.78941622921E+01  0.16279132896E+02  0.51100000000E-03 0. -1.
        -11    1    3    3    0    0  0.55525330356E+01 -0.18629957584E+02  0.41551730193E+01  0.19878918627E+02  0.51100000000E-03 0.  1.
         12    1    3    3    0    0 -0.20629491179E+01  0.28027513420E+02 -0.22981532279E+02  0.36303554833E+02  0.00000000000E+00 0. -1.
</event>
<event>
 7    1  0.2932741E-013  0.7246172E+02  0.7816164E-02  0.1226708E+00
        -11   -1    0    0    0    0  0.00000000000E+00  0.00000000000E+00  0.45593999997E+02  0.45594000000E+02  0.51100000000E-03 0. -1.
         11   -1    0    0    0    0 -0.00000000000E+00 -0.00000000000E+00 -0.45593999997E+02  0.45594000000E+02  0.51100000000E-03 0.  1.
    9900012    2    1    2    0    0 -0.99380069821E+01 -0.90960455964E+01 -0.13006593470E+02  0.72461721620E+02  0.70000197129E+02 0.  0.
         12    1    1    2    0    0  0.99380069821E+01  0.90960455964E+01  0.13006593470E+02  0.18726278380E+02  0.00000000000E+00 0. -1.
         11    1    3    3    0    0 -0.26314368811E+01 -0.86745538018E+01 -0.21232325182E+02  0.23086445734E+02  0.51100000000E-03 0. -1.
        -11    1    3    3    0    0  0.11880533359E+02  0.17716546515E+02 -0.11358326202E+01  0.21361488930E+02  0.51100000000E-03 0.  1.
         12    1    3    3    0    0 -0.19187103460E+02 -0.18138038309E+02  0.93615643322E+01  0.28013786956E+02  0.00000000000E+00 0. -1.
</event>
<event>
 7    1  0.2932741E-013  0.7246156E+02  0.7816164E-02  0.1226708E+00
        -11   -1    0    0    0    0  0.00000000000E+00  0.00000000000E+00  0.45593999997E+02  0.45594000000E+02  0.51100000000E-03 0. -1.
         11   -1    0    0    0    0 -0.00000000000E+00 -0.00000000000E+00 -0.45593999997E+02  0.45594000000E+02  0.51100000000E-03 0.  1.
    9900012    2    1    2    0    0  0.18379563217E+02  0.22941643827E+01  0.27582819852E+01  0.72461557365E+02  0.69999983157E+02 0.  0.
         12    1    1    2    0    0 -0.18379563217E+02 -0.22941643827E+01 -0.27582819852E+01  0.18726442635E+02  0.00000000000E+00 0. -1.
         11    1    3    3    0    0 -0.39693309741E+01 -0.89366317477E+01 -0.15213415618E+02  0.18084993514E+02  0.51100000000E-03 0. -1.
        -11    1    3    3    0    0  0.18065358579E+02  0.14216277422E+02 -0.10612326792E+02  0.25319581445E+02  0.51100000000E-03 0.  1.
         12    1    3    3    0    0  0.42835356121E+01 -0.29854812918E+01  0.28584024396E+02  0.29056982406E+02  0.00000000000E+00 0. -1.
</event>
<event>
 7    1  0.2932741E-013  0.7246145E+02  0.7816164E-02  0.1226708E+00
        -11   -1    0    0    0    0  0.00000000000E+00  0.00000000000E+00  0.45593999997E+02  0.45594000000E+02  0.51100000000E-03 0. -1.
         11   -1    0    0    0    0 -0.00000000000E+00 -0.00000000000E+00 -0.45593999997E+02  0.45594000000E+02  0.51100000000E-03 0.  1.
    9900012    2    1    2    0    0  0.78628429070E+01  0.98442083441E+01 -0.13854638408E+02  0.72461448210E+02  0.69999840963E+02 0.  0.
         12    1    1    2    0    0 -0.78628429070E+01 -0.98442083441E+01  0.13854638408E+02  0.18726551790E+02  0.00000000000E+00 0. -1.
         11    1    3    3    0    0  0.30661014893E+02  0.28619123288E+01  0.62613012956E+01  0.31424389741E+02  0.51100000000E-03 0. -1.
        -11    1    3    3    0    0  0.73219959272E-01 -0.78252513595E+01 -0.13192696313E+01  0.79360186884E+01  0.51100000000E-03 0.  1.
        -12    1    3    3    0    0 -0.22871391945E+02  0.14807547375E+02 -0.18796670073E+02  0.33101039781E+02  0.00000000000E+00 0.  1.
</event>
<event>
 7    1  0.2932741E-013  0.7246147E+02  0.7816164E-02  0.1226708E+00
        -11   -1    0    0    0    0  0.00000000000E+00  0.00000000000E+00  0.45593999997E+02  0.45594000000E+02  0.51100000000E-03 0. -1.
         11   -1    0    0    0    0 -0.00000000000E+00 -0.00000000000E+00 -0.45593999997E+02  0.45594000000E+02  0.51100000000E-03 0.  1.
    9900012    2    1    2    0    0 -0.19344762151E+00  0.12135912580E+02 -0.14260609900E+02  0.72461473604E+02  0.69999874042E+02 0.  0.
         12    1    1    2    0    0  0.19344762151E+00 -0.12135912580E+02  0.14260609900E+02  0.18726526396E+02  0.00000000000E+00 0. -1.
         11    1    3    3    0    0  0.21631552415E+02  0.14094288093E+01  0.44835435064E+00  0.21682056437E+02  0.51100000000E-03 0. -1.
        -11    1    3    3    0    0 -0.28146228816E+01 -0.50835709779E+01 -0.23751717551E+02  0.24452175420E+02  0.51100000000E-03 0.  1.
         12    1    3    3    0    0 -0.19010377155E+02  0.15810054749E+02  0.90427533004E+01  0.26327241747E+02  0.00000000000E+00 0. -1.
</event>
<event>
 7    1  0.2932741E-013  0.7246156E+02  0.7816164E-02  0.1226708E+00
        -11   -1    0    0    0    0  0.00000000000E+00  0.00000000000E+00  0.45593999997E+02  0.45594000000E+02  0.51100000000E-03 0.  1.
         11   -1    0    0    0    0 -0.00000000000E+00 -0.00000000000E+00 -0.45593999997E+02  0.45594000000E+02  0.51100000000E-03 0. -1.
    9900012    2    1    2    0    0 -0.46709217596E+01  0.91881641955E+01  0.15634563600E+02  0.72461562797E+02  0.69999990233E+02 0.  0.
         12    1    1    2    0    0  0.46709217596E+01 -0.91881641955E+01 -0.15634563600E+02  0.18726437203E+02  0.00000000000E+00 0. -1.
         11    1    3    3    0    0 -0.96837436398E+01 -0.14816687267E+02  0.28587043808E+02  0.33623328008E+02  0.51100000000E-03 0. -1.
        -11    1    3    3    0    0 -0.45217167767E+01  0.77639696386E+01  0.70087861381E+01  0.11395096777E+02  0.51100000000E-03 0.  1.
         12    1    3    3    0    0  0.95345386568E+01  0.16240881823E+02 -0.19961266346E+02  0.27443138012E+02  0.00000000000E+00 0. -1.
</event>
<event>
 7    1  0.2932741E-013  0.7246158E+02  0.7816164E-02  0.1226708E+00
        -11   -1    0    0    0    0  0.00000000000E+00  0.00000000000E+00  0.45593999997E+02  0.45594000000E+02  0.51100000000E-03 0. -1.
         11   -1    0    0    0    0 -0.00000000000E+00 -0.00000000000E+00 -0.45593999997E+02  0.45594000000E+02  0.51100000000E-03 0.  1.
    9900012    2    1    2    0    0 -0.15350998421E+02 -0.91600017472E+01 -0.55785169810E+01  0.72461584533E+02  0.70000018549E+02 0.  0.
         12    1    1    2    0    0  0.15350998421E+02  0.91600017472E+01  0.55785169810E+01  0.18726415467E+02  0.00000000000E+00 0. -1.
         11    1    3    3    0    0 -0.53946687079E+01 -0.12085991276E+02 -0.81051295535E+01  0.15519882762E+02  0.51100000000E-03 0. -1.
        -11    1    3    3    0    0 -0.10541175262E+02  0.94749063775E+00 -0.26139811187E+02  0.28201131956E+02  0.51100000000E-03 0.  1.
         12    1    3    3    0    0  0.58484554981E+00  0.19784988912E+01  0.28666423760E+02  0.28740569816E+02  0.00000000000E+00 0. -1.
</event>
<event>
 7    1  0.2932741E-013  0.7246155E+02  0.7816164E-02  0.1226708E+00
        -11   -1    0    0    0    0  0.00000000000E+00  0.00000000000E+00  0.45593999997E+02  0.45594000000E+02  0.51100000000E-03 0.  1.
         11   -1    0    0    0    0 -0.00000000000E+00 -0.00000000000E+00 -0.45593999997E+02  0.45594000000E+02  0.51100000000E-03 0. -1.
    9900012    2    1    2    0    0  0.64940107040E+01  0.56136733991E+01  0.16643151344E+02  0.72461548368E+02  0.69999971437E+02 0.  0.
         12    1    1    2    0    0 -0.64940107040E+01 -0.56136733991E+01 -0.16643151344E+02  0.18726451632E+02  0.00000000000E+00 0. -1.
         11    1    3    3    0    0 -0.18550813519E+02  0.48398493146E+01 -0.64892548737E+01  0.20240238454E+02  0.51100000000E-03 0. -1.
        -11    1    3    3    0    0  0.17515849370E+01  0.27234134925E+01  0.28132152606E+02  0.28317892601E+02  0.51100000000E-03 0.  1.
         12    1    3    3    0    0  0.23293239286E+02 -0.19495894080E+01 -0.49997463883E+01  0.23903417313E+02  0.00000000000E+00 0. -1.
</event>
<event>
 7    1  0.2932741E-013  0.7246149E+02  0.7816164E-02  0.1226708E+00
        -11   -1    0    0    0    0  0.00000000000E+00  0.00000000000E+00  0.45593999997E+02  0.45594000000E+02  0.51100000000E-03 0.  1.
         11   -1    0    0    0    0 -0.00000000000E+00 -0.00000000000E+00 -0.45593999997E+02  0.45594000000E+02  0.51100000000E-03 0. -1.
    9900012    2    1    2    0    0 -0.18032940534E+01 -0.10031396742E+02 -0.15709913654E+02  0.72461489992E+02  0.69999895391E+02 0.  0.
         12    1    1    2    0    0  0.18032940534E+01  0.10031396742E+02  0.15709913654E+02  0.18726510008E+02  0.00000000000E+00 0. -1.
         11    1    3    3    0    0 -0.31314356004E+01 -0.36143634912E+01 -0.12715530214E+02  0.13585073472E+02  0.51100000000E-03 0. -1.
        -11    1    3    3    0    0 -0.25816521053E+02 -0.15575818802E+02 -0.16901863814E+01  0.30198602963E+02  0.51100000000E-03 0.  1.
        -12    1    3    3    0    0  0.27144662600E+02  0.91587855506E+01 -0.13041970590E+01  0.28677813557E+02  0.00000000000E+00 0.  1.
</event>
<event>
 7    1  0.2932741E-013  0.7246158E+02  0.7816164E-02  0.1226708E+00
        -11   -1    0    0    0    0  0.00000000000E+00  0.00000000000E+00  0.45593999997E+02  0.45594000000E+02  0.51100000000E-03 0. -1.
         11   -1    0    0    0    0 -0.00000000000E+00 -0.00000000000E+00 -0.45593999997E+02  0.45594000000E+02  0.51100000000E-03 0.  1.
    9900012    2    1    2    0    0 -0.15512348822E+02 -0.86958631435E+01  0.58675313343E+01  0.72461576803E+02  0.70000008479E+02 0.  0.
         12    1    1    2    0    0  0.15512348822E+02  0.86958631435E+01 -0.58675313343E+01  0.18726423197E+02  0.00000000000E+00 0. -1.
         11    1    3    3    0    0  0.18475212728E+01  0.82045336301E+01 -0.21770491551E+01  0.86871888563E+01  0.51100000000E-03 0. -1.
        -11    1    3    3    0    0 -0.32482789737E+00  0.20210331756E+02  0.10669899230E+02  0.22856285190E+02  0.51100000000E-03 0.  1.
        -12    1    3    3    0    0 -0.17035042198E+02 -0.37110728530E+02 -0.26253187406E+01  0.40918102756E+02  0.00000000000E+00 0.  1.
</event>
<event>
 7    1  0.2932741E-013  0.7246158E+02  0.7816164E-02  0.1226708E+00
        -11   -1    0    0    0    0  0.00000000000E+00  0.00000000000E+00  0.45593999997E+02  0.45594000000E+02  0.51100000000E-03 0.  1.
         11   -1    0    0    0    0 -0.00000000000E+00 -0.00000000000E+00 -0.45593999997E+02  0.45594000000E+02  0.51100000000E-03 0. -1.
    9900012    2    1    2    0    0  0.12634043625E+02 -0.13821934725E+02  0.11855244139E+00  0.72461575020E+02  0.70000006156E+02 0.  0.
         12    1    1    2    0    0 -0.12634043625E+02  0.13821934725E+02 -0.11855244139E+00  0.18726424980E+02  0.00000000000E+00 0. -1.
         11    1    3    3    0    0 -0.19535721513E+02 -0.15107937721E+02 -0.10118754340E+02  0.26688637786E+02  0.51100000000E-03 0. -1.
        -11    1    3    3    0    0  0.47646552554E+01  0.10937468386E+02 -0.50343678459E+01  0.12948938731E+02  0.51100000000E-03 0.  1.
        -12    1    3    3    0    0  0.27405109882E+02 -0.96514653899E+01  0.15271674627E+02  0.32823998503E+02  0.00000000000E+00 0.  1.
</event>
<event>
 7    1  0.2932741E-013  0.7246158E+02  0.7816164E-02  0.1226708E+00
        -11   -1    0    0    0    0  0.00000000000E+00  0.00000000000E+00  0.45593999997E+02  0.45594000000E+02  0.51100000000E-03 0.  1.
         11   -1    0    0    0    0 -0.00000000000E+00 -0.00000000000E+00 -0.45593999997E+02  0.45594000000E+02  0.51100000000E-03 0. -1.
    9900012    2    1    2    0    0  0.10598812740E+02 -0.12731121774E+02  0.87328449476E+01  0.72461578185E+02  0.70000010279E+02 0.  0.
         12    1    1    2    0    0 -0.10598812740E+02  0.12731121774E+02 -0.87328449476E+01  0.18726421815E+02  0.00000000000E+00 0. -1.
         11    1    3    3    0    0 -0.89664623401E+01 -0.11591580957E+02 -0.16011586009E+02  0.21705600263E+02  0.51100000000E-03 0. -1.
        -11    1    3    3    0    0  0.15713746002E+02  0.29768055606E+01 -0.77529117715E+01  0.17773317810E+02  0.51100000000E-03 0.  1.
        -12    1    3    3    0    0  0.38515290777E+01 -0.41163463769E+01  0.32497342728E+02  0.32982660113E+02  0.00000000000E+00 0.  1.
</event>
<event>
 7    1  0.2932741E-013  0.7246156E+02  0.7816164E-02  0.1226708E+00
        -11   -1    0    0    0    0  0.00000000000E+00  0.00000000000E+00  0.45593999997E+02  0.45594000000E+02  0.51100000000E-03 0. -1.
         11   -1    0    0    0    0 -0.00000000000E+00 -0.00000000000E+00 -0.45593999997E+02  0.45594000000E+02  0.51100000000E-03 0.  1.
    9900012    2    1    2    0    0  0.50488997638E+01  0.16602612028E+02 -0.70385674149E+01  0.72461560236E+02  0.69999986897E+02 0.  0.
         12    1    1    2    0    0 -0.50488997638E+01 -0.16602612028E+02  0.70385674149E+01  0.18726439764E+02  0.00000000000E+00 0. -1.
         11    1    3    3    0    0  0.93070836664E+01 -0.12966018022E+01  0.20837622860E+00  0.93992767552E+01  0.51100000000E-03 0. -1.
        -11    1    3    3    0    0  0.16098162187E+02  0.95086701558E+01 -0.27428445969E+02  0.33194657439E+02  0.51100000000E-03 0.  1.
         12    1    3    3    0    0 -0.20356346090E+02  0.83905436743E+01  0.20181502326E+02  0.29867626042E+02  0.00000000000E+00 0. -1.
</event>
<event>
 7    1  0.2932741E-013  0.7246136E+02  0.7816164E-02  0.1226709E+00
        -11   -1    0    0    0    0  0.00000000000E+00  0.00000000000E+00  0.45593999997E+02  0.45594000000E+02  0.51100000000E-03 0. -1.
         11   -1    0    0    0    0 -0.00000000000E+00 -0.00000000000E+00 -0.45593999997E+02  0.45594000000E+02  0.51100000000E-03 0.  1.
    9900012    2    1    2    0    0 -0.81205150841E+01 -0.14432295609E+02 -0.87437517221E+01  0.72461358124E+02  0.69999723608E+02 0.  0.
         12    1    1    2    0    0  0.81205150841E+01  0.14432295609E+02  0.87437517221E+01  0.18726641876E+02  0.00000000000E+00 0. -1.
         11    1    3    3    0    0 -0.28644127831E+02  0.93943030863E+01 -0.84612233612E+01  0.31310242585E+02  0.51100000000E-03 0. -1.
        -11    1    3    3    0    0 -0.21980670153E+01 -0.14296138021E+02  0.61009207897E+01  0.15698162174E+02  0.51100000000E-03 0.  1.
        -12    1    3    3    0    0  0.22721679762E+02 -0.95304606749E+01 -0.63834491506E+01  0.25452953364E+02  0.00000000000E+00 0.  1.
</event>
<event>
 7    1  0.2932741E-013  0.7246180E+02  0.7816164E-02  0.1226707E+00
        -11   -1    0    0    0    0  0.00000000000E+00  0.00000000000E+00  0.45593999997E+02  0.45594000000E+02  0.51100000000E-03 0. -1.
         11   -1    0    0    0    0 -0.00000000000E+00 -0.00000000000E+00 -0.45593999997E+02  0.45594000000E+02  0.51100000000E-03 0.  1.
    9900012    2    1    2    0    0  0.11202894351E+02  0.13691032130E+02  0.61417646555E+01  0.72461802423E+02  0.70000302390E+02 0.  0.
         12    1    1    2    0    0 -0.11202894351E+02 -0.13691032130E+02 -0.61417646555E+01  0.18726197577E+02  0.00000000000E+00 0. -1.
         11    1    3    3    0    0 -0.64834512567E+01  0.82523258307E+01 -0.13640952386E+02  0.17210799054E+02  0.51100000000E-03 0. -1.
        -11    1    3    3    0    0  0.22887485803E+02  0.18654783362E+02  0.26376426761E+02  0.39592345695E+02  0.51100000000E-03 0.  1.
         12    1    3    3    0    0 -0.52011401954E+01 -0.13216077063E+02 -0.65937097191E+01  0.15658657673E+02  0.00000000000E+00 0. -1.
</event>
<event>
 7    1  0.2932741E-013  0.7246159E+02  0.7816164E-02  0.1226708E+00
        -11   -1    0    0    0    0  0.00000000000E+00  0.00000000000E+00  0.45593999997E+02  0.45594000000E+02  0.51100000000E-03 0.  1.
         11   -1    0    0    0    0 -0.00000000000E+00 -0.00000000000E+00 -0.45593999997E+02  0.45594000000E+02  0.51100000000E-03 0. -1.
    9900012    2    1    2    0    0  0.15033678558E+02  0.67762616278E+01  0.88740736999E+01  0.72461590930E+02  0.70000026881E+02 0.  0.
         12    1    1    2    0    0 -0.15033678558E+02 -0.67762616278E+01 -0.88740736999E+01  0.18726409070E+02  0.00000000000E+00 0. -1.
         11    1    3    3    0    0  0.81604347900E+01  0.84703019029E+00 -0.22279272482E+02  0.23741864684E+02  0.51100000000E-03 0. -1.
        -11    1    3    3    0    0  0.14935008307E+02  0.12600764546E+02  0.44522863295E+01  0.20041372061E+02  0.51100000000E-03 0.  1.
        -12    1    3    3    0    0 -0.80617645392E+01 -0.66715331084E+01  0.26701059852E+02  0.28678354184E+02  0.00000000000E+00 0.  1.
</event>
<event>
 7    1  0.2932741E-013  0.7246155E+02  0.7816164E-02  0.1226708E+00
        -11   -1    0    0    0    0  0.00000000000E+00  0.00000000000E+00  0.45593999997E+02  0.45594000000E+02  0.51100000000E-03 0. -1.
         11   -1    0    0    0    0 -0.00000000000E+00 -0.00000000000E+00 -0.45593999997E+02  0.45594000000E+02  0.51100000000E-03 0.  1.
    9900012    2    1    2    0    0  0.91736125024E+01  0.55942020585E+00 -0.16315995524E+02  0.72461552733E+02  0.69999977123E+02 0.  0.
         12    1    1    2    0    0 -0.91736125024E+01 -0.55942020585E+00  0.16315995524E+02  0.18726447267E+02  0.00000000000E+00 0. -1.
         11    1    3    3    0    0  0.99230443093E+01  0.86182141796E+01 -0.84957460631E+01  0.15649860237E+02  0.51100000000E-03 0.  1.
        -11    1    3    3    0    0  0.29695015414E+01  0.34219050566E+01 -0.30652934454E+02  0.30985960765E+02  0.51100000000E-03 0. -1.
         12    1    3    3    0    0 -0.37189333483E+01 -0.11480699030E+02  0.22832684993E+02  0.25825731731E+02  0.00000000000E+00 0. -1.
</event>
<event>
 7    1  0.2932741E-013  0.7246168E+02  0.7816164E-02  0.1226708E+00
        -11   -1    0    0    0    0  0.00000000000E+00  0.00000000000E+00  0.45593999997E+02  0.45594000000E+02  0.51100000000E-03 0. -1.
         11   -1    0    0    0    0 -0.00000000000E+00 -0.00000000000E+00 -0.45593999997E+02  0.45594000000E+02  0.51100000000E-03 0.  1.
    9900012    2    1    2    0    0  0.12996363310E+02 -0.36926592396E+01  0.12966644400E+02  0.72461680059E+02  0.70000142988E+02 0.  0.
         12    1    1    2    0    0 -0.12996363310E+02  0.36926592396E+01 -0.12966644400E+02  0.18726319941E+02  0.00000000000E+00 0. -1.
         11    1    3    3    0    0  0.28331092042E+02  0.11179252086E+02  0.22907801875E+02  0.38110285232E+02  0.51100000000E-03 0. -1.
        -11    1    3    3    0    0 -0.22505896468E+01  0.55594112039E+01  0.31590545858E+01  0.67787781222E+01  0.51100000000E-03 0.  1.
        -12    1    3    3    0    0 -0.13084139085E+02 -0.20431322529E+02 -0.13100212060E+02  0.27572616704E+02  0.00000000000E+00 0.  1.
</event>
<event>
 7    1  0.2932741E-013  0.7246170E+02  0.7816164E-02  0.1226708E+00
        -11   -1    0    0    0    0  0.00000000000E+00  0.00000000000E+00  0.45593999997E+02  0.45594000000E+02  0.51100000000E-03 0. -1.
         11   -1    0    0    0    0 -0.00000000000E+00 -0.00000000000E+00 -0.45593999997E+02  0.45594000000E+02  0.51100000000E-03 0.  1.
    9900012    2    1    2    0    0  0.18704154305E+02  0.94695304287E-01 -0.90547575447E+00  0.72461701866E+02  0.70000171396E+02 0.  0.
         12    1    1    2    0    0 -0.18704154305E+02 -0.94695304287E-01  0.90547575447E+00  0.18726298134E+02  0.00000000000E+00 0. -1.
         11    1    3    3    0    0  0.90610653383E+01  0.13344504344E+02 -0.23621292228E+01  0.16302096675E+02  0.51100000000E-03 0. -1.
        -11    1    3    3    0    0  0.23028935814E+02  0.21523875866E+01 -0.16952582938E+02  0.28676727944E+02  0.51100000000E-03 0.  1.
        -12    1    3    3    0    0 -0.13385846847E+02 -0.15402196627E+02  0.18409236406E+02  0.27482877247E+02  0.00000000000E+00 0.  1.
</event>
<event>
 7    1  0.2932741E-013  0.7246161E+02  0.7816164E-02  0.1226708E+00
        -11   -1    0    0    0    0  0.00000000000E+00  0.00000000000E+00  0.45593999997E+02  0.45594000000E+02  0.51100000000E-03 0. -1.
         11   -1    0    0    0    0 -0.00000000000E+00 -0.00000000000E+00 -0.45593999997E+02  0.45594000000E+02  0.51100000000E-03 0.  1.
    9900012    2    1    2    0    0 -0.12337534437E+02 -0.10158854140E+02 -0.97601512224E+01  0.72461611525E+02  0.70000053711E+02 0.  0.
         12    1    1    2    0    0  0.12337534437E+02  0.10158854140E+02  0.97601512224E+01  0.18726388475E+02  0.00000000000E+00 0. -1.
         11    1    3    3    0    0  0.19935419828E+02  0.98957861219E+00  0.14579258844E-01  0.19959971001E+02  0.51100000000E-03 0. -1.
        -11    1    3    3    0    0  0.64648094145E+01 -0.94493255264E+01  0.27113989111E+01  0.11765848800E+02  0.51100000000E-03 0.  1.
        -12    1    3    3    0    0 -0.38737763679E+02 -0.16991072254E+01 -0.12486129392E+02  0.40735791725E+02  0.00000000000E+00 0.  1.
</event>
<event>
 7    1  0.2932741E-013  0.7246156E+02  0.7816164E-02  0.1226708E+00
        -11   -1    0    0    0    0  0.00000000000E+00  0.00000000000E+00  0.45593999997E+02  0.45594000000E+02  0.51100000000E-03 0.  1.
         11   -1    0    0    0    0 -0.00000000000E+00 -0.00000000000E+00 -0.45593999997E+02  0.45594000000E+02  0.51100000000E-03 0. -1.
    9900012    2    1    2    0    0  0.14158400741E+02  0.84148960898E+01  0.89111550886E+01  0.72461562198E+02  0.69999989452E+02 0.  0.
         12    1    1    2    0    0 -0.14158400741E+02 -0.84148960898E+01 -0.89111550886E+01  0.18726437802E+02  0.00000000000E+00 0. -1.
         11    1    3    3    0    0  0.13232170938E+01  0.29395094323E+01 -0.69994809267E+01  0.77061243621E+01  0.51100000000E-03 0. -1.
        -11    1    3    3    0    0  0.36746798082E+02  0.10273107520E+02  0.12374412708E+02  0.40112217559E+02  0.51100000000E-03 0.  1.
         12    1    3    3    0    0 -0.23911614434E+02 -0.47977208623E+01  0.35362233074E+01  0.24643220276E+02  0.00000000000E+00 0. -1.
</event>
<event>
 7    1  0.2932741E-013  0.7246159E+02  0.7816164E-02  0.1226708E+00
        -11   -1    0    0    0    0  0.00000000000E+00  0.00000000000E+00  0.45593999997E+02  0.45594000000E+02  0.51100000000E-03 0.  1.
         11   -1    0    0    0    0 -0.00000000000E+00 -0.00000000000E+00 -0.45593999997E+02  0.45594000000E+02  0.51100000000E-03 0. -1.
    9900012    2    1    2    0    0  0.17554608974E+02 -0.37544868812E+01 -0.53308339796E+01  0.72461594608E+02  0.70000031673E+02 0.  0.
         12    1    1    2    0    0 -0.17554608974E+02  0.37544868812E+01  0.53308339796E+01  0.18726405392E+02  0.00000000000E+00 0. -1.
         11    1    3    3    0    0  0.21659144532E+02 -0.17372805112E+02 -0.19484159192E+02  0.33919984655E+02  0.51100000000E-03 0. -1.
        -11    1    3    3    0    0  0.81822775467E+01  0.11250044100E+01  0.18696409280E+02  0.20439447669E+02  0.51100000000E-03 0.  1.
        -12    1    3    3    0    0 -0.12286813105E+02  0.12493313821E+02 -0.45430840680E+01  0.18102162284E+02  0.00000000000E+00 0.  1.
</event>
<event>
 7    1  0.2932741E-013  0.7246160E+02  0.7816164E-02  0.1226708E+00
        -11   -1    0    0    0    0  0.00000000000E+00  0.00000000000E+00  0.45593999997E+02  0.45594000000E+02  0.51100000000E-03 0. -1.
         11   -1    0    0    0    0 -0.00000000000E+00 -0.00000000000E+00 -0.45593999997E+02  0.45594000000E+02  0.51100000000E-03 0.  1.
    9900012    2    1    2    0    0  0.77533080191E+01 -0.44495985779E+01 -0.16454951878E+02  0.72461597408E+02  0.70000035320E+02 0.  0.
         12    1    1    2    0    0 -0.77533080191E+01  0.44495985779E+01  0.16454951878E+02  0.18726402592E+02  0.00000000000E+00 0. -1.
         11    1    3    3    0    0 -0.19147487140E+01  0.83738888212E+01  0.25271558845E+00  0.85937269015E+01  0.51100000000E-03 0. -1.
        -11    1    3    3    0    0  0.33416336810E+02 -0.48983879508E+00 -0.16112365596E+02  0.37101210670E+02  0.51100000000E-03 0.  1.
        -12    1    3    3    0    0 -0.23748280076E+02 -0.12333648604E+02 -0.59530186993E+00  0.26766659836E+02  0.00000000000E+00 0.  1.
</event>
<event>
 7    1  0.2932741E-013  0.7246155E+02  0.7816164E-02  0.1226708E+00
        -11   -1    0    0    0    0  0.00000000000E+00  0.00000000000E+00  0.45593999997E+02  0.45594000000E+02  0.51100000000E-03 0.  1.
         11   -1    0    0    0    0 -0.00000000000E+00 -0.00000000000E+00 -0.45593999997E+02  0.45594000000E+02  0.51100000000E-03 0. -1.
    9900012    2    1    2    0    0 -0.83835116441E+01 -0.78665840930E+01  0.14782197590E+02  0.72461554038E+02  0.69999978823E+02 0.  0.
         12    1    1    2    0    0  0.83835116441E+01  0.78665840930E+01 -0.14782197590E+02  0.18726445962E+02  0.00000000000E+00 0. -1.
         11    1    3    3    0    0  0.18557099620E+00  0.99525828862E+01 -0.63910677505E+01  0.11829374031E+02  0.51100000000E-03 0. -1.
        -11    1    3    3    0    0  0.82496660967E-01  0.11465046932E+02  0.27190991380E+02  0.29509390359E+02  0.51100000000E-03 0.  1.
         12    1    3    3    0    0 -0.86515793013E+01 -0.29284213911E+02 -0.60177260393E+01  0.31122789648E+02  0.00000000000E+00 0. -1.
</event>
<event>
 7    1  0.2932741E-013  0.7246114E+02  0.7816164E-02  0.1226709E+00
        -11   -1    0    0    0    0  0.00000000000E+00  0.00000000000E+00  0.45593999997E+02  0.45594000000E+02  0.51100000000E-03 0.  1.
         11   -1    0    0    0    0 -0.00000000000E+00 -0.00000000000E+00 -0.45593999997E+02  0.45594000000E+02  0.51100000000E-03 0. -1.
    9900012    2    1    2    0    0  0.14502633614E+02 -0.69757812151E+01  0.95763908429E+01  0.72461143166E+02  0.69999443584E+02 0.  0.
         12    1    1    2    0    0 -0.14502633614E+02  0.69757812151E+01 -0.95763908429E+01  0.18726856834E+02  0.00000000000E+00 0. -1.
         11    1    3    3    0    0  0.12383825686E+02 -0.12638715617E+02  0.46127418305E+01  0.18285886867E+02  0.51100000000E-03 0. -1.
        -11    1    3    3    0    0  0.25503680150E+02  0.11869175613E+02 -0.39185826930E+01  0.28401942214E+02  0.51100000000E-03 0.  1.
         12    1    3    3    0    0 -0.23384872223E+02 -0.62062412118E+01  0.88822317053E+01  0.25773314085E+02  0.00000000000E+00 0. -1.
</event>
<event>
 7    1  0.2932741E-013  0.7246158E+02  0.7816164E-02  0.1226708E+00
        -11   -1    0    0    0    0  0.00000000000E+00  0.00000000000E+00  0.45593999997E+02  0.45594000000E+02  0.51100000000E-03 0.  1.
         11   -1    0    0    0    0 -0.00000000000E+00 -0.00000000000E+00 -0.45593999997E+02  0.45594000000E+02  0.51100000000E-03 0. -1.
    9900012    2    1    2    0    0 -0.16804695517E+02  0.83261328758E+00  0.82211837499E+01  0.72461577529E+02  0.70000009424E+02 0.  0.
         12    1    1    2    0    0  0.16804695517E+02 -0.83261328758E+00 -0.82211837499E+01  0.18726422471E+02  0.00000000000E+00 0. -1.
         11    1    3    3    0    0  0.54396388450E+01  0.12767147235E+01 -0.22276558658E+01  0.60151577009E+01  0.51100000000E-03 0. -1.
        -11    1    3    3    0    0 -0.34913410651E+02  0.15136827078E+02 -0.83276892619E+01  0.38954077912E+02  0.51100000000E-03 0.  1.
         12    1    3    3    0    0  0.12669076288E+02 -0.15580928514E+02  0.18776528878E+02  0.27492341916E+02  0.00000000000E+00 0. -1.
</event>
<event>
 7    1  0.2932741E-013  0.7246207E+02  0.7816164E-02  0.1226707E+00
        -11   -1    0    0    0    0  0.00000000000E+00  0.00000000000E+00  0.45593999997E+02  0.45594000000E+02  0.51100000000E-03 0. -1.
         11   -1    0    0    0    0 -0.00000000000E+00 -0.00000000000E+00 -0.45593999997E+02  0.45594000000E+02  0.51100000000E-03 0.  1.
    9900012    2    1    2    0    0 -0.78633719331E+01 -0.14393106851E+02 -0.90369459884E+01  0.72462067826E+02  0.70000648124E+02 0.  0.
         12    1    1    2    0    0  0.78633719331E+01  0.14393106851E+02  0.90369459884E+01  0.18725932174E+02  0.00000000000E+00 0. -1.
         11    1    3    3    0    0 -0.65857096110E+01 -0.54650673722E+01 -0.20439375611E+02  0.22158668916E+02  0.51100000000E-03 0.  1.
        -11    1    3    3    0    0 -0.19356734627E+02 -0.18742434364E+02  0.33890474358E+00  0.26945813737E+02  0.51100000000E-03 0. -1.
         12    1    3    3    0    0  0.18079072305E+02  0.98143948847E+01  0.11063524879E+02  0.23357585173E+02  0.00000000000E+00 0. -1.
</event>
<event>
 7    1  0.2932741E-013  0.7246158E+02  0.7816164E-02  0.1226708E+00
        -11   -1    0    0    0    0  0.00000000000E+00  0.00000000000E+00  0.45593999997E+02  0.45594000000E+02  0.51100000000E-03 0. -1.
         11   -1    0    0    0    0 -0.00000000000E+00 -0.00000000000E+00 -0.45593999997E+02  0.45594000000E+02  0.51100000000E-03 0.  1.
    9900012    2    1    2    0    0  0.36342792978E+01  0.86725245601E+01 -0.16194386008E+02  0.72461579989E+02  0.70000012629E+02 0.  0.
         12    1    1    2    0    0 -0.36342792978E+01 -0.86725245601E+01  0.16194386008E+02  0.18726420011E+02  0.00000000000E+00 0. -1.
         11    1    3    3    0    0  0.72350310846E+01 -0.37866750454E+00 -0.82775905276E+01  0.11000344044E+02  0.51100000000E-03 0. -1.
        -11    1    3    3    0    0  0.76791070237E+01 -0.23910901031E+02  0.21269951762E+01  0.25203650163E+02  0.51100000000E-03 0.  1.
         12    1    3    3    0    0 -0.11279858810E+02  0.32962093095E+02 -0.10043790657E+02  0.36257585782E+02  0.00000000000E+00 0. -1.
</event>
<event>
 7    1  0.2932741E-013  0.7246156E+02  0.7816164E-02  0.1226708E+00
        -11   -1    0    0    0    0  0.00000000000E+00  0.00000000000E+00  0.45593999997E+02  0.45594000000E+02  0.51100000000E-03 0.  1.
         11   -1    0    0    0    0 -0.00000000000E+00 -0.00000000000E+00 -0.45593999997E+02  0.45594000000E+02  0.51100000000E-03 0. -1.
    9900012    2    1    2    0    0  0.59044409818E+01 -0.47629338516E+01  0.17121087472E+02  0.72461558843E+02  0.69999985082E+02 0.  0.
         12    1    1    2    0    0 -0.59044409818E+01  0.47629338516E+01 -0.17121087472E+02  0.18726441157E+02  0.00000000000E+00 0. -1.
         11    1    3    3    0    0  0.12131918856E+02 -0.83505121674E+01 -0.25909356920E+01  0.14954178567E+02  0.51100000000E-03 0. -1.
        -11    1    3    3    0    0 -0.16875680861E+02 -0.19365763047E+02  0.19421521301E+02  0.32202746355E+02  0.51100000000E-03 0.  1.
         12    1    3    3    0    0  0.10648202986E+02  0.22953341363E+02  0.29050186373E+00  0.25304633921E+02  0.00000000000E+00 0. -1.
</event>
<event>
 7    1  0.2932741E-013  0.7246160E+02  0.7816164E-02  0.1226708E+00
        -11   -1    0    0    0    0  0.00000000000E+00  0.00000000000E+00  0.45593999997E+02  0.45594000000E+02  0.51100000000E-03 0.  1.
         11   -1    0    0    0    0 -0.00000000000E+00 -0.00000000000E+00 -0.45593999997E+02  0.45594000000E+02  0.51100000000E-03 0. -1.
    9900012    2    1    2    0    0 -0.11822187099E+02 -0.12703979285E+02  0.70372355366E+01  0.72461604685E+02  0.70000044801E+02 0.  0.
         12    1    1    2    0    0  0.11822187099E+02  0.12703979285E+02 -0.70372355366E+01  0.18726395315E+02  0.00000000000E+00 0. -1.
         11    1    3    3    0    0 -0.13398256534E+02 -0.16142703650E+01 -0.18945957981E+02  0.23260878552E+02  0.51100000000E-03 0. -1.
        -11    1    3    3    0    0  0.70893347251E+01  0.13831321746E+02  0.55427424224E+01  0.16501094567E+02  0.51100000000E-03 0.  1.
         12    1    3    3    0    0 -0.55132652905E+01 -0.24921030666E+02  0.20440451095E+02  0.32699631566E+02  0.00000000000E+00 0. -1.
</event>
<event>
 7    1  0.3666380E-013  0.7246125E+02  0.7816164E-02  0.1226709E+00
        -11   -1    0    0    0    0  0.00000000000E+00  0.00000000000E+00  0.45593999997E+02  0.45594000000E+02  0.51100000000E-03 0. -1.
         11   -1    0    0    0    0 -0.00000000000E+00 -0.00000000000E+00 -0.45593999997E+02  0.45594000000E+02  0.51100000000E-03 0.  1.
    9900012    2    1    2    0    0 -0.93750471635E+01 -0.27705192936E+01 -0.15972593407E+02  0.72461253710E+02  0.69999587589E+02 0.  0.
         12    1    1    2    0    0  0.93750471635E+01  0.27705192936E+01  0.15972593407E+02  0.18726746290E+02  0.00000000000E+00 0. -1.
         11    1    3    3    0    0  0.47712546769E+01 -0.10139947652E+02  0.19716044339E+02  0.22678311538E+02  0.51100000000E-03 0. -1.
        -11    1    3    3    0    0  0.78559005706E+01 -0.27856935855E+01 -0.17825095859E+02  0.19677634644E+02  0.51100000000E-03 0.  1.
        -12    1    3    3    0    0 -0.22002202411E+02  0.10155121944E+02 -0.17863541887E+02  0.30105307528E+02  0.00000000000E+00 0.  1.
</event>
<event>
 7    1  0.2932741E-013  0.7246163E+02  0.7816164E-02  0.1226708E+00
        -11   -1    0    0    0    0  0.00000000000E+00  0.00000000000E+00  0.45593999997E+02  0.45594000000E+02  0.51100000000E-03 0.  1.
         11   -1    0    0    0    0 -0.00000000000E+00 -0.00000000000E+00 -0.45593999997E+02  0.45594000000E+02  0.51100000000E-03 0. -1.
    9900012    2    1    2    0    0  0.91270464876E+01  0.56109858253E+01 -0.15358739457E+02  0.72461627761E+02  0.70000074861E+02 0.  0.
         12    1    1    2    0    0 -0.91270464876E+01 -0.56109858253E+01  0.15358739457E+02  0.18726372239E+02  0.00000000000E+00 0. -1.
         11    1    3    3    0    0  0.84284079986E+00  0.19708502315E+02 -0.17338085732E+02  0.26262990333E+02  0.51100000000E-03 0. -1.
        -11    1    3    3    0    0 -0.11606046983E+02  0.69665327046E+01  0.91683410843E+01  0.16349048382E+02  0.51100000000E-03 0.  1.
        -12    1    3    3    0    0  0.19890252671E+02 -0.21064049195E+02 -0.71889948093E+01  0.29849589045E+02  0.00000000000E+00 0.  1.
</event>
<event>
 7    1  0.2932741E-013  0.7246159E+02  0.7816164E-02  0.1226708E+00
        -11   -1    0    0    0    0  0.00000000000E+00  0.00000000000E+00  0.45593999997E+02  0.45594000000E+02  0.51100000000E-03 0.  1.
         11   -1    0    0    0    0 -0.00000000000E+00 -0.00000000000E+00 -0.45593999997E+02  0.45594000000E+02  0.51100000000E-03 0. -1.
    9900012    2    1    2    0    0 -0.16918667793E+02  0.33663685374E+01  0.72872942739E+01  0.72461590444E+02  0.70000026249E+02 0.  0.
         12    1    1    2    0    0  0.16918667793E+02 -0.33663685374E+01 -0.72872942739E+01  0.18726409556E+02  0.00000000000E+00 0. -1.
         11    1    3    3    0    0 -0.88984136720E+01 -0.25746567616E+02  0.23720630601E+01  0.27343997391E+02  0.51100000000E-03 0. -1.
        -11    1    3    3    0    0  0.55212791745E+01  0.11192795323E+01 -0.93411818603E+01  0.10908482443E+02  0.51100000000E-03 0.  1.
        -12    1    3    3    0    0 -0.13541533296E+02  0.27993656621E+02  0.14256413074E+02  0.34209110611E+02  0.00000000000E+00 0.  1.
</event>
<event>
 7    1  0.2932741E-013  0.7246157E+02  0.7816164E-02  0.1226708E+00
        -11   -1    0    0    0    0  0.00000000000E+00  0.00000000000E+00  0.45593999997E+02  0.45594000000E+02  0.51100000000E-03 0.  1.
         11   -1    0    0    0    0 -0.00000000000E+00 -0.00000000000E+00 -0.45593999997E+02  0.45594000000E+02  0.51100000000E-03 0. -1.
    9900012    2    1    2    0    0 -0.10041711778E+02 -0.92555071680E+01  0.12813232963E+02  0.72461566081E+02  0.69999994511E+02 0.  0.
         12    1    1    2    0    0  0.10041711778E+02  0.92555071680E+01 -0.12813232963E+02  0.18726433919E+02  0.00000000000E+00 0. -1.
         11    1    3    3    0    0  0.16339487701E+02  0.11559899187E+02 -0.35152004456E+01  0.20321583648E+02  0.51100000000E-03 0. -1.
        -11    1    3    3    0    0 -0.43264842237E+01 -0.37658655713E+01 -0.11437255005E+02  0.12794960397E+02  0.51100000000E-03 0.  1.
        -12    1    3    3    0    0 -0.22054715255E+02 -0.17049540784E+02  0.27765688414E+02  0.39345022036E+02  0.00000000000E+00 0.  1.
</event>
<event>
 7    1  0.2932741E-013  0.7246155E+02  0.7816164E-02  0.1226708E+00
        -11   -1    0    0    0    0  0.00000000000E+00  0.00000000000E+00  0.45593999997E+02  0.45594000000E+02  0.51100000000E-03 0. -1.
         11   -1    0    0    0    0 -0.00000000000E+00 -0.00000000000E+00 -0.45593999997E+02  0.45594000000E+02  0.51100000000E-03 0.  1.
    9900012    2    1    2    0    0 -0.94601767552E+01  0.16027562028E+02 -0.20741443138E+01  0.72461554437E+02  0.69999979343E+02 0.  0.
         12    1    1    2    0    0  0.94601767552E+01 -0.16027562028E+02  0.20741443138E+01  0.18726445563E+02  0.00000000000E+00 0. -1.
         11    1    3    3    0    0 -0.67564974357E+01 -0.27698472302E+01 -0.60393828922E+01  0.94760992637E+01  0.51100000000E-03 0. -1.
        -11    1    3    3    0    0  0.21647037078E+02  0.20129683485E+02 -0.13987966221E+02  0.32702623300E+02  0.51100000000E-03 0.  1.
         12    1    3    3    0    0 -0.24350716397E+02 -0.13322742266E+01  0.17953204800E+02  0.30282831873E+02  0.00000000000E+00 0. -1.
</event>
<event>
 7    1  0.2932741E-013  0.7246156E+02  0.7816164E-02  0.1226708E+00
        -11   -1    0    0    0    0  0.00000000000E+00  0.00000000000E+00  0.45593999997E+02  0.45594000000E+02  0.51100000000E-03 0.  1.
         11   -1    0    0    0    0 -0.00000000000E+00 -0.00000000000E+00 -0.45593999997E+02  0.45594000000E+02  0.51100000000E-03 0. -1.
    9900012    2    1    2    0    0 -0.13697860240E+02  0.65483412584E+01  0.10962097315E+02  0.72461555438E+02  0.69999980647E+02 0.  0.
         12    1    1    2    0    0  0.13697860240E+02 -0.65483412584E+01 -0.10962097315E+02  0.18726444562E+02  0.00000000000E+00 0. -1.
         11    1    3    3    0    0 -0.15986532246E+02  0.22538925040E+02 -0.18754995068E+02  0.33396439862E+02  0.51100000000E-03 0. -1.
        -11    1    3    3    0    0 -0.29628075814E+01 -0.91846996119E+01  0.17518733798E+01  0.98084655439E+01  0.51100000000E-03 0.  1.
        -12    1    3    3    0    0  0.52514795882E+01 -0.68058841693E+01  0.27965219003E+02  0.29256650032E+02  0.00000000000E+00 0.  1.
</event>
<event>
 7    1  0.2932741E-013  0.7246155E+02  0.7816164E-02  0.1226708E+00
        -11   -1    0    0    0    0  0.00000000000E+00  0.00000000000E+00  0.45593999997E+02  0.45594000000E+02  0.51100000000E-03 0.  1.
         11   -1    0    0    0    0 -0.00000000000E+00 -0.00000000000E+00 -0.45593999997E+02  0.45594000000E+02  0.51100000000E-03 0. -1.
    9900012    2    1    2    0    0  0.16222677820E+02 -0.23347506866E+01  0.90583420625E+01  0.72461550861E+02  0.69999974685E+02 0.  0.
         12    1    1    2    0    0 -0.16222677820E+02  0.23347506866E+01 -0.90583420625E+01  0.18726449139E+02  0.00000000000E+00 0. -1.
         11    1    3    3    0    0 -0.41044138626E+01 -0.95624579984E+01 -0.19094031831E+02  0.21745548233E+02  0.51100000000E-03 0. -1.
        -11    1    3    3    0    0 -0.63471156096E+01  0.87427882440E+01  0.20086743223E+02  0.22807881892E+02  0.51100000000E-03 0.  1.
         12    1    3    3    0    0  0.26674207292E+02 -0.15150809322E+01  0.80656306705E+01  0.27908120736E+02  0.00000000000E+00 0. -1.
</event>
<event>
 7    1  0.2932741E-013  0.7246156E+02  0.7816164E-02  0.1226708E+00
        -11   -1    0    0    0    0  0.00000000000E+00  0.00000000000E+00  0.45593999997E+02  0.45594000000E+02  0.51100000000E-03 0. -1.
         11   -1    0    0    0    0 -0.00000000000E+00 -0.00000000000E+00 -0.45593999997E+02  0.45594000000E+02  0.51100000000E-03 0.  1.
    9900012    2    1    2    0    0 -0.30389943346E+01  0.18267194817E+02 -0.27845356175E+01  0.72461560626E+02  0.69999987405E+02 0.  0.
         12    1    1    2    0    0  0.30389943346E+01 -0.18267194817E+02  0.27845356175E+01  0.18726439374E+02  0.00000000000E+00 0. -1.
         11    1    3    3    0    0  0.13675663636E+02 -0.24062925977E+01  0.18139310047E+02  0.22844005542E+02  0.51100000000E-03 0. -1.
        -11    1    3    3    0    0  0.74058798754E+01  0.15510868944E+02 -0.17816029599E+02  0.24755706879E+02  0.51100000000E-03 0.  1.
        -12    1    3    3    0    0 -0.24120537846E+02  0.51626184703E+01 -0.31078160657E+01  0.24861848205E+02  0.00000000000E+00 0.  1.
</event>
<event>
 7    1  0.2932741E-013  0.7246157E+02  0.7816164E-02  0.1226708E+00
        -11   -1    0    0    0    0  0.00000000000E+00  0.00000000000E+00  0.45593999997E+02  0.45594000000E+02  0.51100000000E-03 0. -1.
         11   -1    0    0    0    0 -0.00000000000E+00 -0.00000000000E+00 -0.45593999997E+02  0.45594000000E+02  0.51100000000E-03 0.  1.
    9900012    2    1    2    0    0 -0.13081041726E+02  0.12477779472E+02 -0.48857514644E+01  0.72461569466E+02  0.69999998921E+02 0.  0.
         12    1    1    2    0    0  0.13081041726E+02 -0.12477779472E+02  0.48857514644E+01  0.18726430534E+02  0.00000000000E+00 0. -1.
         11    1    3    3    0    0 -0.11559819681E+01  0.27554451908E+02  0.17868290553E+02  0.32861222160E+02  0.51100000000E-03 0. -1.
        -11    1    3    3    0    0 -0.90009710193E+01  0.51876189859E+01 -0.22608499121E+01  0.10632041790E+02  0.51100000000E-03 0.  1.
         12    1    3    3    0    0 -0.29240887381E+01 -0.20264291423E+02 -0.20493192106E+02  0.28968305516E+02  0.00000000000E+00 0. -1.
</event>
<event>
 7    1  0.2932741E-013  0.7246155E+02  0.7816164E-02  0.1226708E+00
        -11   -1    0    0    0    0  0.00000000000E+00  0.00000000000E+00  0.45593999997E+02  0.45594000000E+02  0.51100000000E-03 0.  1.
         11   -1    0    0    0    0 -0.00000000000E+00 -0.00000000000E+00 -0.45593999997E+02  0.45594000000E+02  0.51100000000E-03 0. -1.
    9900012    2    1    2    0    0  0.66755867100E+01 -0.14858969006E+02 -0.92372882968E+01  0.72461550446E+02  0.69999974143E+02 0.  0.
         12    1    1    2    0    0 -0.66755867100E+01  0.14858969006E+02  0.92372882968E+01  0.18726449554E+02  0.00000000000E+00 0. -1.
         11    1    3    3    0    0  0.90197828796E+01 -0.36879333338E+02  0.93530744539E+01  0.39101428524E+02  0.51100000000E-03 0. -1.
        -11    1    3    3    0    0 -0.94794869092E+01  0.10980412018E+02 -0.87623568718E+01  0.16947242205E+02  0.51100000000E-03 0.  1.
        -12    1    3    3    0    0  0.71352907396E+01  0.11039952314E+02 -0.98280058790E+01  0.16412879717E+02  0.00000000000E+00 0.  1.
</event>
<event>
 7    1  0.2932741E-013  0.7246160E+02  0.7816164E-02  0.1226708E+00
        -11   -1    0    0    0    0  0.00000000000E+00  0.00000000000E+00  0.45593999997E+02  0.45594000000E+02  0.51100000000E-03 0. -1.
         11   -1    0    0    0    0 -0.00000000000E+00 -0.00000000000E+00 -0.45593999997E+02  0.45594000000E+02  0.51100000000E-03 0.  1.
    9900012    2    1    2    0    0 -0.52139042868E+01  0.16204762700E+02  0.78037750689E+01  0.72461600522E+02  0.70000039377E+02 0.  0.
         12    1    1    2    0    0  0.52139042868E+01 -0.16204762700E+02 -0.78037750689E+01  0.18726399478E+02  0.00000000000E+00 0. -1.
         11    1    3    3    0    0 -0.81611520100E+01  0.11209794840E+02 -0.64624733344E+00  0.13880977573E+02  0.51100000000E-03 0. -1.
        -11    1    3    3    0    0 -0.12008595763E+02  0.18016248783E+02 -0.16129586700E+02  0.26999169612E+02  0.51100000000E-03 0.  1.
         12    1    3    3    0    0  0.14955843486E+02 -0.13021280922E+02  0.24579609102E+02  0.31581453337E+02  0.00000000000E+00 0. -1.
</event>
<event>
 7    1  0.2932741E-013  0.7246154E+02  0.7816164E-02  0.1226708E+00
        -11   -1    0    0    0    0  0.00000000000E+00  0.00000000000E+00  0.45593999997E+02  0.45594000000E+02  0.51100000000E-03 0. -1.
         11   -1    0    0    0    0 -0.00000000000E+00 -0.00000000000E+00 -0.45593999997E+02  0.45594000000E+02  0.51100000000E-03 0.  1.
    9900012    2    1    2    0    0  0.46385238813E+01  0.71747770727E-01 -0.18142746265E+02  0.72461540282E+02  0.69999960903E+02 0.  0.
         12    1    1    2    0    0 -0.46385238813E+01 -0.71747770727E-01  0.18142746265E+02  0.18726459718E+02  0.00000000000E+00 0. -1.
         11    1    3    3    0    0  0.10315799296E+02  0.77264521970E+01  0.26924415533E+01  0.13166739173E+02  0.51100000000E-03 0. -1.
        -11    1    3    3    0    0  0.64458617846E+01 -0.83047752027E+01 -0.37347951192E+02  0.38799328394E+02  0.51100000000E-03 0.  1.
         12    1    3    3    0    0 -0.12123137200E+02  0.65007077644E+00  0.16512763374E+02  0.20495472715E+02  0.00000000000E+00 0. -1.
</event>
<event>
 7    1  0.2932741E-013  0.7246157E+02  0.7816164E-02  0.1226708E+00
        -11   -1    0    0    0    0  0.00000000000E+00  0.00000000000E+00  0.45593999997E+02  0.45594000000E+02  0.51100000000E-03 0.  1.
         11   -1    0    0    0    0 -0.00000000000E+00 -0.00000000000E+00 -0.45593999997E+02  0.45594000000E+02  0.51100000000E-03 0. -1.
    9900012    2    1    2    0    0  0.99900515036E+01 -0.94099457975E+01  0.12740922609E+02  0.72461566333E+02  0.69999994839E+02 0.  0.
         12    1    1    2    0    0 -0.99900515036E+01  0.94099457975E+01 -0.12740922609E+02  0.18726433667E+02  0.00000000000E+00 0. -1.
         11    1    3    3    0    0  0.51453194289E+01  0.20387022295E+02  0.57672250587E+01  0.21802886855E+02  0.51100000000E-03 0.  1.
        -11    1    3    3    0    0 -0.14705441540E+02 -0.18719065657E+02 -0.62164435353E+01  0.24602796598E+02  0.51100000000E-03 0. -1.
         12    1    3    3    0    0  0.19550173615E+02 -0.11077902436E+02  0.13190141086E+02  0.26055882879E+02  0.00000000000E+00 0. -1.
</event>
<event>
 7    1  0.2932741E-013  0.7246163E+02  0.7816164E-02  0.1226708E+00
        -11   -1    0    0    0    0  0.00000000000E+00  0.00000000000E+00  0.45593999997E+02  0.45594000000E+02  0.51100000000E-03 0. -1.
         11   -1    0    0    0    0 -0.00000000000E+00 -0.00000000000E+00 -0.45593999997E+02  0.45594000000E+02  0.51100000000E-03 0.  1.
    9900012    2    1    2    0    0  0.62146489466E+01 -0.15790974126E+02 -0.79183514892E+01  0.72461627803E+02  0.70000074915E+02 0.  0.
         12    1    1    2    0    0 -0.62146489466E+01  0.15790974126E+02  0.79183514892E+01  0.18726372197E+02  0.00000000000E+00 0. -1.
         11    1    3    3    0    0  0.22244283912E+01  0.25992664370E+02  0.24044629329E+01  0.26198246601E+02  0.51100000000E-03 0. -1.
        -11    1    3    3    0    0  0.29791029119E+01 -0.61519829208E+01  0.39172763668E+01  0.78782613825E+01  0.51100000000E-03 0.  1.
        -12    1    3    3    0    0  0.10111176435E+01 -0.35631655574E+02 -0.14240090789E+02  0.38385119819E+02  0.00000000000E+00 0.  1.
</event>
<event>
 7    1  0.2932741E-013  0.7246157E+02  0.7816164E-02  0.1226708E+00
        -11   -1    0    0    0    0  0.00000000000E+00  0.00000000000E+00  0.45593999997E+02  0.45594000000E+02  0.51100000000E-03 0.  1.
         11   -1    0    0    0    0 -0.00000000000E+00 -0.00000000000E+00 -0.45593999997E+02  0.45594000000E+02  0.51100000000E-03 0. -1.
    9900012    2    1    2    0    0  0.10704539958E+02  0.13524347536E+02  0.72927349274E+01  0.72461571224E+02  0.70000001211E+02 0.  0.
         12    1    1    2    0    0 -0.10704539958E+02 -0.13524347536E+02 -0.72927349274E+01  0.18726428776E+02  0.00000000000E+00 0. -1.
         11    1    3    3    0    0  0.68022018353E+01 -0.40613991816E+01  0.17103460554E+02  0.18849224820E+02  0.51100000000E-03 0.  1.
        -11    1    3    3    0    0 -0.13569636813E+02  0.28122444296E+01 -0.23257324828E+02  0.27072992454E+02  0.51100000000E-03 0. -1.
         12    1    3    3    0    0  0.17471974936E+02  0.14773502288E+02  0.13446599202E+02  0.26539353950E+02  0.00000000000E+00 0. -1.
</event>
<event>
 7    1  0.2932741E-013  0.7246176E+02  0.7816164E-02  0.1226708E+00
        -11   -1    0    0    0    0  0.00000000000E+00  0.00000000000E+00  0.45593999997E+02  0.45594000000E+02  0.51100000000E-03 0.  1.
         11   -1    0    0    0    0 -0.00000000000E+00 -0.00000000000E+00 -0.45593999997E+02  0.45594000000E+02  0.51100000000E-03 0. -1.
    9900012    2    1    2    0    0 -0.33769965986E+01 -0.18148038158E+02  0.31490553391E+01  0.72461763204E+02  0.70000251300E+02 0.  0.
         12    1    1    2    0    0  0.33769965986E+01  0.18148038158E+02 -0.31490553391E+01  0.18726236796E+02  0.00000000000E+00 0. -1.
         11    1    3    3    0    0  0.12946385274E+02 -0.28917606943E+01 -0.79644347493E+01  0.15472665986E+02  0.51100000000E-03 0. -1.
        -11    1    3    3    0    0  0.12546774906E+02 -0.19223647768E+02 -0.52768882834E+01  0.23554527045E+02  0.51100000000E-03 0.  1.
        -12    1    3    3    0    0 -0.28870156778E+02  0.39673703049E+01  0.16390378372E+02  0.33434570174E+02  0.00000000000E+00 0.  1.
</event>
<event>
 7    1  0.2932741E-013  0.7246152E+02  0.7816164E-02  0.1226708E+00
        -11   -1    0    0    0    0  0.00000000000E+00  0.00000000000E+00  0.45593999997E+02  0.45594000000E+02  0.51100000000E-03 0. -1.
         11   -1    0    0    0    0 -0.00000000000E+00 -0.00000000000E+00 -0.45593999997E+02  0.45594000000E+02  0.51100000000E-03 0.  1.
    9900012    2    1    2    0    0  0.13325413706E+02  0.14920974310E+01 -0.13072417405E+02  0.72461518697E+02  0.69999932784E+02 0.  0.
         12    1    1    2    0    0 -0.13325413706E+02 -0.14920974310E+01  0.13072417405E+02  0.18726481303E+02  0.00000000000E+00 0. -1.
         11    1    3    3    0    0  0.13709433424E+02  0.13028295327E+01 -0.12553915995E+02  0.18634557592E+02  0.51100000000E-03 0.  1.
        -11    1    3    3    0    0  0.25914530695E+02 -0.63747445136E+01  0.67112090975E+00  0.26695517832E+02  0.51100000000E-03 0. -1.
         12    1    3    3    0    0 -0.26298550413E+02  0.65640124120E+01 -0.11896223200E+01  0.27131443272E+02  0.00000000000E+00 0. -1.
</event>
<event>
 7    1  0.2932741E-013  0.7246177E+02  0.7816164E-02  0.1226707E+00
        -11   -1    0    0    0    0  0.00000000000E+00  0.00000000000E+00  0.45593999997E+02  0.45594000000E+02  0.51100000000E-03 0.  1.
         11   -1    0    0    0    0 -0.00000000000E+00 -0.00000000000E+00 -0.45593999997E+02  0.45594000000E+02  0.51100000000E-03 0. -1.
    9900012    2    1    2    0    0  0.14576652352E+02  0.87987979168E+01  0.77957818576E+01  0.72461765639E+02  0.70000254472E+02 0.  0.
         12    1    1    2    0    0 -0.14576652352E+02 -0.87987979168E+01 -0.77957818576E+01  0.18726234361E+02  0.00000000000E+00 0. -1.
         11    1    3    3    0    0  0.64985918871E+01 -0.24543400879E+02 -0.90501205082E+01  0.26953940430E+02  0.51100000000E-03 0. -1.
        -11    1    3    3    0    0  0.10270219033E+01 -0.94973770432E+00 -0.43586050951E+01  0.45775773432E+01  0.51100000000E-03 0.  1.
        -12    1    3    3    0    0  0.70510385621E+01  0.34291936500E+02  0.21204507461E+02  0.40930247866E+02  0.00000000000E+00 0.  1.
</event>
<event>
 7    1  0.2932741E-013  0.7246156E+02  0.7816164E-02  0.1226708E+00
        -11   -1    0    0    0    0  0.00000000000E+00  0.00000000000E+00  0.45593999997E+02  0.45594000000E+02  0.51100000000E-03 0. -1.
         11   -1    0    0    0    0 -0.00000000000E+00 -0.00000000000E+00 -0.45593999997E+02  0.45594000000E+02  0.51100000000E-03 0.  1.
    9900012    2    1    2    0    0 -0.32828659736E+00  0.38729686950E+01 -0.18318623238E+02  0.72461558375E+02  0.69999984473E+02 0.  0.
         12    1    1    2    0    0  0.32828659736E+00 -0.38729686950E+01  0.18318623238E+02  0.18726441625E+02  0.00000000000E+00 0. -1.
         11    1    3    3    0    0  0.11257152785E+02  0.15390549623E+02 -0.11365571319E+02  0.22198394496E+02  0.51100000000E-03 0.  1.
        -11    1    3    3    0    0  0.28833838272E+00  0.17912428770E+02 -0.42585632232E+01  0.18413951353E+02  0.51100000000E-03 0. -1.
        -12    1    3    3    0    0 -0.11873777765E+02 -0.29430009697E+02 -0.26944886956E+01  0.31849212526E+02  0.00000000000E+00 0.  1.
</event>
<event>
 7    1  0.2932741E-013  0.7246163E+02  0.7816164E-02  0.1226708E+00
        -11   -1    0    0    0    0  0.00000000000E+00  0.00000000000E+00  0.45593999997E+02  0.45594000000E+02  0.51100000000E-03 0. -1.
         11   -1    0    0    0    0 -0.00000000000E+00 -0.00000000000E+00 -0.45593999997E+02  0.45594000000E+02  0.51100000000E-03 0.  1.
    9900012    2    1    2    0    0 -0.67189355538E+00  0.10758514235E+02 -0.15312734924E+02  0.72461630348E+02  0.70000078231E+02 0.  0.
         12    1    1    2    0    0  0.67189355538E+00 -0.10758514235E+02  0.15312734924E+02  0.18726369652E+02  0.00000000000E+00 0. -1.
         11    1    3    3    0    0  0.79628085523E+01 -0.18488754045E+02  0.16903768727E+02  0.26286455517E+02  0.51100000000E-03 0. -1.
        -11    1    3    3    0    0  0.49837700277E+00 -0.10453770614E+01 -0.22341834704E+00  0.11794527783E+01  0.51100000000E-03 0.  1.
        -12    1    3    3    0    0 -0.91330791105E+01  0.30292645341E+02 -0.31993085304E+02  0.44995722053E+02  0.00000000000E+00 0.  1.
</event>
<event>
 7    1  0.2932741E-013  0.7246157E+02  0.7816164E-02  0.1226708E+00
        -11   -1    0    0    0    0  0.00000000000E+00  0.00000000000E+00  0.45593999997E+02  0.45594000000E+02  0.51100000000E-03 0.  1.
         11   -1    0    0    0    0 -0.00000000000E+00 -0.00000000000E+00 -0.45593999997E+02  0.45594000000E+02  0.51100000000E-03 0. -1.
    9900012    2    1    2    0    0 -0.90953205665E+01  0.15255695653E+02  0.59344920142E+01  0.72461566769E+02  0.69999995408E+02 0.  0.
         12    1    1    2    0    0  0.90953205665E+01 -0.15255695653E+02 -0.59344920142E+01  0.18726433231E+02  0.00000000000E+00 0. -1.
         11    1    3    3    0    0 -0.11232898538E+02 -0.22554301863E+01  0.67163723080E+01  0.13280611136E+02  0.51100000000E-03 0. -1.
        -11    1    3    3    0    0 -0.20497911133E+02 -0.72978412657E+01 -0.10584378116E+02  0.24196113496E+02  0.51100000000E-03 0.  1.
        -12    1    3    3    0    0  0.22635489105E+02  0.24808967105E+02  0.98024978220E+01  0.34984842138E+02  0.00000000000E+00 0.  1.
</event>
<event>
 7    1  0.2932741E-013  0.7246153E+02  0.7816164E-02  0.1226708E+00
        -11   -1    0    0    0    0  0.00000000000E+00  0.00000000000E+00  0.45593999997E+02  0.45594000000E+02  0.51100000000E-03 0. -1.
         11   -1    0    0    0    0 -0.00000000000E+00 -0.00000000000E+00 -0.45593999997E+02  0.45594000000E+02  0.51100000000E-03 0.  1.
    9900012    2    1    2    0    0  0.15062158636E+02 -0.82296315444E+01  0.74890144111E+01  0.72461526894E+02  0.69999943463E+02 0.  0.
         12    1    1    2    0    0 -0.15062158636E+02  0.82296315444E+01 -0.74890144111E+01  0.18726473106E+02  0.00000000000E+00 0. -1.
         11    1    3    3    0    0 -0.22606528148E+01 -0.15027317346E+02  0.18346863522E+02  0.23823060658E+02  0.51100000000E-03 0. -1.
        -11    1    3    3    0    0  0.31387347772E+02  0.91372974551E+01 -0.43954748745E+01  0.32984481269E+02  0.51100000000E-03 0.  1.
         12    1    3    3    0    0 -0.14064536321E+02 -0.23396116534E+01 -0.64623742359E+01  0.15653984968E+02  0.00000000000E+00 0. -1.
</event>
<event>
 7    1  0.2932741E-013  0.7246145E+02  0.7816164E-02  0.1226708E+00
        -11   -1    0    0    0    0  0.00000000000E+00  0.00000000000E+00  0.45593999997E+02  0.45594000000E+02  0.51100000000E-03 0.  1.
         11   -1    0    0    0    0 -0.00000000000E+00 -0.00000000000E+00 -0.45593999997E+02  0.45594000000E+02  0.51100000000E-03 0. -1.
    9900012    2    1    2    0    0  0.96086281256E+01 -0.14222011540E+02  0.74894777085E+01  0.72461451385E+02  0.69999845098E+02 0.  0.
         12    1    1    2    0    0 -0.96086281256E+01  0.14222011540E+02 -0.74894777085E+01  0.18726548615E+02  0.00000000000E+00 0. -1.
         11    1    3    3    0    0 -0.32865059137E+01  0.66815285217E+01 -0.18009747304E+02  0.19488328372E+02  0.51100000000E-03 0. -1.
        -11    1    3    3    0    0  0.14087910020E+02  0.66624299152E+01  0.27077865922E+00  0.15586227974E+02  0.51100000000E-03 0.  1.
        -12    1    3    3    0    0 -0.11927759810E+01 -0.27565969976E+02  0.25228446353E+02  0.37386895039E+02  0.00000000000E+00 0.  1.
</event>
<event>
 7    1  0.2932741E-013  0.7246167E+02  0.7816164E-02  0.1226708E+00
        -11   -1    0    0    0    0  0.00000000000E+00  0.00000000000E+00  0.45593999997E+02  0.45594000000E+02  0.51100000000E-03 0. -1.
         11   -1    0    0    0    0 -0.00000000000E+00 -0.00000000000E+00 -0.45593999997E+02  0.45594000000E+02  0.51100000000E-03 0.  1.
    9900012    2    1    2    0    0  0.16613244554E+02  0.85490051079E+01  0.12609324034E+01  0.72461672718E+02  0.70000133426E+02 0.  0.
         12    1    1    2    0    0 -0.16613244554E+02 -0.85490051079E+01 -0.12609324034E+01  0.18726327282E+02  0.00000000000E+00 0. -1.
         11    1    3    3    0    0  0.84290345969E+01 -0.18039421297E+02  0.14207170667E+02  0.24460438336E+02  0.51100000000E-03 0. -1.
        -11    1    3    3    0    0  0.13875832107E+01  0.17770293043E+02  0.11449634116E+02  0.21184966926E+02  0.51100000000E-03 0.  1.
        -12    1    3    3    0    0  0.67966267461E+01  0.88181333618E+01 -0.24395872380E+02  0.26816267456E+02  0.00000000000E+00 0.  1.
</event>
<event>
 7    1  0.2932741E-013  0.7246178E+02  0.7816164E-02  0.1226707E+00
        -11   -1    0    0    0    0  0.00000000000E+00  0.00000000000E+00  0.45593999997E+02  0.45594000000E+02  0.51100000000E-03 0.  1.
         11   -1    0    0    0    0 -0.00000000000E+00 -0.00000000000E+00 -0.45593999997E+02  0.45594000000E+02  0.51100000000E-03 0. -1.
    9900012    2    1    2    0    0  0.10571308356E+02 -0.15454041178E+02 -0.30211107834E+00  0.72461782544E+02  0.70000276494E+02 0.  0.
         12    1    1    2    0    0 -0.10571308356E+02  0.15454041178E+02  0.30211107834E+00  0.18726217456E+02  0.00000000000E+00 0. -1.
         11    1    3    3    0    0 -0.71967048230E+01  0.15715825109E+02  0.46720051633E+01  0.17905511768E+02  0.51100000000E-03 0. -1.
        -11    1    3    3    0    0  0.82631040659E+01  0.63948187095E+01  0.85650532303E+01  0.13510467506E+02  0.51100000000E-03 0.  1.
         12    1    3    3    0    0  0.95049091133E+01 -0.37564684996E+02 -0.13539169472E+02  0.41045803271E+02  0.00000000000E+00 0. -1.
</event>
<event>
 7    1  0.2932741E-013  0.7246157E+02  0.7816164E-02  0.1226708E+00
        -11   -1    0    0    0    0  0.00000000000E+00  0.00000000000E+00  0.45593999997E+02  0.45594000000E+02  0.51100000000E-03 0.  1.
         11   -1    0    0    0    0 -0.00000000000E+00 -0.00000000000E+00 -0.45593999997E+02  0.45594000000E+02  0.51100000000E-03 0. -1.
    9900012    2    1    2    0    0 -0.88801677480E+01  0.16282392738E+02 -0.25894979257E+01  0.72461569694E+02  0.69999999218E+02 0.  0.
         12    1    1    2    0    0  0.88801677480E+01 -0.16282392738E+02  0.25894979257E+01  0.18726430306E+02  0.00000000000E+00 0. -1.
         11    1    3    3    0    0 -0.13606708675E+02 -0.77988054996E+01 -0.42952397192E+01  0.16260780199E+02  0.51100000000E-03 0. -1.
        -11    1    3    3    0    0 -0.17311949670E+02  0.89816926530E+00 -0.12327121997E+02  0.21271301004E+02  0.51100000000E-03 0.  1.
        -12    1    3    3    0    0  0.22038490597E+02  0.23183028972E+02  0.14032863790E+02  0.34929488491E+02  0.00000000000E+00 0.  1.
</event>
<event>
 7    1  0.2932741E-013  0.7246146E+02  0.7816164E-02  0.1226708E+00
        -11   -1    0    0    0    0  0.00000000000E+00  0.00000000000E+00  0.45593999997E+02  0.45594000000E+02  0.51100000000E-03 0. -1.
         11   -1    0    0    0    0 -0.00000000000E+00 -0.00000000000E+00 -0.45593999997E+02  0.45594000000E+02  0.51100000000E-03 0.  1.
    9900012    2    1    2    0    0 -0.11539719389E+02  0.61448600678E+01 -0.13407416700E+02  0.72461461308E+02  0.69999858025E+02 0.  0.
         12    1    1    2    0    0  0.11539719389E+02 -0.61448600678E+01  0.13407416700E+02  0.18726538692E+02  0.00000000000E+00 0. -1.
         11    1    3    3    0    0 -0.33355390960E+01 -0.23255691410E+01  0.12905661321E+01  0.42661052605E+01  0.51100000000E-03 0. -1.
        -11    1    3    3    0    0 -0.46730991590E+01  0.14745635920E+01  0.26148628314E+02  0.26603814698E+02  0.51100000000E-03 0.  1.
        -12    1    3    3    0    0 -0.35310811340E+01  0.69958656168E+01 -0.40846611146E+02  0.41591541349E+02  0.00000000000E+00 0.  1.
</event>
<event>
 7    1  0.2932741E-013  0.7246158E+02  0.7816164E-02  0.1226708E+00
        -11   -1    0    0    0    0  0.00000000000E+00  0.00000000000E+00  0.45593999997E+02  0.45594000000E+02  0.51100000000E-03 0.  1.
         11   -1    0    0    0    0 -0.00000000000E+00 -0.00000000000E+00 -0.45593999997E+02  0.45594000000E+02  0.51100000000E-03 0. -1.
    9900012    2    1    2    0    0 -0.38215336042E+01 -0.53840402106E+01  0.17523894820E+02  0.72461577551E+02  0.70000009452E+02 0.  0.
         12    1    1    2    0    0  0.38215336042E+01  0.53840402106E+01 -0.17523894820E+02  0.18726422449E+02  0.00000000000E+00 0. -1.
         11    1    3    3    0    0 -0.93657392124E+01  0.17160738443E+01  0.76980040651E+01  0.12244233226E+02  0.51100000000E-03 0. -1.
        -11    1    3    3    0    0  0.25513352725E-01  0.14566563150E+02  0.27895652639E+02  0.31469872090E+02  0.51100000000E-03 0.  1.
        -12    1    3    3    0    0  0.55186922556E+01 -0.21666677205E+02 -0.18069761884E+02  0.28747472235E+02  0.00000000000E+00 0.  1.
</event>
<event>
 7    1  0.2932741E-013  0.7246156E+02  0.7816164E-02  0.1226708E+00
        -11   -1    0    0    0    0  0.00000000000E+00  0.00000000000E+00  0.45593999997E+02  0.45594000000E+02  0.51100000000E-03 0.  1.
         11   -1    0    0    0    0 -0.00000000000E+00 -0.00000000000E+00 -0.45593999997E+02  0.45594000000E+02  0.51100000000E-03 0. -1.
    9900012    2    1    2    0    0  0.38925758031E+01 -0.10913096064E+02  0.14711619458E+02  0.72461559890E+02  0.69999986447E+02 0.  0.
         12    1    1    2    0    0 -0.38925758031E+01  0.10913096064E+02 -0.14711619458E+02  0.18726440110E+02  0.00000000000E+00 0. -1.
         11    1    3    3    0    0 -0.61260218551E+01  0.64156055054E+01 -0.78009484390E+01  0.11812829237E+02  0.51100000000E-03 0. -1.
        -11    1    3    3    0    0 -0.71918195395E+01  0.14928487415E+02  0.16883664940E+02  0.23656714625E+02  0.51100000000E-03 0.  1.
         12    1    3    3    0    0  0.17210417198E+02 -0.32257188985E+02  0.56289029579E+01  0.36992016028E+02  0.00000000000E+00 0. -1.
</event>
<event>
 7    1  0.2932741E-013  0.7246158E+02  0.7816164E-02  0.1226708E+00
        -11   -1    0    0    0    0  0.00000000000E+00  0.00000000000E+00  0.45593999997E+02  0.45594000000E+02  0.51100000000E-03 0. -1.
         11   -1    0    0    0    0 -0.00000000000E+00 -0.00000000000E+00 -0.45593999997E+02  0.45594000000E+02  0.51100000000E-03 0.  1.
    9900012    2    1    2    0    0 -0.50587626303E+01 -0.16826276831E+02 -0.64779755021E+01  0.72461579148E+02  0.70000011533E+02 0.  0.
         12    1    1    2    0    0  0.50587626303E+01  0.16826276831E+02  0.64779755021E+01  0.18726420852E+02  0.00000000000E+00 0. -1.
         11    1    3    3    0    0 -0.87831781429E+01 -0.10432151928E+01 -0.17518812616E+02  0.19625017502E+02  0.51100000000E-03 0. -1.
        -11    1    3    3    0    0 -0.64799767462E+01 -0.25252140969E+02 -0.97344865240E+01  0.27828419831E+02  0.51100000000E-03 0.  1.
         12    1    3    3    0    0  0.10204392259E+02  0.94690793311E+01  0.20775323638E+02  0.25008141814E+02  0.00000000000E+00 0. -1.
</event>
<event>
 7    1  0.2932741E-013  0.7246145E+02  0.7816164E-02  0.1226708E+00
        -11   -1    0    0    0    0  0.00000000000E+00  0.00000000000E+00  0.45593999997E+02  0.45594000000E+02  0.51100000000E-03 0. -1.
         11   -1    0    0    0    0 -0.00000000000E+00 -0.00000000000E+00 -0.45593999997E+02  0.45594000000E+02  0.51100000000E-03 0.  1.
    9900012    2    1    2    0    0  0.99051994701E+01 -0.14829384990E+02 -0.57149011512E+01  0.72461448505E+02  0.69999841347E+02 0.  0.
         12    1    1    2    0    0 -0.99051994701E+01  0.14829384990E+02  0.57149011512E+01  0.18726551495E+02  0.00000000000E+00 0. -1.
         11    1    3    3    0    0 -0.72713862958E+01 -0.82467617242E+01  0.80089359366E+01  0.13602396579E+02  0.51100000000E-03 0. -1.
        -11    1    3    3    0    0 -0.18346883020E+02 -0.10395224047E-01 -0.13420543318E+02  0.22731458550E+02  0.51100000000E-03 0.  1.
         12    1    3    3    0    0  0.35523468786E+02 -0.65722280417E+01 -0.30329376940E+00  0.36127593376E+02  0.00000000000E+00 0. -1.
</event>
<event>
 7    1  0.2932741E-013  0.7246159E+02  0.7816164E-02  0.1226708E+00
        -11   -1    0    0    0    0  0.00000000000E+00  0.00000000000E+00  0.45593999997E+02  0.45594000000E+02  0.51100000000E-03 0.  1.
         11   -1    0    0    0    0 -0.00000000000E+00 -0.00000000000E+00 -0.45593999997E+02  0.45594000000E+02  0.51100000000E-03 0. -1.
    9900012    2    1    2    0    0 -0.27114259756E+01 -0.97403197040E+01  0.15762389726E+02  0.72461585804E+02  0.70000020205E+02 0.  0.
         12    1    1    2    0    0  0.27114259756E+01  0.97403197040E+01 -0.15762389726E+02  0.18726414196E+02  0.00000000000E+00 0. -1.
         11    1    3    3    0    0 -0.10074932248E+02  0.22101402460E+01  0.12453995312E+02  0.16170682706E+02  0.51100000000E-03 0. -1.
        -11    1    3    3    0    0  0.25018965575E+02 -0.24118290514E+02  0.21178019569E+01  0.34815595085E+02  0.51100000000E-03 0.  1.
         12    1    3    3    0    0 -0.17655459303E+02  0.12167830564E+02  0.11905924573E+01  0.21475308013E+02  0.00000000000E+00 0. -1.
</event>
<event>
 7    1  0.2932741E-013  0.7246157E+02  0.7816164E-02  0.1226708E+00
        -11   -1    0    0    0    0  0.00000000000E+00  0.00000000000E+00  0.45593999997E+02  0.45594000000E+02  0.51100000000E-03 0.  1.
         11   -1    0    0    0    0 -0.00000000000E+00 -0.00000000000E+00 -0.45593999997E+02  0.45594000000E+02  0.51100000000E-03 0. -1.
    9900012    2    1    2    0    0  0.89620618130E+01 -0.30022547642E+01  0.16166234422E+02  0.72461568920E+02  0.69999998210E+02 0.  0.
         12    1    1    2    0    0 -0.89620618130E+01  0.30022547642E+01 -0.16166234422E+02  0.18726431080E+02  0.00000000000E+00 0. -1.
         11    1    3    3    0    0 -0.10387001740E+00  0.27696537303E+01  0.24882056841E+02  0.25035944633E+02  0.51100000000E-03 0. -1.
        -11    1    3    3    0    0  0.19510001959E+02 -0.16793307911E+02  0.58351470395E+01  0.26395156910E+02  0.51100000000E-03 0.  1.
         12    1    3    3    0    0 -0.10444070129E+02  0.11021399417E+02 -0.14550969458E+02  0.21030467378E+02  0.00000000000E+00 0. -1.
</event>
<event>
 7    1  0.2932741E-013  0.7246158E+02  0.7816164E-02  0.1226708E+00
        -11   -1    0    0    0    0  0.00000000000E+00  0.00000000000E+00  0.45593999997E+02  0.45594000000E+02  0.51100000000E-03 0.  1.
         11   -1    0    0    0    0 -0.00000000000E+00 -0.00000000000E+00 -0.45593999997E+02  0.45594000000E+02  0.51100000000E-03 0. -1.
    9900012    2    1    2    0    0 -0.28359209842E+01  0.18451977095E+02  0.14700171693E+01  0.72461578638E+02  0.70000010869E+02 0.  0.
         12    1    1    2    0    0  0.28359209842E+01 -0.18451977095E+02 -0.14700171693E+01  0.18726421362E+02  0.00000000000E+00 0. -1.
         11    1    3    3    0    0  0.41390380120E+01 -0.15925170164E+02  0.96270355382E+00  0.16482399061E+02  0.51100000000E-03 0. -1.
        -11    1    3    3    0    0  0.14301516409E+02  0.26931487220E+01 -0.83798983865E+01  0.16793127132E+02  0.51100000000E-03 0.  1.
         12    1    3    3    0    0 -0.21276475406E+02  0.31683998537E+02  0.88872120020E+01  0.39186052444E+02  0.00000000000E+00 0. -1.
</event>
<event>
 7    1  0.2932741E-013  0.7246157E+02  0.7816164E-02  0.1226708E+00
        -11   -1    0    0    0    0  0.00000000000E+00  0.00000000000E+00  0.45593999997E+02  0.45594000000E+02  0.51100000000E-03 0. -1.
         11   -1    0    0    0    0 -0.00000000000E+00 -0.00000000000E+00 -0.45593999997E+02  0.45594000000E+02  0.51100000000E-03 0.  1.
    9900012    2    1    2    0    0 -0.74931313885E+01  0.93936058782E+01 -0.14362886669E+02  0.72461565132E+02  0.69999993276E+02 0.  0.
         12    1    1    2    0    0  0.74931313885E+01 -0.93936058782E+01  0.14362886669E+02  0.18726434868E+02  0.00000000000E+00 0. -1.
         11    1    3    3    0    0 -0.12632231480E+02  0.19619928295E+01  0.79558597409E+01  0.15057170800E+02  0.51100000000E-03 0. -1.
        -11    1    3    3    0    0  0.21673554014E+02  0.27513146319E+01  0.74071174244E+01  0.23068984906E+02  0.51100000000E-03 0.  1.
        -12    1    3    3    0    0 -0.16534453923E+02  0.46802984167E+01 -0.29725863834E+02  0.34335409426E+02  0.00000000000E+00 0.  1.
</event>
<event>
 7    1  0.2932741E-013  0.7246159E+02  0.7816164E-02  0.1226708E+00
        -11   -1    0    0    0    0  0.00000000000E+00  0.00000000000E+00  0.45593999997E+02  0.45594000000E+02  0.51100000000E-03 0.  1.
         11   -1    0    0    0    0 -0.00000000000E+00 -0.00000000000E+00 -0.45593999997E+02  0.45594000000E+02  0.51100000000E-03 0. -1.
    9900012    2    1    2    0    0 -0.14063684126E+02 -0.12136364778E+02 -0.23664368818E+01  0.72461585908E+02  0.70000020340E+02 0.  0.
         12    1    1    2    0    0  0.14063684126E+02  0.12136364778E+02  0.23664368818E+01  0.18726414092E+02  0.00000000000E+00 0. -1.
         11    1    3    3    0    0  0.87784643813E+01 -0.20661399020E+02  0.15531984611E+02  0.27298303840E+02  0.51100000000E-03 0. -1.
        -11    1    3    3    0    0  0.48775361269E+01 -0.48755579428E+01 -0.11961494184E+02  0.13807199835E+02  0.51100000000E-03 0.  1.
        -12    1    3    3    0    0 -0.27719684634E+02  0.13400592184E+02 -0.59369273089E+01  0.31356082233E+02  0.00000000000E+00 0.  1.
</event>
<event>
 7    1  0.2932741E-013  0.7246165E+02  0.7816164E-02  0.1226708E+00
        -11   -1    0    0    0    0  0.00000000000E+00  0.00000000000E+00  0.45593999997E+02  0.45594000000E+02  0.51100000000E-03 0.  1.
         11   -1    0    0    0    0 -0.00000000000E+00 -0.00000000000E+00 -0.45593999997E+02  0.45594000000E+02  0.51100000000E-03 0. -1.
    9900012    2    1    2    0    0 -0.17663788480E+02  0.73554647975E+00 -0.61745995075E+01  0.72461651419E+02  0.70000105680E+02 0.  0.
         12    1    1    2    0    0  0.17663788480E+02 -0.73554647975E+00  0.61745995075E+01  0.18726348581E+02  0.00000000000E+00 0. -1.
         11    1    3    3    0    0  0.21480875295E+01  0.19752478607E+02  0.22416737533E+01  0.19994994189E+02  0.51100000000E-03 0. -1.
        -11    1    3    3    0    0  0.12410193838E+02 -0.89161561358E+01 -0.10647760029E+02  0.18624863630E+02  0.51100000000E-03 0.  1.
        -12    1    3    3    0    0 -0.32222069847E+02 -0.10100775991E+02  0.22314867686E+01  0.33841793600E+02  0.00000000000E+00 0.  1.
</event>
<event>
 7    1  0.2932741E-013  0.7246157E+02  0.7816164E-02  0.1226708E+00
        -11   -1    0    0    0    0  0.00000000000E+00  0.00000000000E+00  0.45593999997E+02  0.45594000000E+02  0.51100000000E-03 0. -1.
         11   -1    0    0    0    0 -0.00000000000E+00 -0.00000000000E+00 -0.45593999997E+02  0.45594000000E+02  0.51100000000E-03 0.  1.
    9900012    2    1    2    0    0 -0.91819516024E+01  0.15928096774E+02  0.35590170178E+01  0.72461572038E+02  0.70000002272E+02 0.  0.
         12    1    1    2    0    0  0.91819516024E+01 -0.15928096774E+02 -0.35590170178E+01  0.18726427962E+02  0.00000000000E+00 0. -1.
         11    1    3    3    0    0 -0.18449822848E+02  0.57128459393E+01  0.51142477618E+01  0.19979692247E+02  0.51100000000E-03 0. -1.
        -11    1    3    3    0    0  0.88219042422E+01  0.14306447137E+02 -0.24201085258E+02  0.29465114154E+02  0.51100000000E-03 0.  1.
         12    1    3    3    0    0  0.44596700302E+00 -0.40911963028E+01  0.22645854514E+02  0.23016765638E+02  0.00000000000E+00 0. -1.
</event>
<event>
 7    1  0.2932741E-013  0.7246159E+02  0.7816164E-02  0.1226708E+00
        -11   -1    0    0    0    0  0.00000000000E+00  0.00000000000E+00  0.45593999997E+02  0.45594000000E+02  0.51100000000E-03 0. -1.
         11   -1    0    0    0    0 -0.00000000000E+00 -0.00000000000E+00 -0.45593999997E+02  0.45594000000E+02  0.51100000000E-03 0.  1.
    9900012    2    1    2    0    0  0.17621284413E+02  0.63077672688E+01 -0.61721607449E+00  0.72461586890E+02  0.70000021619E+02 0.  0.
         12    1    1    2    0    0 -0.17621284413E+02 -0.63077672688E+01  0.61721607449E+00  0.18726413110E+02  0.00000000000E+00 0. -1.
         11    1    3    3    0    0  0.75092793273E+01  0.95915903626E+00  0.27600134802E+02  0.28619516128E+02  0.51100000000E-03 0. -1.
        -11    1    3    3    0    0  0.88514432848E+01  0.41220874021E+01  0.47287922920E+01  0.10849015143E+02  0.51100000000E-03 0.  1.
        -12    1    3    3    0    0  0.12605618006E+01  0.12265208304E+01 -0.32946143168E+02  0.32993055619E+02  0.00000000000E+00 0.  1.
</event>
<event>
 7    1  0.2932741E-013  0.7246111E+02  0.7816164E-02  0.1226709E+00
        -11   -1    0    0    0    0  0.00000000000E+00  0.00000000000E+00  0.45593999997E+02  0.45594000000E+02  0.51100000000E-03 0. -1.
         11   -1    0    0    0    0 -0.00000000000E+00 -0.00000000000E+00 -0.45593999997E+02  0.45594000000E+02  0.51100000000E-03 0.  1.
    9900012    2    1    2    0    0 -0.70529887457E+01  0.11030251195E+02 -0.13389752608E+02  0.72461105795E+02  0.69999394901E+02 0.  0.
         12    1    1    2    0    0  0.70529887457E+01 -0.11030251195E+02  0.13389752608E+02  0.18726894205E+02  0.00000000000E+00 0. -1.
         11    1    3    3    0    0 -0.27260605110E+01  0.61759616864E+01 -0.14397985800E+01  0.69026754866E+01  0.51100000000E-03 0. -1.
        -11    1    3    3    0    0  0.14433325142E+02  0.29825692399E+02 -0.79043301423E+01  0.34064222243E+02  0.51100000000E-03 0.  1.
         12    1    3    3    0    0 -0.18760253377E+02 -0.24971402890E+02 -0.40456238853E+01  0.31494208066E+02  0.00000000000E+00 0. -1.
</event>
<event>
 7    1  0.2932741E-013  0.7246157E+02  0.7816164E-02  0.1226708E+00
        -11   -1    0    0    0    0  0.00000000000E+00  0.00000000000E+00  0.45593999997E+02  0.45594000000E+02  0.51100000000E-03 0.  1.
         11   -1    0    0    0    0 -0.00000000000E+00 -0.00000000000E+00 -0.45593999997E+02  0.45594000000E+02  0.51100000000E-03 0. -1.
    9900012    2    1    2    0    0 -0.52158831439E+01  0.88782496860E+01  0.15641307588E+02  0.72461567945E+02  0.69999996940E+02 0.  0.
         12    1    1    2    0    0  0.52158831439E+01 -0.88782496860E+01 -0.15641307588E+02  0.18726432055E+02  0.00000000000E+00 0. -1.
         11    1    3    3    0    0  0.34539065947E+01 -0.20006517552E+02  0.14694393657E+02  0.25062230957E+02  0.51100000000E-03 0. -1.
        -11    1    3    3    0    0 -0.18271079557E+02  0.25708514369E+01  0.49509769521E+01  0.19103763983E+02  0.51100000000E-03 0.  1.
        -12    1    3    3    0    0  0.96012898182E+01  0.26313915802E+02 -0.40040630217E+01  0.28295573005E+02  0.00000000000E+00 0.  1.
</event>
<event>
 7    1  0.2932741E-013  0.7246144E+02  0.7816164E-02  0.1226708E+00
        -11   -1    0    0    0    0  0.00000000000E+00  0.00000000000E+00  0.45593999997E+02  0.45594000000E+02  0.51100000000E-03 0. -1.
         11   -1    0    0    0    0 -0.00000000000E+00 -0.00000000000E+00 -0.45593999997E+02  0.45594000000E+02  0.51100000000E-03 0.  1.
    9900012    2    1    2    0    0 -0.10709342103E+02 -0.12979391943E+02 -0.82176337738E+01  0.72461437893E+02  0.69999827523E+02 0.  0.
         12    1    1    2    0    0  0.10709342103E+02  0.12979391943E+02  0.82176337738E+01  0.18726562107E+02  0.00000000000E+00 0. -1.
         11    1    3    3    0    0  0.11887811980E+02 -0.10078353161E+02  0.23650949481E+01  0.15763468859E+02  0.51100000000E-03 0. -1.
        -11    1    3    3    0    0 -0.12190936953E+01 -0.12873508946E+02  0.16382269966E+02  0.20870845491E+02  0.51100000000E-03 0.  1.
         12    1    3    3    0    0 -0.21378060388E+02  0.99724701635E+01 -0.26964998688E+02  0.35827123543E+02  0.00000000000E+00 0. -1.
</event>
<event>
 7    1  0.2932741E-013  0.7246152E+02  0.7816164E-02  0.1226708E+00
        -11   -1    0    0    0    0  0.00000000000E+00  0.00000000000E+00  0.45593999997E+02  0.45594000000E+02  0.51100000000E-03 0.  1.
         11   -1    0    0    0    0 -0.00000000000E+00 -0.00000000000E+00 -0.45593999997E+02  0.45594000000E+02  0.51100000000E-03 0. -1.
    9900012    2    1    2    0    0  0.85656523938E+01 -0.15206641042E+02 -0.67873886357E+01  0.72461522029E+02  0.69999937125E+02 0.  0.
         12    1    1    2    0    0 -0.85656523938E+01  0.15206641042E+02  0.67873886357E+01  0.18726477971E+02  0.00000000000E+00 0. -1.
         11    1    3    3    0    0 -0.56470371433E+01 -0.37323492074E+01 -0.27669965381E+02  0.28485899030E+02  0.51100000000E-03 0. -1.
        -11    1    3    3    0    0  0.26263829168E+01  0.89616627999E+01 -0.36340102575E+01  0.10020744392E+02  0.51100000000E-03 0.  1.
        -12    1    3    3    0    0  0.11586306620E+02 -0.20435954634E+02  0.24516587003E+02  0.33954878607E+02  0.00000000000E+00 0.  1.
</event>
<event>
 7    1  0.2932741E-013  0.7246201E+02  0.7816164E-02  0.1226707E+00
        -11   -1    0    0    0    0  0.00000000000E+00  0.00000000000E+00  0.45593999997E+02  0.45594000000E+02  0.51100000000E-03 0.  1.
         11   -1    0    0    0    0 -0.00000000000E+00 -0.00000000000E+00 -0.45593999997E+02  0.45594000000E+02  0.51100000000E-03 0. -1.
    9900012    2    1    2    0    0 -0.12417345798E+02  0.25937541324E+01  0.13774778594E+02  0.72462013712E+02  0.70000577631E+02 0.  0.
         12    1    1    2    0    0  0.12417345798E+02 -0.25937541324E+01 -0.13774778594E+02  0.18725986288E+02  0.00000000000E+00 0. -1.
         11    1    3    3    0    0 -0.78927333206E+00  0.18876384093E+01  0.80812933274E+00  0.21998191826E+01  0.51100000000E-03 0. -1.
        -11    1    3    3    0    0 -0.22172486839E+02 -0.21219841003E+02  0.28098781117E+02  0.41610603520E+02  0.51100000000E-03 0.  1.
         12    1    3    3    0    0  0.10544414373E+02  0.21925956726E+02 -0.15132131856E+02  0.28651591009E+02  0.00000000000E+00 0. -1.
</event>
<event>
 7    1  0.2932741E-013  0.7246155E+02  0.7816164E-02  0.1226708E+00
        -11   -1    0    0    0    0  0.00000000000E+00  0.00000000000E+00  0.45593999997E+02  0.45594000000E+02  0.51100000000E-03 0.  1.
         11   -1    0    0    0    0 -0.00000000000E+00 -0.00000000000E+00 -0.45593999997E+02  0.45594000000E+02  0.51100000000E-03 0. -1.
    9900012    2    1    2    0    0  0.30587873757E+01  0.18042205034E+02 -0.39752270928E+01  0.72461554178E+02  0.69999979005E+02 0.  0.
         12    1    1    2    0    0 -0.30587873757E+01 -0.18042205034E+02  0.39752270928E+01  0.18726445822E+02  0.00000000000E+00 0. -1.
         11    1    3    3    0    0  0.52993175216E+01 -0.17822304845E+02  0.60984980702E+01  0.19568060587E+02  0.51100000000E-03 0. -1.
        -11    1    3    3    0    0  0.11809347378E+02 -0.15534735198E+01 -0.13865355997E+01  0.11991515613E+02  0.51100000000E-03 0.  1.
        -12    1    3    3    0    0 -0.14049877523E+02  0.37417983398E+02 -0.86871895634E+01  0.40901977978E+02  0.00000000000E+00 0.  1.
</event>
<event>
 7    1  0.2932741E-013  0.7246158E+02  0.7816164E-02  0.1226708E+00
        -11   -1    0    0    0    0  0.00000000000E+00  0.00000000000E+00  0.45593999997E+02  0.45594000000E+02  0.51100000000E-03 0. -1.
         11   -1    0    0    0    0 -0.00000000000E+00 -0.00000000000E+00 -0.45593999997E+02  0.45594000000E+02  0.51100000000E-03 0.  1.
    9900012    2    1    2    0    0  0.16439560964E+02  0.31076030211E+01 -0.84120418533E+01  0.72461579910E+02  0.70000012527E+02 0.  0.
         12    1    1    2    0    0 -0.16439560964E+02 -0.31076030211E+01  0.84120418533E+01  0.18726420090E+02  0.00000000000E+00 0. -1.
         11    1    3    3    0    0  0.21832362403E+02  0.13754504839E+02  0.49316255952E+01  0.26270884696E+02  0.51100000000E-03 0. -1.
        -11    1    3    3    0    0  0.15855177610E+02  0.19721223273E+01 -0.14324587519E+02  0.21458558464E+02  0.51100000000E-03 0.  1.
        -12    1    3    3    0    0 -0.21247979048E+02 -0.12619024145E+02  0.98092007065E+00  0.24732136750E+02  0.00000000000E+00 0.  1.
</event>
<event>
 7    1  0.2932741E-013  0.7246159E+02  0.7816164E-02  0.1226708E+00
        -11   -1    0    0    0    0  0.00000000000E+00  0.00000000000E+00  0.45593999997E+02  0.45594000000E+02  0.51100000000E-03 0.  1.
         11   -1    0    0    0    0 -0.00000000000E+00 -0.00000000000E+00 -0.45593999997E+02  0.45594000000E+02  0.51100000000E-03 0. -1.
    9900012    2    1    2    0    0  0.11927990327E+02  0.47599653567E+01  0.13628803150E+02  0.72461588205E+02  0.70000023332E+02 0.  0.
         12    1    1    2    0    0 -0.11927990327E+02 -0.47599653567E+01 -0.13628803150E+02  0.18726411795E+02  0.00000000000E+00 0. -1.
         11    1    3    3    0    0  0.25784587123E+02  0.13905857711E+02  0.19498691380E+00  0.29296003686E+02  0.51100000000E-03 0. -1.
        -11    1    3    3    0    0 -0.12580921330E+02  0.13414615373E+02  0.69070598752E+01  0.19645329304E+02  0.51100000000E-03 0.  1.
        -12    1    3    3    0    0 -0.12756754671E+01 -0.22560507726E+02  0.65267563609E+01  0.23520255215E+02  0.00000000000E+00 0.  1.
</event>
<event>
 7    1  0.2932741E-013  0.7246078E+02  0.7816164E-02  0.1226710E+00
        -11   -1    0    0    0    0  0.00000000000E+00  0.00000000000E+00  0.45593999997E+02  0.45594000000E+02  0.51100000000E-03 0.  1.
         11   -1    0    0    0    0 -0.00000000000E+00 -0.00000000000E+00 -0.45593999997E+02  0.45594000000E+02  0.51100000000E-03 0. -1.
    9900012    2    1    2    0    0 -0.95658954983E+01 -0.62566095951E+01  0.14834324679E+02  0.72460781600E+02  0.69998972572E+02 0.  0.
         12    1    1    2    0    0  0.95658954983E+01  0.62566095951E+01 -0.14834324679E+02  0.18727218400E+02  0.00000000000E+00 0. -1.
         11    1    3    3    0    0 -0.82780987101E+01 -0.20283776105E+01  0.70044480002E+00  0.85517166209E+01  0.51100000000E-03 0. -1.
        -11    1    3    3    0    0 -0.19235130200E+02 -0.19764793666E+02  0.25525615011E+02  0.37579174079E+02  0.51100000000E-03 0.  1.
        -12    1    3    3    0    0  0.17947333412E+02  0.15536561682E+02 -0.11391735132E+02  0.26329890900E+02  0.00000000000E+00 0.  1.
</event>
<event>
 7    1  0.2932741E-013  0.7246164E+02  0.7816164E-02  0.1226708E+00
        -11   -1    0    0    0    0  0.00000000000E+00  0.00000000000E+00  0.45593999997E+02  0.45594000000E+02  0.51100000000E-03 0. -1.
         11   -1    0    0    0    0 -0.00000000000E+00 -0.00000000000E+00 -0.45593999997E+02  0.45594000000E+02  0.51100000000E-03 0.  1.
    9900012    2    1    2    0    0  0.16725474671E+01 -0.18651097507E+02 -0.12458821941E+00  0.72461644896E+02  0.70000097182E+02 0.  0.
         12    1    1    2    0    0 -0.16725474671E+01  0.18651097507E+02  0.12458821941E+00  0.18726355104E+02  0.00000000000E+00 0. -1.
         11    1    3    3    0    0  0.58174312663E+01 -0.42515310235E+01 -0.11044070283E+02  0.13186717228E+02  0.51100000000E-03 0. -1.
        -11    1    3    3    0    0  0.14552054933E+02  0.10401572384E+02 -0.11235920127E+02  0.21123468281E+02  0.51100000000E-03 0.  1.
         12    1    3    3    0    0 -0.18696938732E+02 -0.24801138868E+02  0.22155402191E+02  0.38151459387E+02  0.00000000000E+00 0. -1.
</event>
<event>
 7    1  0.2932741E-013  0.7246159E+02  0.7816164E-02  0.1226708E+00
        -11   -1    0    0    0    0  0.00000000000E+00  0.00000000000E+00  0.45593999997E+02  0.45594000000E+02  0.51100000000E-03 0.  1.
         11   -1    0    0    0    0 -0.00000000000E+00 -0.00000000000E+00 -0.45593999997E+02  0.45594000000E+02  0.51100000000E-03 0. -1.
    9900012    2    1    2    0    0 -0.42748600469E+01 -0.71606021749E+01  0.16766920133E+02  0.72461594507E+02  0.70000031542E+02 0.  0.
         12    1    1    2    0    0  0.42748600469E+01  0.71606021749E+01 -0.16766920133E+02  0.18726405493E+02  0.00000000000E+00 0. -1.
         11    1    3    3    0    0 -0.17935643385E+02 -0.13163123006E+02  0.52005011918E+01  0.22847326404E+02  0.51100000000E-03 0.  1.
        -11    1    3    3    0    0 -0.46410898814E+01 -0.13742489154E+02  0.16791918808E+02  0.22189282570E+02  0.51100000000E-03 0. -1.
         12    1    3    3    0    0  0.18301873219E+02  0.19745009985E+02 -0.52254998671E+01  0.27424985534E+02  0.00000000000E+00 0. -1.
</event>
<event>
 7    1  0.2932741E-013  0.7246145E+02  0.7816164E-02  0.1226708E+00
        -11   -1    0    0    0    0  0.00000000000E+00  0.00000000000E+00  0.45593999997E+02  0.45594000000E+02  0.51100000000E-03 0.  1.
         11   -1    0    0    0    0 -0.00000000000E+00 -0.00000000000E+00 -0.45593999997E+02  0.45594000000E+02  0.51100000000E-03 0. -1.
    9900012    2    1    2    0    0 -0.17152431240E+02  0.74889801684E+01  0.62688617272E+00  0.72461449125E+02  0.69999842154E+02 0.  0.
         12    1    1    2    0    0  0.17152431240E+02 -0.74889801684E+01 -0.62688617272E+00  0.18726550875E+02  0.00000000000E+00 0. -1.
         11    1    3    3    0    0  0.13418114661E+02  0.12804644215E+02  0.87930392506E+01  0.20526135877E+02  0.51100000000E-03 0. -1.
        -11    1    3    3    0    0 -0.46518699483E+01  0.44881971884E+01  0.14667638158E+02  0.16028830818E+02  0.51100000000E-03 0.  1.
         12    1    3    3    0    0 -0.25918675953E+02 -0.98038612351E+01 -0.22833791235E+02  0.35906482429E+02  0.00000000000E+00 0. -1.
</event>
<event>
 7    1  0.2932741E-013  0.7246180E+02  0.7816164E-02  0.1226707E+00
        -11   -1    0    0    0    0  0.00000000000E+00  0.00000000000E+00  0.45593999997E+02  0.45594000000E+02  0.51100000000E-03 0.  1.
         11   -1    0    0    0    0 -0.00000000000E+00 -0.00000000000E+00 -0.45593999997E+02  0.45594000000E+02  0.51100000000E-03 0. -1.
    9900012    2    1    2    0    0 -0.43300900793E+01 -0.12051749259E+02  0.13662951916E+02  0.72461799228E+02  0.70000298228E+02 0.  0.
         12    1    1    2    0    0  0.43300900793E+01  0.12051749259E+02 -0.13662951916E+02  0.18726200772E+02  0.00000000000E+00 0. -1.
         11    1    3    3    0    0  0.41536828855E+01  0.25567013654E+02 -0.18931399637E+01  0.25971315868E+02  0.51100000000E-03 0.  1.
        -11    1    3    3    0    0  0.17244973595E+01 -0.80296795504E+01 -0.44516741947E+01  0.93416833720E+01  0.51100000000E-03 0. -1.
        -12    1    3    3    0    0 -0.10208270324E+02 -0.29589083363E+02  0.20007766074E+02  0.37148799988E+02  0.00000000000E+00 0.  1.
</event>
<event>
 7    1  0.2932741E-013  0.7246148E+02  0.7816164E-02  0.1226708E+00
        -11   -1    0    0    0    0  0.00000000000E+00  0.00000000000E+00  0.45593999997E+02  0.45594000000E+02  0.51100000000E-03 0.  1.
         11   -1    0    0    0    0 -0.00000000000E+00 -0.00000000000E+00 -0.45593999997E+02  0.45594000000E+02  0.51100000000E-03 0. -1.
    9900012    2    1    2    0    0  0.21269553313E+01 -0.15631283266E+02  0.10090676178E+02  0.72461475997E+02  0.69999877160E+02 0.  0.
         12    1    1    2    0    0 -0.21269553313E+01  0.15631283266E+02 -0.10090676178E+02  0.18726524003E+02  0.00000000000E+00 0. -1.
         11    1    3    3    0    0  0.93651862556E+01  0.62435562003E+01 -0.14773278884E+02  0.18572519401E+02  0.51100000000E-03 0. -1.
        -11    1    3    3    0    0  0.13870702291E+02 -0.21801340314E+02  0.85737486892E+01  0.27225061770E+02  0.51100000000E-03 0.  1.
         12    1    3    3    0    0 -0.21108933215E+02 -0.73499152143E-01  0.16290206374E+02  0.26663894826E+02  0.00000000000E+00 0. -1.
</event>
<event>
 7    1  0.2932741E-013  0.7246137E+02  0.7816164E-02  0.1226709E+00
        -11   -1    0    0    0    0  0.00000000000E+00  0.00000000000E+00  0.45593999997E+02  0.45594000000E+02  0.51100000000E-03 0. -1.
         11   -1    0    0    0    0 -0.00000000000E+00 -0.00000000000E+00 -0.45593999997E+02  0.45594000000E+02  0.51100000000E-03 0.  1.
    9900012    2    1    2    0    0 -0.16249177194E+01 -0.18651184873E+02 -0.42380710760E+00  0.72461370105E+02  0.69999739216E+02 0.  0.
         12    1    1    2    0    0  0.16249177194E+01  0.18651184873E+02  0.42380710760E+00  0.18726629895E+02  0.00000000000E+00 0. -1.
         11    1    3    3    0    0 -0.19873886826E+02 -0.10303169959E+02 -0.10785809609E+02  0.24848750028E+02  0.51100000000E-03 0. -1.
        -11    1    3    3    0    0 -0.57973557188E+01  0.97205377853E+00 -0.12074585086E+02  0.13429438824E+02  0.51100000000E-03 0.  1.
        -12    1    3    3    0    0  0.24046324825E+02 -0.93200686926E+01  0.22436587587E+02  0.34183181253E+02  0.00000000000E+00 0.  1.
</event>
<event>
 7    1  0.2932741E-013  0.7246158E+02  0.7816164E-02  0.1226708E+00
        -11   -1    0    0    0    0  0.00000000000E+00  0.00000000000E+00  0.45593999997E+02  0.45594000000E+02  0.51100000000E-03 0.  1.
         11   -1    0    0    0    0 -0.00000000000E+00 -0.00000000000E+00 -0.45593999997E+02  0.45594000000E+02  0.51100000000E-03 0. -1.
    9900012    2    1    2    0    0  0.12646912958E+02 -0.13177026293E+02  0.41352648732E+01  0.72461578963E+02  0.70000011293E+02 0.  0.
         12    1    1    2    0    0 -0.12646912958E+02  0.13177026293E+02 -0.41352648732E+01  0.18726421037E+02  0.00000000000E+00 0. -1.
         11    1    3    3    0    0  0.25321057158E+01 -0.26484216470E+02  0.34192589399E+01  0.26823806839E+02  0.51100000000E-03 0. -1.
        -11    1    3    3    0    0  0.54282424748E+01 -0.11740748029E+02  0.12114453197E+02  0.17722047206E+02  0.51100000000E-03 0.  1.
         12    1    3    3    0    0  0.46865647672E+01  0.25047938206E+02 -0.11398447264E+02  0.27915724918E+02  0.00000000000E+00 0. -1.
</event>
<event>
 7    1  0.2932741E-013  0.7246158E+02  0.7816164E-02  0.1226708E+00
        -11   -1    0    0    0    0  0.00000000000E+00  0.00000000000E+00  0.45593999997E+02  0.45594000000E+02  0.51100000000E-03 0. -1.
         11   -1    0    0    0    0 -0.00000000000E+00 -0.00000000000E+00 -0.45593999997E+02  0.45594000000E+02  0.51100000000E-03 0.  1.
    9900012    2    1    2    0    0  0.60411634724E+01 -0.16959948787E+02 -0.51520065084E+01  0.72461583097E+02  0.70000016678E+02 0.  0.
         12    1    1    2    0    0 -0.60411634724E+01  0.16959948787E+02  0.51520065084E+01  0.18726416903E+02  0.00000000000E+00 0. -1.
         11    1    3    3    0    0 -0.15904141219E+02  0.40067482338E+00 -0.24853424232E+02  0.29509234903E+02  0.51100000000E-03 0. -1.
        -11    1    3    3    0    0  0.17077840861E+02 -0.14451788234E+01 -0.30287662226E-01  0.17138906263E+02  0.51100000000E-03 0.  1.
        -12    1    3    3    0    0  0.48674638304E+01 -0.15915444787E+02  0.19731705386E+02  0.25813441931E+02  0.00000000000E+00 0.  1.
</event>
<event>
 7    1  0.2932741E-013  0.7246158E+02  0.7816164E-02  0.1226708E+00
        -11   -1    0    0    0    0  0.00000000000E+00  0.00000000000E+00  0.45593999997E+02  0.45594000000E+02  0.51100000000E-03 0. -1.
         11   -1    0    0    0    0 -0.00000000000E+00 -0.00000000000E+00 -0.45593999997E+02  0.45594000000E+02  0.51100000000E-03 0.  1.
    9900012    2    1    2    0    0 -0.29562850217E+01 -0.16104794238E+02 -0.90870676497E+01  0.72461579706E+02  0.70000012260E+02 0.  0.
         12    1    1    2    0    0  0.29562850217E+01  0.16104794238E+02  0.90870676497E+01  0.18726420294E+02  0.00000000000E+00 0. -1.
         11    1    3    3    0    0  0.12212516637E+01 -0.39169966997E+01 -0.26632985228E+02  0.26947174642E+02  0.51100000000E-03 0. -1.
        -11    1    3    3    0    0  0.94906731289E+01 -0.16865028236E+02 -0.38175322976E+01  0.19724999543E+02  0.51100000000E-03 0.  1.
         12    1    3    3    0    0 -0.13668209814E+02  0.46772306984E+01  0.21363449876E+02  0.25789405521E+02  0.00000000000E+00 0. -1.
</event>
<event>
 7    1  0.2932741E-013  0.7246162E+02  0.7816164E-02  0.1226708E+00
        -11   -1    0    0    0    0  0.00000000000E+00  0.00000000000E+00  0.45593999997E+02  0.45594000000E+02  0.51100000000E-03 0.  1.
         11   -1    0    0    0    0 -0.00000000000E+00 -0.00000000000E+00 -0.45593999997E+02  0.45594000000E+02  0.51100000000E-03 0. -1.
    9900012    2    1    2    0    0  0.59902359992E+01  0.13182771801E+02 -0.11874716162E+02  0.72461620649E+02  0.70000065596E+02 0.  0.
         12    1    1    2    0    0 -0.59902359992E+01 -0.13182771801E+02  0.11874716162E+02  0.18726379351E+02  0.00000000000E+00 0. -1.
         11    1    3    3    0    0  0.13468072730E+02  0.56855948923E+01 -0.32845930474E+02  0.35952331236E+02  0.51100000000E-03 0. -1.
        -11    1    3    3    0    0 -0.16237019116E+02  0.88516159427E+01  0.66209614554E+01  0.19642531034E+02  0.51100000000E-03 0.  1.
        -12    1    3    3    0    0  0.87591823849E+01 -0.13544390345E+01  0.14350252857E+02  0.16866758379E+02  0.00000000000E+00 0.  1.
</event>
<event>
 7    1  0.2932741E-013  0.7246156E+02  0.7816164E-02  0.1226708E+00
        -11   -1    0    0    0    0  0.00000000000E+00  0.00000000000E+00  0.45593999997E+02  0.45594000000E+02  0.51100000000E-03 0.  1.
         11   -1    0    0    0    0 -0.00000000000E+00 -0.00000000000E+00 -0.45593999997E+02  0.45594000000E+02  0.51100000000E-03 0. -1.
    9900012    2    1    2    0    0 -0.69587529482E+00 -0.11237505358E+02  0.14963745670E+02  0.72461562710E+02  0.69999990121E+02 0.  0.
         12    1    1    2    0    0  0.69587529482E+00  0.11237505358E+02 -0.14963745670E+02  0.18726437290E+02  0.00000000000E+00 0. -1.
         11    1    3    3    0    0  0.17362158197E+02 -0.15953424687E+02  0.22859466558E+02  0.32840698959E+02  0.51100000000E-03 0. -1.
        -11    1    3    3    0    0  0.40596194932E+00 -0.12277567656E+02  0.23658508754E+01  0.12510024911E+02  0.51100000000E-03 0.  1.
         12    1    3    3    0    0 -0.18463995442E+02  0.16993486985E+02 -0.10261571763E+02  0.27110838841E+02  0.00000000000E+00 0. -1.
</event>
<event>
 7    1  0.2932741E-013  0.7246155E+02  0.7816164E-02  0.1226708E+00
        -11   -1    0    0    0    0  0.00000000000E+00  0.00000000000E+00  0.45593999997E+02  0.45594000000E+02  0.51100000000E-03 0. -1.
         11   -1    0    0    0    0 -0.00000000000E+00 -0.00000000000E+00 -0.45593999997E+02  0.45594000000E+02  0.51100000000E-03 0.  1.
    9900012    2    1    2    0    0 -0.20198982723E+01 -0.12545994600E+02 -0.13754926859E+02  0.72461548589E+02  0.69999971725E+02 0.  0.
         12    1    1    2    0    0  0.20198982723E+01  0.12545994600E+02  0.13754926859E+02  0.18726451411E+02  0.00000000000E+00 0. -1.
         11    1    3    3    0    0 -0.36290908007E+01 -0.32422574457E+02  0.51916162622E+01  0.33035534113E+02  0.51100000000E-03 0. -1.
        -11    1    3    3    0    0 -0.57707159254E+01 -0.36261758589E+01 -0.12051336629E+02  0.13845036239E+02  0.51100000000E-03 0.  1.
        -12    1    3    3    0    0  0.73799084538E+01  0.23502755715E+02 -0.68952064921E+01  0.25580978237E+02  0.00000000000E+00 0.  1.
</event>
<event>
 7    1  0.2932741E-013  0.7246158E+02  0.7816164E-02  0.1226708E+00
        -11   -1    0    0    0    0  0.00000000000E+00  0.00000000000E+00  0.45593999997E+02  0.45594000000E+02  0.51100000000E-03 0. -1.
         11   -1    0    0    0    0 -0.00000000000E+00 -0.00000000000E+00 -0.45593999997E+02  0.45594000000E+02  0.51100000000E-03 0.  1.
    9900012    2    1    2    0    0 -0.29454249700E+01  0.18470757579E+02  0.91341491505E+00  0.72461581746E+02  0.70000014918E+02 0.  0.
         12    1    1    2    0    0  0.29454249700E+01 -0.18470757579E+02 -0.91341491505E+00  0.18726418254E+02  0.00000000000E+00 0. -1.
         11    1    3    3    0    0 -0.30144196594E+02 -0.58473786704E+01 -0.20362090491E+01  0.30773536897E+02  0.51100000000E-03 0. -1.
        -11    1    3    3    0    0  0.29317445173E-01 -0.29128506476E+01 -0.84846673210E+00  0.30340491862E+01  0.51100000000E-03 0.  1.
        -12    1    3    3    0    0  0.27169454179E+02  0.27230986897E+02  0.37980906963E+01  0.38653995663E+02  0.00000000000E+00 0.  1.
</event>
<event>
 7    1  0.2932741E-013  0.7246157E+02  0.7816164E-02  0.1226708E+00
        -11   -1    0    0    0    0  0.00000000000E+00  0.00000000000E+00  0.45593999997E+02  0.45594000000E+02  0.51100000000E-03 0.  1.
         11   -1    0    0    0    0 -0.00000000000E+00 -0.00000000000E+00 -0.45593999997E+02  0.45594000000E+02  0.51100000000E-03 0. -1.
    9900012    2    1    2    0    0 -0.97812886936E+00  0.30145170475E+01  0.18456300484E+02  0.72461572773E+02  0.70000003229E+02 0.  0.
         12    1    1    2    0    0  0.97812886936E+00 -0.30145170475E+01 -0.18456300484E+02  0.18726427227E+02  0.00000000000E+00 0. -1.
         11    1    3    3    0    0  0.54443334038E+01 -0.85347110223E+01 -0.13151920461E+02  0.16596839172E+02  0.51100000000E-03 0. -1.
        -11    1    3    3    0    0 -0.11224010153E+02 -0.15046702429E+02  0.10044093383E+02  0.21290032176E+02  0.51100000000E-03 0.  1.
         12    1    3    3    0    0  0.48015478802E+01  0.26595930498E+02  0.21564127562E+02  0.34574701425E+02  0.00000000000E+00 0. -1.
</event>
<event>
 7    1  0.2932741E-013  0.7246157E+02  0.7816164E-02  0.1226708E+00
        -11   -1    0    0    0    0  0.00000000000E+00  0.00000000000E+00  0.45593999997E+02  0.45594000000E+02  0.51100000000E-03 0.  1.
         11   -1    0    0    0    0 -0.00000000000E+00 -0.00000000000E+00 -0.45593999997E+02  0.45594000000E+02  0.51100000000E-03 0. -1.
    9900012    2    1    2    0    0 -0.15577857673E+02 -0.72181284885E+00  0.10367666133E+02  0.72461570428E+02  0.70000000174E+02 0.  0.
         12    1    1    2    0    0  0.15577857673E+02  0.72181284885E+00 -0.10367666133E+02  0.18726429572E+02  0.00000000000E+00 0. -1.
         11    1    3    3    0    0 -0.31988120568E+01 -0.90699735482E+01 -0.71995515273E+01  0.12013757164E+02  0.51100000000E-03 0. -1.
        -11    1    3    3    0    0 -0.75926007008E+00  0.43638445843E+01  0.37105449129E+02  0.37368890413E+02  0.51100000000E-03 0.  1.
         12    1    3    3    0    0 -0.11619785546E+02  0.39843161151E+01 -0.19538231468E+02  0.23078922851E+02  0.00000000000E+00 0. -1.
</event>
<event>
 7    1  0.2932741E-013  0.7246149E+02  0.7816164E-02  0.1226708E+00
        -11   -1    0    0    0    0  0.00000000000E+00  0.00000000000E+00  0.45593999997E+02  0.45594000000E+02  0.51100000000E-03 0.  1.
         11   -1    0    0    0    0 -0.00000000000E+00 -0.00000000000E+00 -0.45593999997E+02  0.45594000000E+02  0.51100000000E-03 0. -1.
    9900012    2    1    2    0    0  0.17011693290E+02  0.16550037634E+01 -0.76514907723E+01  0.72461493196E+02  0.69999899565E+02 0.  0.
         12    1    1    2    0    0 -0.17011693290E+02 -0.16550037634E+01  0.76514907723E+01  0.18726506804E+02  0.00000000000E+00 0. -1.
         11    1    3    3    0    0 -0.11913545449E+02 -0.10344088854E+02  0.39447304919E+01  0.16263260383E+02  0.51100000000E-03 0. -1.
        -11    1    3    3    0    0  0.10623641718E+01 -0.14586097597E+02  0.31503909229E+01  0.14960208019E+02  0.51100000000E-03 0.  1.
         12    1    3    3    0    0  0.27862874567E+02  0.26585190215E+02 -0.14746612187E+02  0.41238024794E+02  0.00000000000E+00 0. -1.
</event>
<event>
 7    1  0.2932741E-013  0.7246161E+02  0.7816164E-02  0.1226708E+00
        -11   -1    0    0    0    0  0.00000000000E+00  0.00000000000E+00  0.45593999997E+02  0.45594000000E+02  0.51100000000E-03 0. -1.
         11   -1    0    0    0    0 -0.00000000000E+00 -0.00000000000E+00 -0.45593999997E+02  0.45594000000E+02  0.51100000000E-03 0.  1.
    9900012    2    1    2    0    0  0.87228672931E+01 -0.21823674969E+01 -0.16426395650E+02  0.72461611781E+02  0.70000054044E+02 0.  0.
         12    1    1    2    0    0 -0.87228672931E+01  0.21823674969E+01  0.16426395650E+02  0.18726388219E+02  0.00000000000E+00 0. -1.
         11    1    3    3    0    0  0.76180712414E+01 -0.67272029339E+01  0.28673536158E+00  0.10167226081E+02  0.51100000000E-03 0. -1.
        -11    1    3    3    0    0  0.10168378984E+02 -0.24329429558E+02 -0.18126160555E+02  0.31998043229E+02  0.51100000000E-03 0.  1.
         12    1    3    3    0    0 -0.90635829325E+01  0.28874264995E+02  0.14130295435E+01  0.30296342470E+02  0.00000000000E+00 0. -1.
</event>
<event>
 7    1  0.2932741E-013  0.7246148E+02  0.7816164E-02  0.1226708E+00
        -11   -1    0    0    0    0  0.00000000000E+00  0.00000000000E+00  0.45593999997E+02  0.45594000000E+02  0.51100000000E-03 0.  1.
         11   -1    0    0    0    0 -0.00000000000E+00 -0.00000000000E+00 -0.45593999997E+02  0.45594000000E+02  0.51100000000E-03 0. -1.
    9900012    2    1    2    0    0  0.48261399875E+01  0.18074729033E+02 -0.83368897304E+00  0.72461481528E+02  0.69999884365E+02 0.  0.
         12    1    1    2    0    0 -0.48261399875E+01 -0.18074729033E+02  0.83368897304E+00  0.18726518472E+02  0.00000000000E+00 0. -1.
         11    1    3    3    0    0 -0.16479260495E+02  0.20042608816E+02 -0.74142505959E+01  0.26985983524E+02  0.51100000000E-03 0. -1.
        -11    1    3    3    0    0 -0.18398094588E+01 -0.11872494425E+02 -0.97454629986E+01  0.15469811636E+02  0.51100000000E-03 0.  1.
        -12    1    3    3    0    0  0.23145209942E+02  0.99046146426E+01  0.16326024621E+02  0.30005686368E+02  0.00000000000E+00 0.  1.
</event>
<event>
 7    1  0.2932741E-013  0.7246157E+02  0.7816164E-02  0.1226708E+00
        -11   -1    0    0    0    0  0.00000000000E+00  0.00000000000E+00  0.45593999997E+02  0.45594000000E+02  0.51100000000E-03 0. -1.
         11   -1    0    0    0    0 -0.00000000000E+00 -0.00000000000E+00 -0.45593999997E+02  0.45594000000E+02  0.51100000000E-03 0.  1.
    9900012    2    1    2    0    0 -0.45009268969E+01 -0.16299307255E+02 -0.80469621138E+01  0.72461565230E+02  0.69999993403E+02 0.  0.
         12    1    1    2    0    0  0.45009268969E+01  0.16299307255E+02  0.80469621138E+01  0.18726434770E+02  0.00000000000E+00 0. -1.
         11    1    3    3    0    0 -0.13771339524E+02  0.62633840688E+01 -0.62968182495E+00  0.15141871475E+02  0.51100000000E-03 0. -1.
        -11    1    3    3    0    0 -0.15249230816E+02 -0.22945378527E+02  0.75805457822E+01  0.28574361075E+02  0.51100000000E-03 0.  1.
        -12    1    3    3    0    0  0.24519643443E+02  0.38268720386E+00 -0.14997826071E+02  0.28745332681E+02  0.00000000000E+00 0.  1.
</event>
<event>
 7    1  0.2932741E-013  0.7246153E+02  0.7816164E-02  0.1226708E+00
        -11   -1    0    0    0    0  0.00000000000E+00  0.00000000000E+00  0.45593999997E+02  0.45594000000E+02  0.51100000000E-03 0.  1.
         11   -1    0    0    0    0 -0.00000000000E+00 -0.00000000000E+00 -0.45593999997E+02  0.45594000000E+02  0.51100000000E-03 0. -1.
    9900012    2    1    2    0    0 -0.11900637015E+02  0.14193726521E+02  0.27556586320E+01  0.72461529740E+02  0.69999947170E+02 0.  0.
         12    1    1    2    0    0  0.11900637015E+02 -0.14193726521E+02 -0.27556586320E+01  0.18726470260E+02  0.00000000000E+00 0. -1.
         11    1    3    3    0    0 -0.20535076552E+02 -0.22611526947E+02 -0.20611548242E+01  0.30614030760E+02  0.51100000000E-03 0. -1.
        -11    1    3    3    0    0  0.36353307662E+00  0.11575113259E+01  0.51095974417E+01  0.52516640262E+01  0.51100000000E-03 0.  1.
        -12    1    3    3    0    0  0.82709064602E+01  0.35647742142E+02 -0.29278398538E+00  0.36595834954E+02  0.00000000000E+00 0.  1.
</event>
<event>
 7    1  0.2932741E-013  0.7246158E+02  0.7816164E-02  0.1226708E+00
        -11   -1    0    0    0    0  0.00000000000E+00  0.00000000000E+00  0.45593999997E+02  0.45594000000E+02  0.51100000000E-03 0. -1.
         11   -1    0    0    0    0 -0.00000000000E+00 -0.00000000000E+00 -0.45593999997E+02  0.45594000000E+02  0.51100000000E-03 0.  1.
    9900012    2    1    2    0    0  0.59798871996E+01 -0.96544688490E+01 -0.14889965664E+02  0.72461577567E+02  0.70000009473E+02 0.  0.
         12    1    1    2    0    0 -0.59798871996E+01  0.96544688490E+01  0.14889965664E+02  0.18726422433E+02  0.00000000000E+00 0. -1.
         11    1    3    3    0    0 -0.69749706596E+01  0.90694774478E+01  0.61987108978E-01  0.11441568054E+02  0.51100000000E-03 0. -1.
        -11    1    3    3    0    0  0.58164439832E+01 -0.86679745174E+01  0.20761139734E+02  0.23237679019E+02  0.51100000000E-03 0.  1.
        -12    1    3    3    0    0  0.71384138760E+01 -0.10055971779E+02 -0.35713092507E+02  0.37782330494E+02  0.00000000000E+00 0.  1.
</event>
<event>
 7    1  0.2932741E-013  0.7246161E+02  0.7816164E-02  0.1226708E+00
        -11   -1    0    0    0    0  0.00000000000E+00  0.00000000000E+00  0.45593999997E+02  0.45594000000E+02  0.51100000000E-03 0.  1.
         11   -1    0    0    0    0 -0.00000000000E+00 -0.00000000000E+00 -0.45593999997E+02  0.45594000000E+02  0.51100000000E-03 0. -1.
    9900012    2    1    2    0    0 -0.10759679065E+02 -0.11769899213E+02 -0.98171561660E+01  0.72461607495E+02  0.70000048460E+02 0.  0.
         12    1    1    2    0    0  0.10759679065E+02  0.11769899213E+02  0.98171561660E+01  0.18726392505E+02  0.00000000000E+00 0. -1.
         11    1    3    3    0    0 -0.43065930942E+01  0.35425643854E+01 -0.39331750308E+00  0.55902777590E+01  0.51100000000E-03 0. -1.
        -11    1    3    3    0    0 -0.43879448515E+01  0.15281633981E+02  0.19196932330E+02  0.24925982595E+02  0.51100000000E-03 0.  1.
         12    1    3    3    0    0 -0.20651411197E+01 -0.30594097579E+02 -0.28620770993E+02  0.41945347141E+02  0.00000000000E+00 0. -1.
</event>
<event>
 7    1  0.2932741E-013  0.7246156E+02  0.7816164E-02  0.1226708E+00
        -11   -1    0    0    0    0  0.00000000000E+00  0.00000000000E+00  0.45593999997E+02  0.45594000000E+02  0.51100000000E-03 0. -1.
         11   -1    0    0    0    0 -0.00000000000E+00 -0.00000000000E+00 -0.45593999997E+02  0.45594000000E+02  0.51100000000E-03 0.  1.
    9900012    2    1    2    0    0 -0.10983435247E+02 -0.24478709957E+01 -0.14968353780E+02  0.72461560479E+02  0.69999987214E+02 0.  0.
         12    1    1    2    0    0  0.10983435247E+02  0.24478709957E+01  0.14968353780E+02  0.18726439521E+02  0.00000000000E+00 0. -1.
         11    1    3    3    0    0 -0.14257734249E+02 -0.29646312443E+02  0.13289981961E+01  0.32923442467E+02  0.51100000000E-03 0. -1.
        -11    1    3    3    0    0  0.64604156773E+01 -0.17544515245E+01 -0.47339501675E+01  0.81991069834E+01  0.51100000000E-03 0.  1.
        -12    1    3    3    0    0 -0.31861166756E+01  0.28952892972E+02 -0.11563401809E+02  0.31339011029E+02  0.00000000000E+00 0.  1.
</event>
<event>
 7    1  0.2932741E-013  0.7246166E+02  0.7816164E-02  0.1226708E+00
        -11   -1    0    0    0    0  0.00000000000E+00  0.00000000000E+00  0.45593999997E+02  0.45594000000E+02  0.51100000000E-03 0. -1.
         11   -1    0    0    0    0 -0.00000000000E+00 -0.00000000000E+00 -0.45593999997E+02  0.45594000000E+02  0.51100000000E-03 0.  1.
    9900012    2    1    2    0    0 -0.15605266110E+01 -0.97379191370E+01 -0.15918965432E+02  0.72461660986E+02  0.70000118143E+02 0.  0.
         12    1    1    2    0    0  0.15605266110E+01  0.97379191370E+01  0.15918965432E+02  0.18726339014E+02  0.00000000000E+00 0. -1.
         11    1    3    3    0    0  0.19077914306E+02 -0.25494506480E+02  0.55516702559E+01  0.32322712105E+02  0.51100000000E-03 0. -1.
        -11    1    3    3    0    0  0.63200732301E+00  0.32726656436E+00 -0.12280257418E+02  0.12300864164E+02  0.51100000000E-03 0.  1.
        -12    1    3    3    0    0 -0.21270448240E+02  0.15429320779E+02 -0.91903782700E+01  0.27838084718E+02  0.00000000000E+00 0.  1.
</event>
<event>
 7    1  0.2932741E-013  0.7246154E+02  0.7816164E-02  0.1226708E+00
        -11   -1    0    0    0    0  0.00000000000E+00  0.00000000000E+00  0.45593999997E+02  0.45594000000E+02  0.51100000000E-03 0.  1.
         11   -1    0    0    0    0 -0.00000000000E+00 -0.00000000000E+00 -0.45593999997E+02  0.45594000000E+02  0.51100000000E-03 0. -1.
    9900012    2    1    2    0    0  0.18461725203E+02 -0.24111480767E+01  0.20078646722E+01  0.72461536023E+02  0.69999955356E+02 0.  0.
         12    1    1    2    0    0 -0.18461725203E+02  0.24111480767E+01 -0.20078646722E+01  0.18726463977E+02  0.00000000000E+00 0. -1.
         11    1    3    3    0    0 -0.99749808157E+01  0.10214129950E+01  0.31211682652E+01  0.10501676932E+02  0.51100000000E-03 0. -1.
        -11    1    3    3    0    0  0.17243495112E+02 -0.15856472766E+02  0.22859337343E+02  0.32730951044E+02  0.51100000000E-03 0.  1.
         12    1    3    3    0    0  0.11193210907E+02  0.12423911694E+02 -0.23972640936E+02  0.29228908047E+02  0.00000000000E+00 0. -1.
</event>
<event>
 7    1  0.2932741E-013  0.7246158E+02  0.7816164E-02  0.1226708E+00
        -11   -1    0    0    0    0  0.00000000000E+00  0.00000000000E+00  0.45593999997E+02  0.45594000000E+02  0.51100000000E-03 0.  1.
         11   -1    0    0    0    0 -0.00000000000E+00 -0.00000000000E+00 -0.45593999997E+02  0.45594000000E+02  0.51100000000E-03 0. -1.
    9900012    2    1    2    0    0  0.96847810428E+01 -0.15620855955E+02 -0.35878294467E+01  0.72461584306E+02  0.70000018253E+02 0.  0.
         12    1    1    2    0    0 -0.96847810428E+01  0.15620855955E+02  0.35878294467E+01  0.18726415694E+02  0.00000000000E+00 0. -1.
         11    1    3    3    0    0  0.32286033624E+01 -0.13720922792E+02  0.70735194937E+01  0.15770931495E+02  0.51100000000E-03 0. -1.
        -11    1    3    3    0    0 -0.17393601535E+02  0.12141906153E+02  0.86864495955E+01  0.22921990887E+02  0.51100000000E-03 0.  1.
         12    1    3    3    0    0  0.23849779215E+02 -0.14041839316E+02 -0.19347798536E+02  0.33768661925E+02  0.00000000000E+00 0. -1.
</event>
<event>
 7    1  0.2932741E-013  0.7246155E+02  0.7816164E-02  0.1226708E+00
        -11   -1    0    0    0    0  0.00000000000E+00  0.00000000000E+00  0.45593999997E+02  0.45594000000E+02  0.51100000000E-03 0.  1.
         11   -1    0    0    0    0 -0.00000000000E+00 -0.00000000000E+00 -0.45593999997E+02  0.45594000000E+02  0.51100000000E-03 0. -1.
    9900012    2    1    2    0    0  0.20271383685E-01 -0.35606574641E+01  0.18384807440E+02  0.72461552470E+02  0.69999976780E+02 0.  0.
         12    1    1    2    0    0 -0.20271383685E-01  0.35606574641E+01 -0.18384807440E+02  0.18726447530E+02  0.00000000000E+00 0. -1.
         11    1    3    3    0    0  0.17918152813E+01  0.80260183523E+01 -0.12087728609E+02  0.14619875369E+02  0.51100000000E-03 0. -1.
        -11    1    3    3    0    0 -0.22164178859E+02  0.36408196995E+01  0.78603027002E+01  0.23796864318E+02  0.51100000000E-03 0.  1.
        -12    1    3    3    0    0  0.20392634962E+02 -0.15227495516E+02  0.22612233349E+02  0.34044812783E+02  0.00000000000E+00 0.  1.
</event>
<event>
 7    1  0.2932741E-013  0.7246162E+02  0.7816164E-02  0.1226708E+00
        -11   -1    0    0    0    0  0.00000000000E+00  0.00000000000E+00  0.45593999997E+02  0.45594000000E+02  0.51100000000E-03 0.  1.
         11   -1    0    0    0    0 -0.00000000000E+00 -0.00000000000E+00 -0.45593999997E+02  0.45594000000E+02  0.51100000000E-03 0. -1.
    9900012    2    1    2    0    0 -0.84233030411E+01 -0.13662132287E+02 -0.96473596198E+01  0.72461616463E+02  0.70000060143E+02 0.  0.
         12    1    1    2    0    0  0.84233030411E+01  0.13662132287E+02  0.96473596198E+01  0.18726383537E+02  0.00000000000E+00 0. -1.
         11    1    3    3    0    0 -0.13034380794E+02 -0.35587858313E+02 -0.18241566466E+02  0.42061211221E+02  0.51100000000E-03 0. -1.
        -11    1    3    3    0    0 -0.22471893401E+01 -0.19933869229E+01 -0.17234366886E+01  0.34631900952E+01  0.51100000000E-03 0.  1.
        -12    1    3    3    0    0  0.68582670929E+01  0.23919112949E+02  0.10317643534E+02  0.26937215147E+02  0.00000000000E+00 0.  1.
</event>
<event>
 7    1  0.2932741E-013  0.7246159E+02  0.7816164E-02  0.1226708E+00
        -11   -1    0    0    0    0  0.00000000000E+00  0.00000000000E+00  0.45593999997E+02  0.45594000000E+02  0.51100000000E-03 0. -1.
         11   -1    0    0    0    0 -0.00000000000E+00 -0.00000000000E+00 -0.45593999997E+02  0.45594000000E+02  0.51100000000E-03 0.  1.
    9900012    2    1    2    0    0  0.11509740505E+02 -0.75709048899E+01  0.12684071461E+02  0.72461590943E+02  0.70000026899E+02 0.  0.
         12    1    1    2    0    0 -0.11509740505E+02  0.75709048899E+01 -0.12684071461E+02  0.18726409057E+02  0.00000000000E+00 0. -1.
         11    1    3    3    0    0  0.18479605047E+02  0.20591583413E+02  0.47609906177E+01  0.28074474921E+02  0.51100000000E-03 0. -1.
        -11    1    3    3    0    0  0.46665799849E+01  0.31119560537E+01  0.94431866472E+01  0.10983397177E+02  0.51100000000E-03 0.  1.
        -12    1    3    3    0    0 -0.11636444528E+02 -0.31274444356E+02 -0.15201058039E+01  0.33403718845E+02  0.00000000000E+00 0.  1.
</event>
<event>
 7    1  0.2932741E-013  0.7246157E+02  0.7816164E-02  0.1226708E+00
        -11   -1    0    0    0    0  0.00000000000E+00  0.00000000000E+00  0.45593999997E+02  0.45594000000E+02  0.51100000000E-03 0. -1.
         11   -1    0    0    0    0 -0.00000000000E+00 -0.00000000000E+00 -0.45593999997E+02  0.45594000000E+02  0.51100000000E-03 0.  1.
    9900012    2    1    2    0    0  0.78849421298E+01 -0.16829495604E+02 -0.22967279585E+01  0.72461569641E+02  0.69999999148E+02 0.  0.
         12    1    1    2    0    0 -0.78849421298E+01  0.16829495604E+02  0.22967279585E+01  0.18726430359E+02  0.00000000000E+00 0. -1.
         11    1    3    3    0    0  0.10113424016E+01 -0.73460127775E+01  0.16712936550E+02  0.18284117850E+02  0.51100000000E-03 0. -1.
        -11    1    3    3    0    0 -0.18923766688E+02  0.61545005849E+01 -0.11892251718E+02  0.23182158534E+02  0.51100000000E-03 0.  1.
        -12    1    3    3    0    0  0.25797366416E+02 -0.15637983412E+02 -0.71174127901E+01  0.30995293256E+02  0.00000000000E+00 0.  1.
</event>
<event>
 7    1  0.2932741E-013  0.7246152E+02  0.7816164E-02  0.1226708E+00
        -11   -1    0    0    0    0  0.00000000000E+00  0.00000000000E+00  0.45593999997E+02  0.45594000000E+02  0.51100000000E-03 0.  1.
         11   -1    0    0    0    0 -0.00000000000E+00 -0.00000000000E+00 -0.45593999997E+02  0.45594000000E+02  0.51100000000E-03 0. -1.
    9900012    2    1    2    0    0  0.73258473074E+01  0.15168235871E+02  0.81815491287E+01  0.72461517032E+02  0.69999930616E+02 0.  0.
         12    1    1    2    0    0 -0.73258473074E+01 -0.15168235871E+02 -0.81815491287E+01  0.18726482968E+02  0.00000000000E+00 0. -1.
         11    1    3    3    0    0 -0.68229408204E+01  0.29832949970E+02 -0.11805767073E+02  0.32801426216E+02  0.51100000000E-03 0. -1.
        -11    1    3    3    0    0  0.12905133191E+01 -0.32124120878E+01 -0.69069010160E+01  0.77259496474E+01  0.51100000000E-03 0.  1.
        -12    1    3    3    0    0  0.12858274809E+02 -0.11452302012E+02  0.26894217217E+02  0.31934141168E+02  0.00000000000E+00 0.  1.
</event>
<event>
 7    1  0.2932741E-013  0.7246160E+02  0.7816164E-02  0.1226708E+00
        -11   -1    0    0    0    0  0.00000000000E+00  0.00000000000E+00  0.45593999997E+02  0.45594000000E+02  0.51100000000E-03 0. -1.
         11   -1    0    0    0    0 -0.00000000000E+00 -0.00000000000E+00 -0.45593999997E+02  0.45594000000E+02  0.51100000000E-03 0.  1.
    9900012    2    1    2    0    0  0.18466326140E+01  0.17096278783E+02 -0.74152107925E+01  0.72461597480E+02  0.70000035415E+02 0.  0.
         12    1    1    2    0    0 -0.18466326140E+01 -0.17096278783E+02  0.74152107925E+01  0.18726402520E+02  0.00000000000E+00 0. -1.
         11    1    3    3    0    0  0.36876686272E+01  0.40653471058E+00  0.28368242422E+01  0.46703043174E+01  0.51100000000E-03 0. -1.
        -11    1    3    3    0    0  0.60720659450E+01  0.40923109407E+02 -0.41516026441E+01  0.41578921019E+02  0.51100000000E-03 0.  1.
         12    1    3    3    0    0 -0.79131019582E+01 -0.24233365334E+02 -0.61004323906E+01  0.26212372143E+02  0.00000000000E+00 0. -1.
</event>
<event>
 7    1  0.2932741E-013  0.7246150E+02  0.7816164E-02  0.1226708E+00
        -11   -1    0    0    0    0  0.00000000000E+00  0.00000000000E+00  0.45593999997E+02  0.45594000000E+02  0.51100000000E-03 0.  1.
         11   -1    0    0    0    0 -0.00000000000E+00 -0.00000000000E+00 -0.45593999997E+02  0.45594000000E+02  0.51100000000E-03 0. -1.
    9900012    2    1    2    0    0 -0.13868986056E+02 -0.11744515531E+01  0.12528123328E+02  0.72461495126E+02  0.69999902079E+02 0.  0.
         12    1    1    2    0    0  0.13868986056E+02  0.11744515531E+01 -0.12528123328E+02  0.18726504874E+02  0.00000000000E+00 0. -1.
         11    1    3    3    0    0 -0.10438569544E+02 -0.97058837286E+01  0.62208214566E+01  0.15552058800E+02  0.51100000000E-03 0. -1.
        -11    1    3    3    0    0  0.22453714381E+02 -0.84971629978E+01  0.93780735911E+01  0.25774392972E+02  0.51100000000E-03 0.  1.
        -12    1    3    3    0    0 -0.25884130893E+02  0.17028595173E+02 -0.30707717192E+01  0.31135043354E+02  0.00000000000E+00 0.  1.
</event>
<event>
 7    1  0.2932741E-013  0.7246160E+02  0.7816164E-02  0.1226708E+00
        -11   -1    0    0    0    0  0.00000000000E+00  0.00000000000E+00  0.45593999997E+02  0.45594000000E+02  0.51100000000E-03 0.  1.
         11   -1    0    0    0    0 -0.00000000000E+00 -0.00000000000E+00 -0.45593999997E+02  0.45594000000E+02  0.51100000000E-03 0. -1.
    9900012    2    1    2    0    0 -0.12306737317E+02  0.62379180300E+01  0.12661383599E+02  0.72461600469E+02  0.70000039308E+02 0.  0.
         12    1    1    2    0    0  0.12306737317E+02 -0.62379180300E+01 -0.12661383599E+02  0.18726399531E+02  0.00000000000E+00 0. -1.
         11    1    3    3    0    0 -0.21890527674E+02  0.37426035184E+01  0.37550639618E+01  0.22523383151E+02  0.51100000000E-03 0. -1.
        -11    1    3    3    0    0 -0.49049000487E+01  0.15461728335E+02  0.21380339894E+02  0.26837325161E+02  0.51100000000E-03 0.  1.
         12    1    3    3    0    0  0.14488690405E+02 -0.12966413823E+02 -0.12474020257E+02  0.23100892157E+02  0.00000000000E+00 0. -1.
</event>
<event>
 7    1  0.2932741E-013  0.7246156E+02  0.7816164E-02  0.1226708E+00
        -11   -1    0    0    0    0  0.00000000000E+00  0.00000000000E+00  0.45593999997E+02  0.45594000000E+02  0.51100000000E-03 0.  1.
         11   -1    0    0    0    0 -0.00000000000E+00 -0.00000000000E+00 -0.45593999997E+02  0.45594000000E+02  0.51100000000E-03 0. -1.
    9900012    2    1    2    0    0 -0.17973269644E+02  0.31606449888E+01  0.42013499050E+01  0.72461563087E+02  0.69999990611E+02 0.  0.
         12    1    1    2    0    0  0.17973269644E+02 -0.31606449888E+01 -0.42013499050E+01  0.18726436913E+02  0.00000000000E+00 0. -1.
         11    1    3    3    0    0 -0.22686396749E+02  0.23536380416E+02  0.38642388536E+01  0.32917565868E+02  0.51100000000E-03 0. -1.
        -11    1    3    3    0    0 -0.13657678856E+02 -0.61372743421E+01  0.51007548505E+01  0.15818218244E+02  0.51100000000E-03 0.  1.
        -12    1    3    3    0    0  0.18370805961E+02 -0.14238461085E+02 -0.47636437990E+01  0.23725778975E+02  0.00000000000E+00 0.  1.
</event>
<event>
 7    1  0.2932741E-013  0.7246155E+02  0.7816164E-02  0.1226708E+00
        -11   -1    0    0    0    0  0.00000000000E+00  0.00000000000E+00  0.45593999997E+02  0.45594000000E+02  0.51100000000E-03 0. -1.
         11   -1    0    0    0    0 -0.00000000000E+00 -0.00000000000E+00 -0.45593999997E+02  0.45594000000E+02  0.51100000000E-03 0.  1.
    9900012    2    1    2    0    0 -0.12528052471E+02 -0.11795202399E+02  0.73892393675E+01  0.72461554614E+02  0.69999979574E+02 0.  0.
         12    1    1    2    0    0  0.12528052471E+02  0.11795202399E+02 -0.73892393675E+01  0.18726445386E+02  0.00000000000E+00 0. -1.
         11    1    3    3    0    0 -0.22313436210E+02  0.18100651837E+02  0.60637634152E+01  0.29364813288E+02  0.51100000000E-03 0. -1.
        -11    1    3    3    0    0 -0.70289336033E+01  0.41684783142E+00 -0.38874479133E+01  0.80431288224E+01  0.51100000000E-03 0.  1.
        -12    1    3    3    0    0  0.16814317343E+02 -0.30312702068E+02  0.52129238655E+01  0.35053612504E+02  0.00000000000E+00 0.  1.
</event>
<event>
 7    1  0.2932741E-013  0.7246160E+02  0.7816164E-02  0.1226708E+00
        -11   -1    0    0    0    0  0.00000000000E+00  0.00000000000E+00  0.45593999997E+02  0.45594000000E+02  0.51100000000E-03 0. -1.
         11   -1    0    0    0    0 -0.00000000000E+00 -0.00000000000E+00 -0.45593999997E+02  0.45594000000E+02  0.51100000000E-03 0.  1.
    9900012    2    1    2    0    0  0.40832956573E+01 -0.18043666157E+02  0.29036112618E+01  0.72461597511E+02  0.70000035455E+02 0.  0.
         12    1    1    2    0    0 -0.40832956573E+01  0.18043666157E+02 -0.29036112618E+01  0.18726402489E+02  0.00000000000E+00 0. -1.
         11    1    3    3    0    0  0.12385019408E+02  0.57919857809E+00  0.96700072034E+01  0.15723651494E+02  0.51100000000E-03 0. -1.
        -11    1    3    3    0    0  0.63320603928E+01 -0.34267776926E+02 -0.28866386225E+01  0.34967244773E+02  0.51100000000E-03 0.  1.
         12    1    3    3    0    0 -0.14633784143E+02  0.15644912190E+02 -0.38797573192E+01  0.21770701244E+02  0.00000000000E+00 0. -1.
</event>
<event>
 7    1  0.2932741E-013  0.7246159E+02  0.7816164E-02  0.1226708E+00
        -11   -1    0    0    0    0  0.00000000000E+00  0.00000000000E+00  0.45593999997E+02  0.45594000000E+02  0.51100000000E-03 0.  1.
         11   -1    0    0    0    0 -0.00000000000E+00 -0.00000000000E+00 -0.45593999997E+02  0.45594000000E+02  0.51100000000E-03 0. -1.
    9900012    2    1    2    0    0 -0.44746586195E+01 -0.16358568399E+02  0.79406026786E+01  0.72461588151E+02  0.70000023262E+02 0.  0.
         12    1    1    2    0    0  0.44746586195E+01  0.16358568399E+02 -0.79406026786E+01  0.18726411849E+02  0.00000000000E+00 0. -1.
         11    1    3    3    0    0  0.10103271998E+02  0.38277675064E+01 -0.11199208332E+02  0.15561175298E+02  0.51100000000E-03 0. -1.
        -11    1    3    3    0    0 -0.21457916356E+01 -0.32328282306E+02  0.19514393616E+01  0.32458132640E+02  0.51100000000E-03 0.  1.
         12    1    3    3    0    0 -0.12432138982E+02  0.12141946401E+02  0.17188371649E+02  0.24442280213E+02  0.00000000000E+00 0. -1.
</event>
<event>
 7    1  0.2932741E-013  0.7246158E+02  0.7816164E-02  0.1226708E+00
        -11   -1    0    0    0    0  0.00000000000E+00  0.00000000000E+00  0.45593999997E+02  0.45594000000E+02  0.51100000000E-03 0. -1.
         11   -1    0    0    0    0 -0.00000000000E+00 -0.00000000000E+00 -0.45593999997E+02  0.45594000000E+02  0.51100000000E-03 0.  1.
    9900012    2    1    2    0    0  0.10773598342E+02 -0.72362715793E+01 -0.13499809589E+02  0.72461577316E+02  0.70000009147E+02 0.  0.
         12    1    1    2    0    0 -0.10773598342E+02  0.72362715793E+01  0.13499809589E+02  0.18726422684E+02  0.00000000000E+00 0. -1.
         11    1    3    3    0    0  0.12735275382E+02 -0.15978331691E+02 -0.72225302187E+00  0.20445438914E+02  0.51100000000E-03 0. -1.
        -11    1    3    3    0    0  0.20678526970E+02 -0.76802650386E+01 -0.24211893094E+01  0.22191216881E+02  0.51100000000E-03 0.  1.
        -12    1    3    3    0    0 -0.22640204010E+02  0.16422325150E+02 -0.10356367257E+02  0.29824921521E+02  0.00000000000E+00 0.  1.
</event>
<event>
 7    1  0.2932741E-013  0.7246140E+02  0.7816164E-02  0.1226708E+00
        -11   -1    0    0    0    0  0.00000000000E+00  0.00000000000E+00  0.45593999997E+02  0.45594000000E+02  0.51100000000E-03 0.  1.
         11   -1    0    0    0    0 -0.00000000000E+00 -0.00000000000E+00 -0.45593999997E+02  0.45594000000E+02  0.51100000000E-03 0. -1.
    9900012    2    1    2    0    0  0.61086111966E+01  0.17658269905E+02 -0.12474268620E+01  0.72461395914E+02  0.69999772837E+02 0.  0.
         12    1    1    2    0    0 -0.61086111966E+01 -0.17658269905E+02  0.12474268620E+01  0.18726604086E+02  0.00000000000E+00 0. -1.
         11    1    3    3    0    0 -0.10975537959E+01 -0.11723445963E+02  0.35920799554E+01  0.12310436558E+02  0.51100000000E-03 0. -1.
        -11    1    3    3    0    0 -0.29278165984E+01  0.64517616134E+01 -0.26246047547E+02  0.27185517285E+02  0.51100000000E-03 0.  1.
        -12    1    3    3    0    0  0.10133981591E+02  0.22929954255E+02  0.21406540729E+02  0.32965442072E+02  0.00000000000E+00 0.  1.
</event>
<event>
 7    1  0.2932741E-013  0.7246159E+02  0.7816164E-02  0.1226708E+00
        -11   -1    0    0    0    0  0.00000000000E+00  0.00000000000E+00  0.45593999997E+02  0.45594000000E+02  0.51100000000E-03 0.  1.
         11   -1    0    0    0    0 -0.00000000000E+00 -0.00000000000E+00 -0.45593999997E+02  0.45594000000E+02  0.51100000000E-03 0. -1.
    9900012    2    1    2    0    0  0.80264843111E+01 -0.16917606117E+02 -0.22074790639E+00  0.72461586121E+02  0.70000020617E+02 0.  0.
         12    1    1    2    0    0 -0.80264843111E+01  0.16917606117E+02  0.22074790639E+00  0.18726413879E+02  0.00000000000E+00 0. -1.
         11    1    3    3    0    0 -0.13363914722E+02  0.88030600271E+01 -0.78278608673E+00  0.16021886183E+02  0.51100000000E-03 0.  1.
        -11    1    3    3    0    0 -0.19385410342E+00  0.11303684614E+02  0.67065714890E+01  0.13144921707E+02  0.51100000000E-03 0. -1.
         12    1    3    3    0    0  0.21584253136E+02 -0.37024350758E+02 -0.61445333086E+01  0.43294778232E+02  0.00000000000E+00 0. -1.
</event>
<event>
 7    1  0.2932741E-013  0.7246152E+02  0.7816164E-02  0.1226708E+00
        -11   -1    0    0    0    0  0.00000000000E+00  0.00000000000E+00  0.45593999997E+02  0.45594000000E+02  0.51100000000E-03 0.  1.
         11   -1    0    0    0    0 -0.00000000000E+00 -0.00000000000E+00 -0.45593999997E+02  0.45594000000E+02  0.51100000000E-03 0. -1.
    9900012    2    1    2    0    0  0.15438494247E+02  0.56330194500E+01 -0.89779151230E+01  0.72461522149E+02  0.69999937282E+02 0.  0.
         12    1    1    2    0    0 -0.15438494247E+02 -0.56330194500E+01  0.89779151230E+01  0.18726477851E+02  0.00000000000E+00 0. -1.
         11    1    3    3    0    0  0.12170557144E+02 -0.12327465422E+02  0.42355264181E+01  0.17833354963E+02  0.51100000000E-03 0. -1.
        -11    1    3    3    0    0 -0.13814402704E+01  0.26992097985E+02  0.10371177486E+02  0.28948973273E+02  0.51100000000E-03 0.  1.
         12    1    3    3    0    0  0.46493773742E+01 -0.90316131128E+01 -0.23584619027E+02  0.25679193913E+02  0.00000000000E+00 0. -1.
</event>
<event>
 7    1  0.2932741E-013  0.7246155E+02  0.7816164E-02  0.1226708E+00
        -11   -1    0    0    0    0  0.00000000000E+00  0.00000000000E+00  0.45593999997E+02  0.45594000000E+02  0.51100000000E-03 0.  1.
         11   -1    0    0    0    0 -0.00000000000E+00 -0.00000000000E+00 -0.45593999997E+02  0.45594000000E+02  0.51100000000E-03 0. -1.
    9900012    2    1    2    0    0  0.14000283847E+02  0.12084573867E+02  0.29385598869E+01  0.72461547918E+02  0.69999970851E+02 0.  0.
         12    1    1    2    0    0 -0.14000283847E+02 -0.12084573867E+02 -0.29385598869E+01  0.18726452082E+02  0.00000000000E+00 0. -1.
         11    1    3    3    0    0  0.25163906430E+02 -0.48007850460E+01 -0.61780367925E+00  0.25625210351E+02  0.51100000000E-03 0. -1.
        -11    1    3    3    0    0  0.87562967226E+01 -0.48866128285E+01 -0.10177291262E+02  0.14287371169E+02  0.51100000000E-03 0.  1.
        -12    1    3    3    0    0 -0.19919919306E+02  0.21771971742E+02  0.13733654828E+02  0.32548966398E+02  0.00000000000E+00 0.  1.
</event>
<event>
 7    1  0.2932741E-013  0.7246158E+02  0.7816164E-02  0.1226708E+00
        -11   -1    0    0    0    0  0.00000000000E+00  0.00000000000E+00  0.45593999997E+02  0.45594000000E+02  0.51100000000E-03 0.  1.
         11   -1    0    0    0    0 -0.00000000000E+00 -0.00000000000E+00 -0.45593999997E+02  0.45594000000E+02  0.51100000000E-03 0. -1.
    9900012    2    1    2    0    0 -0.17932819268E+02 -0.51612353244E+01  0.15667120805E+01  0.72461576323E+02  0.70000007854E+02 0.  0.
         12    1    1    2    0    0  0.17932819268E+02  0.51612353244E+01 -0.15667120805E+01  0.18726423677E+02  0.00000000000E+00 0. -1.
         11    1    3    3    0    0  0.11437786339E+02 -0.80408267786E+01  0.44171268042E+01  0.14662498460E+02  0.51100000000E-03 0. -1.
        -11    1    3    3    0    0  0.79798880376E+00 -0.92412325189E+01  0.17242345453E+02  0.19578959155E+02  0.51100000000E-03 0.  1.
        -12    1    3    3    0    0 -0.30168594411E+02  0.12120823973E+02 -0.20092760177E+02  0.38220118708E+02  0.00000000000E+00 0.  1.
</event>
<event>
 7    1  0.2932741E-013  0.7246153E+02  0.7816164E-02  0.1226708E+00
        -11   -1    0    0    0    0  0.00000000000E+00  0.00000000000E+00  0.45593999997E+02  0.45594000000E+02  0.51100000000E-03 0.  1.
         11   -1    0    0    0    0 -0.00000000000E+00 -0.00000000000E+00 -0.45593999997E+02  0.45594000000E+02  0.51100000000E-03 0. -1.
    9900012    2    1    2    0    0 -0.11950186482E+02 -0.10464242369E+02  0.99183327261E+01  0.72461530782E+02  0.69999948528E+02 0.  0.
         12    1    1    2    0    0  0.11950186482E+02  0.10464242369E+02 -0.99183327261E+01  0.18726469218E+02  0.00000000000E+00 0. -1.
         11    1    3    3    0    0 -0.27869307206E+02  0.90083348941E+00 -0.10201886545E+02  0.29691552240E+02  0.51100000000E-03 0. -1.
        -11    1    3    3    0    0  0.86582665940E+01  0.64261370548E+01 -0.43756678698E+01  0.11636463699E+02  0.51100000000E-03 0.  1.
        -12    1    3    3    0    0  0.72608541295E+01 -0.17791212913E+02  0.24495887141E+02  0.31133514842E+02  0.00000000000E+00 0.  1.
</event>
<event>
 7    1  0.2932741E-013  0.7246178E+02  0.7816164E-02  0.1226707E+00
        -11   -1    0    0    0    0  0.00000000000E+00  0.00000000000E+00  0.45593999997E+02  0.45594000000E+02  0.51100000000E-03 0.  1.
         11   -1    0    0    0    0 -0.00000000000E+00 -0.00000000000E+00 -0.45593999997E+02  0.45594000000E+02  0.51100000000E-03 0. -1.
    9900012    2    1    2    0    0  0.43479238786E+01 -0.17129139336E+02 -0.61935032616E+01  0.72461779370E+02  0.70000272359E+02 0.  0.
         12    1    1    2    0    0 -0.43479238786E+01  0.17129139336E+02  0.61935032616E+01  0.18726220630E+02  0.00000000000E+00 0. -1.
         11    1    3    3    0    0 -0.37516916383E+01 -0.18072389482E+02 -0.16551703090E+02  0.24792041610E+02  0.51100000000E-03 0. -1.
        -11    1    3    3    0    0 -0.25247054248E+01 -0.82627887860E+01 -0.15780262666E+02  0.17990678310E+02  0.51100000000E-03 0.  1.
        -12    1    3    3    0    0  0.10624320942E+02  0.92060389321E+01  0.26138462494E+02  0.29679059450E+02  0.00000000000E+00 0.  1.
</event>
<event>
 7    1  0.2932741E-013  0.7246158E+02  0.7816164E-02  0.1226708E+00
        -11   -1    0    0    0    0  0.00000000000E+00  0.00000000000E+00  0.45593999997E+02  0.45594000000E+02  0.51100000000E-03 0.  1.
         11   -1    0    0    0    0 -0.00000000000E+00 -0.00000000000E+00 -0.45593999997E+02  0.45594000000E+02  0.51100000000E-03 0. -1.
    9900012    2    1    2    0    0 -0.84123595451E+01  0.50216847156E+01  0.15959125783E+02  0.72461579994E+02  0.70000012635E+02 0.  0.
         12    1    1    2    0    0  0.84123595451E+01 -0.50216847156E+01 -0.15959125783E+02  0.18726420006E+02  0.00000000000E+00 0. -1.
         11    1    3    3    0    0 -0.66849686228E+01  0.20118615341E+02 -0.24735017600E+00  0.21201619540E+02  0.51100000000E-03 0. -1.
        -11    1    3    3    0    0 -0.10008617441E+02  0.25238271422E+01 -0.12726461657E+02  0.16386120745E+02  0.51100000000E-03 0.  1.
        -12    1    3    3    0    0  0.82812265186E+01 -0.17620757768E+02  0.28932937615E+02  0.34873839709E+02  0.00000000000E+00 0.  1.
</event>
<event>
 7    1  0.2932741E-013  0.7246154E+02  0.7816164E-02  0.1226708E+00
        -11   -1    0    0    0    0  0.00000000000E+00  0.00000000000E+00  0.45593999997E+02  0.45594000000E+02  0.51100000000E-03 0. -1.
         11   -1    0    0    0    0 -0.00000000000E+00 -0.00000000000E+00 -0.45593999997E+02  0.45594000000E+02  0.51100000000E-03 0.  1.
    9900012    2    1    2    0    0 -0.14056841285E+02 -0.98524369917E+01 -0.74843221885E+01  0.72461537969E+02  0.69999957890E+02 0.  0.
         12    1    1    2    0    0  0.14056841285E+02  0.98524369917E+01  0.74843221885E+01  0.18726462031E+02  0.00000000000E+00 0. -1.
         11    1    3    3    0    0 -0.28365063757E+02 -0.20041472074E+02 -0.15103784329E+02  0.37872968542E+02  0.51100000000E-03 0. -1.
        -11    1    3    3    0    0 -0.16422907878E+01 -0.87083012925E+01  0.59794511585E+00  0.88819575013E+01  0.51100000000E-03 0.  1.
         12    1    3    3    0    0  0.15950513260E+02  0.18897336375E+02  0.70215170251E+01  0.25706611925E+02  0.00000000000E+00 0. -1.
</event>
<event>
 7    1  0.2932741E-013  0.7246158E+02  0.7816164E-02  0.1226708E+00
        -11   -1    0    0    0    0  0.00000000000E+00  0.00000000000E+00  0.45593999997E+02  0.45594000000E+02  0.51100000000E-03 0.  1.
         11   -1    0    0    0    0 -0.00000000000E+00 -0.00000000000E+00 -0.45593999997E+02  0.45594000000E+02  0.51100000000E-03 0. -1.
    9900012    2    1    2    0    0  0.97126189419E+01  0.15376009680E+02  0.44634251540E+01  0.72461580040E+02  0.70000012696E+02 0.  0.
         12    1    1    2    0    0 -0.97126189419E+01 -0.15376009680E+02 -0.44634251540E+01  0.18726419960E+02  0.00000000000E+00 0. -1.
         11    1    3    3    0    0  0.11635003399E+02  0.40957071206E+02 -0.94763494008E+00  0.42588179089E+02  0.51100000000E-03 0. -1.
        -11    1    3    3    0    0  0.43195545889E+01 -0.29503630077E+01 -0.14268167253E+01  0.54220844656E+01  0.51100000000E-03 0.  1.
        -12    1    3    3    0    0 -0.62419390458E+01 -0.22630698518E+02  0.68378768193E+01  0.24451316486E+02  0.00000000000E+00 0.  1.
</event>
<event>
 7    1  0.2932741E-013  0.7246167E+02  0.7816164E-02  0.1226708E+00
        -11   -1    0    0    0    0  0.00000000000E+00  0.00000000000E+00  0.45593999997E+02  0.45594000000E+02  0.51100000000E-03 0. -1.
         11   -1    0    0    0    0 -0.00000000000E+00 -0.00000000000E+00 -0.45593999997E+02  0.45594000000E+02  0.51100000000E-03 0.  1.
    9900012    2    1    2    0    0 -0.18471550803E+02 -0.16770005549E+00 -0.30739183012E+01  0.72461673983E+02  0.70000135073E+02 0.  0.
         12    1    1    2    0    0  0.18471550803E+02  0.16770005549E+00  0.30739183012E+01  0.18726326017E+02  0.00000000000E+00 0. -1.
         11    1    3    3    0    0 -0.10419311538E+02  0.27463053483E+02  0.40746810523E+01  0.29654415952E+02  0.51100000000E-03 0.  1.
        -11    1    3    3    0    0  0.87548791705E+01 -0.23790802411E+01 -0.85157158759E+01  0.12442883477E+02  0.51100000000E-03 0. -1.
        -12    1    3    3    0    0 -0.16807118436E+02 -0.25251673297E+02  0.13671165224E+01  0.30364374553E+02  0.00000000000E+00 0.  1.
</event>
<event>
 7    1  0.2932741E-013  0.7246158E+02  0.7816164E-02  0.1226708E+00
        -11   -1    0    0    0    0  0.00000000000E+00  0.00000000000E+00  0.45593999997E+02  0.45594000000E+02  0.51100000000E-03 0. -1.
         11   -1    0    0    0    0 -0.00000000000E+00 -0.00000000000E+00 -0.45593999997E+02  0.45594000000E+02  0.51100000000E-03 0.  1.
    9900012    2    1    2    0    0  0.17234138751E+02 -0.44743560768E+01  0.58002953801E+01  0.72461579432E+02  0.70000011904E+02 0.  0.
         12    1    1    2    0    0 -0.17234138751E+02  0.44743560768E+01 -0.58002953801E+01  0.18726420568E+02  0.00000000000E+00 0. -1.
         11    1    3    3    0    0  0.34794089503E+02  0.45289641938E+01 -0.15825678692E+02  0.38491457329E+02  0.51100000000E-03 0. -1.
        -11    1    3    3    0    0 -0.34348822600E+01  0.19223968162E+01  0.14016934244E+02  0.14559137046E+02  0.51100000000E-03 0.  1.
        -12    1    3    3    0    0 -0.14125068492E+02 -0.10925717087E+02  0.76090398283E+01  0.19410985057E+02  0.00000000000E+00 0.  1.
</event>
<event>
 7    1  0.3761894E-013  0.7246144E+02  0.7816164E-02  0.1226708E+00
        -11   -1    0    0    0    0  0.00000000000E+00  0.00000000000E+00  0.45593999997E+02  0.45594000000E+02  0.51100000000E-03 0. -1.
         11   -1    0    0    0    0 -0.00000000000E+00 -0.00000000000E+00 -0.45593999997E+02  0.45594000000E+02  0.51100000000E-03 0.  1.
    9900012    2    1    2    0    0  0.16652652206E+02  0.73734645672E+01 -0.43594809047E+01  0.72461444552E+02  0.69999836197E+02 0.  0.
         12    1    1    2    0    0 -0.16652652206E+02 -0.73734645672E+01  0.43594809047E+01  0.18726555448E+02  0.00000000000E+00 0. -1.
         11    1    3    3    0    0 -0.15525236714E+02 -0.22486206866E+01 -0.11190081963E+02  0.19269333269E+02  0.51100000000E-03 0. -1.
        -11    1    3    3    0    0 -0.93750811588E+01 -0.13554230260E+01  0.34483269487E+01  0.10080688336E+02  0.51100000000E-03 0.  1.
        -12    1    3    3    0    0  0.41552970079E+02  0.10977508280E+02  0.33822741095E+01  0.43111422947E+02  0.00000000000E+00 0.  1.
</event>
<event>
 7    1  0.2932741E-013  0.7246142E+02  0.7816164E-02  0.1226708E+00
        -11   -1    0    0    0    0  0.00000000000E+00  0.00000000000E+00  0.45593999997E+02  0.45594000000E+02  0.51100000000E-03 0. -1.
         11   -1    0    0    0    0 -0.00000000000E+00 -0.00000000000E+00 -0.45593999997E+02  0.45594000000E+02  0.51100000000E-03 0.  1.
    9900012    2    1    2    0    0  0.15362679676E+02 -0.86291928710E+01  0.63411294688E+01  0.72461419443E+02  0.69999803487E+02 0.  0.
         12    1    1    2    0    0 -0.15362679676E+02  0.86291928710E+01 -0.63411294688E+01  0.18726580557E+02  0.00000000000E+00 0. -1.
         11    1    3    3    0    0  0.18521798807E+02 -0.92001798915E+01  0.64610654397E+01  0.21666695824E+02  0.51100000000E-03 0. -1.
        -11    1    3    3    0    0  0.12542573093E+02  0.20594932272E+02  0.55057945107E+01  0.24734210086E+02  0.51100000000E-03 0.  1.
        -12    1    3    3    0    0 -0.15701692224E+02 -0.20023945252E+02 -0.56257304816E+01  0.26060513533E+02  0.00000000000E+00 0.  1.
</event>
<event>
 7    1  0.2932741E-013  0.7246157E+02  0.7816164E-02  0.1226708E+00
        -11   -1    0    0    0    0  0.00000000000E+00  0.00000000000E+00  0.45593999997E+02  0.45594000000E+02  0.51100000000E-03 0. -1.
         11   -1    0    0    0    0 -0.00000000000E+00 -0.00000000000E+00 -0.45593999997E+02  0.45594000000E+02  0.51100000000E-03 0.  1.
    9900012    2    1    2    0    0  0.15398733674E+02  0.82029249092E+01  0.68022269984E+01  0.72461567666E+02  0.69999996576E+02 0.  0.
         12    1    1    2    0    0 -0.15398733674E+02 -0.82029249092E+01 -0.68022269984E+01  0.18726432334E+02  0.00000000000E+00 0. -1.
         11    1    3    3    0    0  0.94883570749E+01 -0.10868125983E+01  0.31613864319E+02  0.33024937533E+02  0.51100000000E-03 0. -1.
        -11    1    3    3    0    0  0.17084187533E+02  0.20260636570E+01 -0.15713716681E+02  0.23300113514E+02  0.51100000000E-03 0.  1.
        -12    1    3    3    0    0 -0.11173810934E+02  0.72636738505E+01 -0.90979206404E+01  0.16136516618E+02  0.00000000000E+00 0.  1.
</event>
<event>
 7    1  0.2932741E-013  0.7246152E+02  0.7816164E-02  0.1226708E+00
        -11   -1    0    0    0    0  0.00000000000E+00  0.00000000000E+00  0.45593999997E+02  0.45594000000E+02  0.51100000000E-03 0. -1.
         11   -1    0    0    0    0 -0.00000000000E+00 -0.00000000000E+00 -0.45593999997E+02  0.45594000000E+02  0.51100000000E-03 0.  1.
    9900012    2    1    2    0    0 -0.11057256324E+02  0.76651136179E+01  0.13025526461E+02  0.72461515445E+02  0.69999928549E+02 0.  0.
         12    1    1    2    0    0  0.11057256324E+02 -0.76651136179E+01 -0.13025526461E+02  0.18726484555E+02  0.00000000000E+00 0. -1.
         11    1    3    3    0    0 -0.24574915954E-01 -0.14794478541E+02  0.22287985190E+02  0.26751289377E+02  0.51100000000E-03 0. -1.
        -11    1    3    3    0    0 -0.72701560583E+01  0.85376881116E+00  0.12709071962E+02  0.14666444719E+02  0.51100000000E-03 0.  1.
        -12    1    3    3    0    0 -0.37625253496E+01  0.21605823348E+02 -0.21971530691E+02  0.31043781349E+02  0.00000000000E+00 0.  1.
</event>
<event>
 7    1  0.2932741E-013  0.7246155E+02  0.7816164E-02  0.1226708E+00
        -11   -1    0    0    0    0  0.00000000000E+00  0.00000000000E+00  0.45593999997E+02  0.45594000000E+02  0.51100000000E-03 0. -1.
         11   -1    0    0    0    0 -0.00000000000E+00 -0.00000000000E+00 -0.45593999997E+02  0.45594000000E+02  0.51100000000E-03 0.  1.
    9900012    2    1    2    0    0  0.10349136911E+01  0.10906259372E+02 -0.15187574193E+02  0.72461549464E+02  0.69999972864E+02 0.  0.
         12    1    1    2    0    0 -0.10349136911E+01 -0.10906259372E+02  0.15187574193E+02  0.18726450536E+02  0.00000000000E+00 0. -1.
         11    1    3    3    0    0 -0.12402349245E+02 -0.81257870404E+01  0.31309560545E+01  0.15154193079E+02  0.51100000000E-03 0. -1.
        -11    1    3    3    0    0  0.58331660423E+00 -0.15847250662E+02  0.18872940890E-01  0.15857993828E+02  0.51100000000E-03 0.  1.
        -12    1    3    3    0    0  0.12853946332E+02  0.34879297074E+02 -0.18337403188E+02  0.41449362556E+02  0.00000000000E+00 0.  1.
</event>
<event>
 7    1  0.2932741E-013  0.7246154E+02  0.7816164E-02  0.1226708E+00
        -11   -1    0    0    0    0  0.00000000000E+00  0.00000000000E+00  0.45593999997E+02  0.45594000000E+02  0.51100000000E-03 0.  1.
         11   -1    0    0    0    0 -0.00000000000E+00 -0.00000000000E+00 -0.45593999997E+02  0.45594000000E+02  0.51100000000E-03 0. -1.
    9900012    2    1    2    0    0 -0.11241500153E+02  0.12282923283E+02  0.85696450274E+01  0.72461538883E+02  0.69999959081E+02 0.  0.
         12    1    1    2    0    0  0.11241500153E+02 -0.12282923283E+02 -0.85696450274E+01  0.18726461117E+02  0.00000000000E+00 0. -1.
         11    1    3    3    0    0  0.46250891189E+01  0.17388881194E+02  0.10043725106E+02  0.20606820540E+02  0.51100000000E-03 0. -1.
        -11    1    3    3    0    0 -0.32062938937E+02 -0.97586578441E+01  0.48328069822E+01  0.33861770181E+02  0.51100000000E-03 0.  1.
         12    1    3    3    0    0  0.16196349665E+02  0.46526999335E+01 -0.63068870609E+01  0.17992948162E+02  0.00000000000E+00 0. -1.
</event>
<event>
 7    1  0.2932741E-013  0.7246154E+02  0.7816164E-02  0.1226708E+00
        -11   -1    0    0    0    0  0.00000000000E+00  0.00000000000E+00  0.45593999997E+02  0.45594000000E+02  0.51100000000E-03 0.  1.
         11   -1    0    0    0    0 -0.00000000000E+00 -0.00000000000E+00 -0.45593999997E+02  0.45594000000E+02  0.51100000000E-03 0. -1.
    9900012    2    1    2    0    0 -0.14089680650E+02  0.68432106372E+01  0.10263118367E+02  0.72461541945E+02  0.69999963070E+02 0.  0.
         12    1    1    2    0    0  0.14089680650E+02 -0.68432106372E+01 -0.10263118367E+02  0.18726458055E+02  0.00000000000E+00 0. -1.
         11    1    3    3    0    0 -0.10171955226E+01 -0.12992952984E+01 -0.87186858311E+01  0.88734625647E+01  0.51100000000E-03 0. -1.
        -11    1    3    3    0    0 -0.73067453577E+01 -0.25152263400E+02  0.13115434032E+02  0.29292311141E+02  0.51100000000E-03 0.  1.
        -12    1    3    3    0    0 -0.57657397697E+01  0.33294769336E+02  0.58663701665E+01  0.34295768240E+02  0.00000000000E+00 0.  1.
</event>
<event>
 7    1  0.2932741E-013  0.7246156E+02  0.7816164E-02  0.1226708E+00
        -11   -1    0    0    0    0  0.00000000000E+00  0.00000000000E+00  0.45593999997E+02  0.45594000000E+02  0.51100000000E-03 0.  1.
         11   -1    0    0    0    0 -0.00000000000E+00 -0.00000000000E+00 -0.45593999997E+02  0.45594000000E+02  0.51100000000E-03 0. -1.
    9900012    2    1    2    0    0 -0.18832295023E+01  0.18330683855E+02 -0.33345228790E+01  0.72461559687E+02  0.69999986182E+02 0.  0.
         12    1    1    2    0    0  0.18832295023E+01 -0.18330683855E+02  0.33345228790E+01  0.18726440313E+02  0.00000000000E+00 0. -1.
         11    1    3    3    0    0 -0.13210136613E+01  0.35766239405E+02  0.27482605053E+01  0.35895987162E+02  0.51100000000E-03 0. -1.
        -11    1    3    3    0    0 -0.65997163850E+01  0.23128471509E+01  0.87050307775E+01  0.11166157773E+02  0.51100000000E-03 0.  1.
         12    1    3    3    0    0  0.60375005440E+01 -0.19748402701E+02 -0.14787814162E+02  0.25399414752E+02  0.00000000000E+00 0. -1.
</event>
<event>
 7    1  0.2932741E-013  0.7246144E+02  0.7816164E-02  0.1226708E+00
        -11   -1    0    0    0    0  0.00000000000E+00  0.00000000000E+00  0.45593999997E+02  0.45594000000E+02  0.51100000000E-03 0.  1.
         11   -1    0    0    0    0 -0.00000000000E+00 -0.00000000000E+00 -0.45593999997E+02  0.45594000000E+02  0.51100000000E-03 0. -1.
    9900012    2    1    2    0    0 -0.12979453133E+02  0.52609880839E+01  0.12431410545E+02  0.72461436851E+02  0.69999826165E+02 0.  0.
         12    1    1    2    0    0  0.12979453133E+02 -0.52609880839E+01 -0.12431410545E+02  0.18726563149E+02  0.00000000000E+00 0. -1.
         11    1    3    3    0    0 -0.78433723760E+01  0.63885162876E+01 -0.57310531095E+01  0.11626547234E+02  0.51100000000E-03 0. -1.
        -11    1    3    3    0    0  0.13215802459E+02  0.23693753333E+02  0.98909255110E+01  0.28877011434E+02  0.51100000000E-03 0.  1.
         12    1    3    3    0    0 -0.18351883215E+02 -0.24821281536E+02  0.82715381440E+01  0.31957878183E+02  0.00000000000E+00 0. -1.
</event>
<event>
 7    1  0.2932741E-013  0.7246160E+02  0.7816164E-02  0.1226708E+00
        -11   -1    0    0    0    0  0.00000000000E+00  0.00000000000E+00  0.45593999997E+02  0.45594000000E+02  0.51100000000E-03 0.  1.
         11   -1    0    0    0    0 -0.00000000000E+00 -0.00000000000E+00 -0.45593999997E+02  0.45594000000E+02  0.51100000000E-03 0. -1.
    9900012    2    1    2    0    0 -0.13320003838E+02 -0.12686168285E+02 -0.35095269780E+01  0.72461597580E+02  0.70000035544E+02 0.  0.
         12    1    1    2    0    0  0.13320003838E+02  0.12686168285E+02  0.35095269780E+01  0.18726402420E+02  0.00000000000E+00 0. -1.
         11    1    3    3    0    0 -0.10135986524E+02  0.19219723690E+01 -0.19794424750E+02  0.22321546811E+02  0.51100000000E-03 0. -1.
        -11    1    3    3    0    0 -0.43582108689E+01 -0.20430715965E+02 -0.10022657777E+02  0.23170278936E+02  0.51100000000E-03 0.  1.
        -12    1    3    3    0    0  0.11741935552E+01  0.58225753103E+01  0.26307555548E+02  0.26969771832E+02  0.00000000000E+00 0.  1.
</event>
<event>
 7    1  0.2932741E-013  0.7246157E+02  0.7816164E-02  0.1226708E+00
        -11   -1    0    0    0    0  0.00000000000E+00  0.00000000000E+00  0.45593999997E+02  0.45594000000E+02  0.51100000000E-03 0.  1.
         11   -1    0    0    0    0 -0.00000000000E+00 -0.00000000000E+00 -0.45593999997E+02  0.45594000000E+02  0.51100000000E-03 0. -1.
    9900012    2    1    2    0    0  0.11736294494E+02 -0.53521676093E+01  0.13575448163E+02  0.72461572167E+02  0.70000002439E+02 0.  0.
         12    1    1    2    0    0 -0.11736294494E+02  0.53521676093E+01 -0.13575448163E+02  0.18726427833E+02  0.00000000000E+00 0. -1.
         11    1    3    3    0    0  0.12390383901E+02  0.56234588755E+01 -0.70547821871E+00  0.13625072577E+02  0.51100000000E-03 0. -1.
        -11    1    3    3    0    0 -0.12917042597E+02  0.47493476180E+01  0.30286214320E+02  0.33266515753E+02  0.51100000000E-03 0.  1.
         12    1    3    3    0    0  0.12262953190E+02 -0.15724974103E+02 -0.16005287938E+02  0.25569983837E+02  0.00000000000E+00 0. -1.
</event>
<event>
 7    1  0.2932741E-013  0.7246080E+02  0.7816164E-02  0.1226710E+00
        -11   -1    0    0    0    0  0.00000000000E+00  0.00000000000E+00  0.45593999997E+02  0.45594000000E+02  0.51100000000E-03 0. -1.
         11   -1    0    0    0    0 -0.00000000000E+00 -0.00000000000E+00 -0.45593999997E+02  0.45594000000E+02  0.51100000000E-03 0.  1.
    9900012    2    1    2    0    0  0.46258673921E+01  0.94560992656E+01 -0.15488430045E+02  0.72460802460E+02  0.69998999746E+02 0.  0.
         12    1    1    2    0    0 -0.46258673921E+01 -0.94560992656E+01  0.15488430045E+02  0.18727197540E+02  0.00000000000E+00 0. -1.
         11    1    3    3    0    0 -0.22776468322E+02  0.27081170378E+02 -0.50815021578E+01  0.35748831627E+02  0.51100000000E-03 0. -1.
        -11    1    3    3    0    0  0.38250868225E+01 -0.19266366409E+01  0.31430709448E+01  0.53124488864E+01  0.51100000000E-03 0.  1.
        -12    1    3    3    0    0  0.23577248891E+02 -0.15698434471E+02 -0.13549998832E+02  0.31399521947E+02  0.00000000000E+00 0.  1.
</event>
<event>
 7    1  0.2932741E-013  0.7246116E+02  0.7816164E-02  0.1226709E+00
        -11   -1    0    0    0    0  0.00000000000E+00  0.00000000000E+00  0.45593999997E+02  0.45594000000E+02  0.51100000000E-03 0.  1.
         11   -1    0    0    0    0 -0.00000000000E+00 -0.00000000000E+00 -0.45593999997E+02  0.45594000000E+02  0.51100000000E-03 0. -1.
    9900012    2    1    2    0    0  0.14177206529E+02 -0.11551184339E+02  0.40338064483E+01  0.72461157259E+02  0.69999461942E+02 0.  0.
         12    1    1    2    0    0 -0.14177206529E+02  0.11551184339E+02 -0.40338064483E+01  0.18726842741E+02  0.00000000000E+00 0. -1.
         11    1    3    3    0    0 -0.72814032958E+01  0.21139216874E+02  0.21218775644E+01  0.22458577174E+02  0.51100000000E-03 0. -1.
        -11    1    3    3    0    0  0.17182538437E+02 -0.87671546735E+00  0.45447176714E+01  0.17795019419E+02  0.51100000000E-03 0.  1.
         12    1    3    3    0    0  0.42760713878E+01 -0.31813685746E+02 -0.26327887874E+01  0.32207560666E+02  0.00000000000E+00 0. -1.
</event>
<event>
 7    1  0.2932741E-013  0.7246159E+02  0.7816164E-02  0.1226708E+00
        -11   -1    0    0    0    0  0.00000000000E+00  0.00000000000E+00  0.45593999997E+02  0.45594000000E+02  0.51100000000E-03 0. -1.
         11   -1    0    0    0    0 -0.00000000000E+00 -0.00000000000E+00 -0.45593999997E+02  0.45594000000E+02  0.51100000000E-03 0.  1.
    9900012    2    1    2    0    0 -0.18494963916E+02  0.25264130230E+01 -0.14940221423E+01  0.72461586698E+02  0.70000021368E+02 0.  0.
         12    1    1    2    0    0  0.18494963916E+02 -0.25264130230E+01  0.14940221423E+01  0.18726413302E+02  0.00000000000E+00 0. -1.
         11    1    3    3    0    0  0.13373201122E+01  0.34938795545E+01  0.25187486669E+01  0.45099572650E+01  0.51100000000E-03 0. -1.
        -11    1    3    3    0    0 -0.36107298397E+02  0.69636543132E+01 -0.21652921468E+02  0.42674096210E+02  0.51100000000E-03 0.  1.
         12    1    3    3    0    0  0.16275014369E+02 -0.79311208447E+01  0.17640150659E+02  0.25277533223E+02  0.00000000000E+00 0. -1.
</event>
<event>
 7    1  0.2932741E-013  0.7246175E+02  0.7816164E-02  0.1226708E+00
        -11   -1    0    0    0    0  0.00000000000E+00  0.00000000000E+00  0.45593999997E+02  0.45594000000E+02  0.51100000000E-03 0.  1.
         11   -1    0    0    0    0 -0.00000000000E+00 -0.00000000000E+00 -0.45593999997E+02  0.45594000000E+02  0.51100000000E-03 0. -1.
    9900012    2    1    2    0    0  0.14263367086E+01 -0.66107038307E+01  0.17462436686E+02  0.72461747396E+02  0.70000230708E+02 0.  0.
         12    1    1    2    0    0 -0.14263367086E+01  0.66107038307E+01 -0.17462436686E+02  0.18726252604E+02  0.00000000000E+00 0. -1.
         11    1    3    3    0    0 -0.50313994565E+01  0.10166260685E+01  0.32440237163E+02  0.32843834985E+02  0.51100000000E-03 0. -1.
        -11    1    3    3    0    0  0.75222053879E+01  0.67306619973E+01  0.77416074206E+01  0.12720765328E+02  0.51100000000E-03 0.  1.
         12    1    3    3    0    0 -0.10644692228E+01 -0.14357991897E+02 -0.22719407897E+02  0.26897147083E+02  0.00000000000E+00 0. -1.
</event>
<event>
 7    1  0.2932741E-013  0.7246158E+02  0.7816164E-02  0.1226708E+00
        -11   -1    0    0    0    0  0.00000000000E+00  0.00000000000E+00  0.45593999997E+02  0.45594000000E+02  0.51100000000E-03 0. -1.
         11   -1    0    0    0    0 -0.00000000000E+00 -0.00000000000E+00 -0.45593999997E+02  0.45594000000E+02  0.51100000000E-03 0.  1.
    9900012    2    1    2    0    0 -0.14928389465E+02  0.11245584795E+02  0.11657003385E+01  0.72461578914E+02  0.70000011228E+02 0.  0.
         12    1    1    2    0    0  0.14928389465E+02 -0.11245584795E+02 -0.11657003385E+01  0.18726421086E+02  0.00000000000E+00 0. -1.
         11    1    3    3    0    0  0.18482821837E+02  0.22458550225E+02 -0.61912135703E+01  0.29737725316E+02  0.51100000000E-03 0. -1.
        -11    1    3    3    0    0 -0.19531934853E+01 -0.57505930757E+01 -0.56049768681E+01  0.82643845183E+01  0.51100000000E-03 0.  1.
        -12    1    3    3    0    0 -0.31458017817E+02 -0.54623723542E+01  0.12961890777E+02  0.34459469079E+02  0.00000000000E+00 0.  1.
</event>
<event>
 7    1  0.2932741E-013  0.7246121E+02  0.7816164E-02  0.1226709E+00
        -11   -1    0    0    0    0  0.00000000000E+00  0.00000000000E+00  0.45593999997E+02  0.45594000000E+02  0.51100000000E-03 0. -1.
         11   -1    0    0    0    0 -0.00000000000E+00 -0.00000000000E+00 -0.45593999997E+02  0.45594000000E+02  0.51100000000E-03 0.  1.
    9900012    2    1    2    0    0  0.77394945305E+01  0.77252120431E+01 -0.15202430487E+02  0.72461212518E+02  0.69999533928E+02 0.  0.
         12    1    1    2    0    0 -0.77394945305E+01 -0.77252120431E+01  0.15202430487E+02  0.18726787482E+02  0.00000000000E+00 0. -1.
         11    1    3    3    0    0 -0.99058910022E+01  0.12655448091E+02 -0.10238806041E+02  0.19055712853E+02  0.51100000000E-03 0. -1.
        -11    1    3    3    0    0 -0.97523966790E+01 -0.13322665397E+02 -0.15721339106E+02  0.22798314802E+02  0.51100000000E-03 0.  1.
         12    1    3    3    0    0  0.27397782212E+02  0.83924293495E+01  0.10757714660E+02  0.30607184863E+02  0.00000000000E+00 0. -1.
</event>
<event>
 7    1  0.2932741E-013  0.7246155E+02  0.7816164E-02  0.1226708E+00
        -11   -1    0    0    0    0  0.00000000000E+00  0.00000000000E+00  0.45593999997E+02  0.45594000000E+02  0.51100000000E-03 0.  1.
         11   -1    0    0    0    0 -0.00000000000E+00 -0.00000000000E+00 -0.45593999997E+02  0.45594000000E+02  0.51100000000E-03 0. -1.
    9900012    2    1    2    0    0  0.10822515409E+00 -0.16213415536E+02  0.93698106755E+01  0.72461550574E+02  0.69999974310E+02 0.  0.
         12    1    1    2    0    0 -0.10822515409E+00  0.16213415536E+02 -0.93698106755E+01  0.18726449426E+02  0.00000000000E+00 0. -1.
         11    1    3    3    0    0  0.66694497345E+01 -0.22244491828E+01 -0.23259556132E+02  0.24298902972E+02  0.51100000000E-03 0. -1.
        -11    1    3    3    0    0 -0.14785322947E+01 -0.17384335635E+02  0.27476021488E+01  0.17662120514E+02  0.51100000000E-03 0.  1.
        -12    1    3    3    0    0 -0.50826922857E+01  0.33953692823E+01  0.29881764659E+02  0.30500527087E+02  0.00000000000E+00 0.  1.
</event>
<event>
 7    1  0.2932741E-013  0.7246157E+02  0.7816164E-02  0.1226708E+00
        -11   -1    0    0    0    0  0.00000000000E+00  0.00000000000E+00  0.45593999997E+02  0.45594000000E+02  0.51100000000E-03 0. -1.
         11   -1    0    0    0    0 -0.00000000000E+00 -0.00000000000E+00 -0.45593999997E+02  0.45594000000E+02  0.51100000000E-03 0.  1.
    9900012    2    1    2    0    0 -0.95390028650E+01 -0.21170955097E+01 -0.15975116305E+02  0.72461574553E+02  0.70000005548E+02 0.  0.
         12    1    1    2    0    0  0.95390028650E+01  0.21170955097E+01  0.15975116305E+02  0.18726425447E+02  0.00000000000E+00 0. -1.
         11    1    3    3    0    0  0.13105589826E+01 -0.86128083406E+01 -0.17129936713E+02  0.19218032272E+02  0.51100000000E-03 0. -1.
        -11    1    3    3    0    0  0.13242585026E+00 -0.22068505055E+02 -0.33141580253E+01  0.22316363854E+02  0.51100000000E-03 0.  1.
         12    1    3    3    0    0 -0.10981987698E+02  0.28564217886E+02  0.44689784336E+01  0.30927178427E+02  0.00000000000E+00 0. -1.
</event>
<event>
 7    1  0.2932741E-013  0.7246154E+02  0.7816164E-02  0.1226708E+00
        -11   -1    0    0    0    0  0.00000000000E+00  0.00000000000E+00  0.45593999997E+02  0.45594000000E+02  0.51100000000E-03 0.  1.
         11   -1    0    0    0    0 -0.00000000000E+00 -0.00000000000E+00 -0.45593999997E+02  0.45594000000E+02  0.51100000000E-03 0. -1.
    9900012    2    1    2    0    0  0.11704627851E+02  0.90272856184E+01  0.11497387897E+02  0.72461544723E+02  0.69999966689E+02 0.  0.
         12    1    1    2    0    0 -0.11704627851E+02 -0.90272856184E+01 -0.11497387897E+02  0.18726455277E+02  0.00000000000E+00 0. -1.
         11    1    3    3    0    0  0.13815588874E+02  0.10632005022E+02  0.22507133951E+02  0.28468949852E+02  0.51100000000E-03 0. -1.
        -11    1    3    3    0    0 -0.68897127612E+01 -0.85419237235E+01  0.13892536385E+02  0.17704100381E+02  0.51100000000E-03 0.  1.
         12    1    3    3    0    0  0.47787517384E+01  0.69372043197E+01 -0.24902282438E+02  0.26288494491E+02  0.00000000000E+00 0. -1.
</event>
<event>
 7    1  0.2932741E-013  0.7246157E+02  0.7816164E-02  0.1226708E+00
        -11   -1    0    0    0    0  0.00000000000E+00  0.00000000000E+00  0.45593999997E+02  0.45594000000E+02  0.51100000000E-03 0. -1.
         11   -1    0    0    0    0 -0.00000000000E+00 -0.00000000000E+00 -0.45593999997E+02  0.45594000000E+02  0.51100000000E-03 0.  1.
    9900012    2    1    2    0    0 -0.13516400212E+02 -0.52397328232E+01 -0.11854588902E+02  0.72461570741E+02  0.70000000582E+02 0.  0.
         12    1    1    2    0    0  0.13516400212E+02  0.52397328232E+01  0.11854588902E+02  0.18726429259E+02  0.00000000000E+00 0. -1.
         11    1    3    3    0    0  0.93397621575E+01  0.17300510358E+02 -0.10019551334E+02  0.22066495530E+02  0.51100000000E-03 0. -1.
        -11    1    3    3    0    0 -0.21054270438E+02 -0.16418055470E+02  0.16223809018E+02  0.31241748165E+02  0.51100000000E-03 0.  1.
        -12    1    3    3    0    0 -0.18018919307E+01 -0.61221877109E+01 -0.18058846586E+02  0.19153327046E+02  0.00000000000E+00 0.  1.
</event>
<event>
 7    1  0.2932741E-013  0.7246143E+02  0.7816164E-02  0.1226708E+00
        -11   -1    0    0    0    0  0.00000000000E+00  0.00000000000E+00  0.45593999997E+02  0.45594000000E+02  0.51100000000E-03 0. -1.
         11   -1    0    0    0    0 -0.00000000000E+00 -0.00000000000E+00 -0.45593999997E+02  0.45594000000E+02  0.51100000000E-03 0.  1.
    9900012    2    1    2    0    0  0.16712300863E+02 -0.83787443870E+01 -0.10862648200E+01  0.72461432538E+02  0.69999820547E+02 0.  0.
         12    1    1    2    0    0 -0.16712300863E+02  0.83787443870E+01  0.10862648200E+01  0.18726567462E+02  0.00000000000E+00 0. -1.
         11    1    3    3    0    0  0.29651010672E+02  0.11772649331E+02  0.10504119503E+02  0.33587411822E+02  0.51100000000E-03 0. -1.
        -11    1    3    3    0    0  0.12460238729E+01 -0.22429856891E+02 -0.93554679056E+01  0.24334663253E+02  0.51100000000E-03 0.  1.
        -12    1    3    3    0    0 -0.14184733681E+02  0.22784631729E+01 -0.22349164172E+01  0.14539357463E+02  0.00000000000E+00 0.  1.
</event>
<event>
 7    1  0.2932741E-013  0.7246159E+02  0.7816164E-02  0.1226708E+00
        -11   -1    0    0    0    0  0.00000000000E+00  0.00000000000E+00  0.45593999997E+02  0.45594000000E+02  0.51100000000E-03 0.  1.
         11   -1    0    0    0    0 -0.00000000000E+00 -0.00000000000E+00 -0.45593999997E+02  0.45594000000E+02  0.51100000000E-03 0. -1.
    9900012    2    1    2    0    0 -0.17639543134E+02 -0.28985836370E+01  0.55788285210E+01  0.72461585588E+02  0.70000019922E+02 0.  0.
         12    1    1    2    0    0  0.17639543134E+02  0.28985836370E+01 -0.55788285210E+01  0.18726414412E+02  0.00000000000E+00 0. -1.
         11    1    3    3    0    0 -0.13937322133E+01  0.14438916957E+02  0.11394355357E+02  0.18446033358E+02  0.51100000000E-03 0. -1.
        -11    1    3    3    0    0  0.52301480054E+01  0.60726599378E+01  0.14315014657E+02  0.16405831029E+02  0.51100000000E-03 0.  1.
        -12    1    3    3    0    0 -0.21475958926E+02 -0.23410160532E+02 -0.20130541493E+02  0.37609721200E+02  0.00000000000E+00 0.  1.
</event>
<event>
 7    1  0.2932741E-013  0.7246164E+02  0.7816164E-02  0.1226708E+00
        -11   -1    0    0    0    0  0.00000000000E+00  0.00000000000E+00  0.45593999997E+02  0.45594000000E+02  0.51100000000E-03 0.  1.
         11   -1    0    0    0    0 -0.00000000000E+00 -0.00000000000E+00 -0.45593999997E+02  0.45594000000E+02  0.51100000000E-03 0. -1.
    9900012    2    1    2    0    0 -0.35110549001E+01  0.15258402584E+02  0.10272797222E+02  0.72461635732E+02  0.70000085244E+02 0.  0.
         12    1    1    2    0    0  0.35110549001E+01 -0.15258402584E+02 -0.10272797222E+02  0.18726364268E+02  0.00000000000E+00 0. -1.
         11    1    3    3    0    0  0.80502399459E+00 -0.10657866251E+02  0.15371728500E+02  0.18722398724E+02  0.51100000000E-03 0. -1.
        -11    1    3    3    0    0  0.53612883834E+01 -0.83401488483E+01  0.10880308558E+02  0.14720143020E+02  0.51100000000E-03 0.  1.
        -12    1    3    3    0    0 -0.96773672781E+01  0.34256417683E+02 -0.15979239836E+02  0.39019093988E+02  0.00000000000E+00 0.  1.
</event>
<event>
 7    1  0.2932741E-013  0.7246160E+02  0.7816164E-02  0.1226708E+00
        -11   -1    0    0    0    0  0.00000000000E+00  0.00000000000E+00  0.45593999997E+02  0.45594000000E+02  0.51100000000E-03 0.  1.
         11   -1    0    0    0    0 -0.00000000000E+00 -0.00000000000E+00 -0.45593999997E+02  0.45594000000E+02  0.51100000000E-03 0. -1.
    9900012    2    1    2    0    0  0.17824146606E+02  0.16558248073E+01  0.54987498437E+01  0.72461595971E+02  0.70000033448E+02 0.  0.
         12    1    1    2    0    0 -0.17824146606E+02 -0.16558248073E+01 -0.54987498437E+01  0.18726404029E+02  0.00000000000E+00 0. -1.
         11    1    3    3    0    0 -0.73537752559E+01 -0.16282644110E+02 -0.53337805800E+01  0.18645421027E+02  0.51100000000E-03 0. -1.
        -11    1    3    3    0    0  0.13045439141E+02 -0.12493069245E+02 -0.28991531826E+01  0.18293861019E+02  0.51100000000E-03 0.  1.
        -12    1    3    3    0    0  0.12132482721E+02  0.30431538162E+02  0.13731683606E+02  0.35522313925E+02  0.00000000000E+00 0.  1.
</event>
<event>
 7    1  0.2932741E-013  0.7246139E+02  0.7816164E-02  0.1226708E+00
        -11   -1    0    0    0    0  0.00000000000E+00  0.00000000000E+00  0.45593999997E+02  0.45594000000E+02  0.51100000000E-03 0.  1.
         11   -1    0    0    0    0 -0.00000000000E+00 -0.00000000000E+00 -0.45593999997E+02  0.45594000000E+02  0.51100000000E-03 0. -1.
    9900012    2    1    2    0    0 -0.12587236225E+02  0.45133408832E+01  0.13110195190E+02  0.72461388463E+02  0.69999763131E+02 0.  0.
         12    1    1    2    0    0  0.12587236225E+02 -0.45133408832E+01 -0.13110195190E+02  0.18726611537E+02  0.00000000000E+00 0. -1.
         11    1    3    3    0    0 -0.30135233925E+01  0.31209459451E+01 -0.40193230261E+01  0.59141004962E+01  0.51100000000E-03 0. -1.
        -11    1    3    3    0    0 -0.35376248766E+02  0.10231930604E+02  0.12451754902E+02  0.38874382066E+02  0.51100000000E-03 0.  1.
         12    1    3    3    0    0  0.25802535933E+02 -0.88395356663E+01  0.46777633142E+01  0.27672905901E+02  0.00000000000E+00 0. -1.
</event>
<event>
 7    1  0.2932741E-013  0.7246151E+02  0.7816164E-02  0.1226708E+00
        -11   -1    0    0    0    0  0.00000000000E+00  0.00000000000E+00  0.45593999997E+02  0.45594000000E+02  0.51100000000E-03 0. -1.
         11   -1    0    0    0    0 -0.00000000000E+00 -0.00000000000E+00 -0.45593999997E+02  0.45594000000E+02  0.51100000000E-03 0.  1.
    9900012    2    1    2    0    0 -0.88876919526E+01  0.39648560698E+01 -0.15999067119E+02  0.72461513394E+02  0.69999925877E+02 0.  0.
         12    1    1    2    0    0  0.88876919526E+01 -0.39648560698E+01  0.15999067119E+02  0.18726486606E+02  0.00000000000E+00 0. -1.
         11    1    3    3    0    0  0.12487246314E+02  0.34831925733E+01  0.16024544940E+02  0.20611889574E+02  0.51100000000E-03 0. -1.
        -11    1    3    3    0    0 -0.17888831564E+01  0.14600015129E+02 -0.48244223262E+01  0.15480167821E+02  0.51100000000E-03 0.  1.
         12    1    3    3    0    0 -0.19586055110E+02 -0.14118351632E+02 -0.27199189734E+02  0.36369456000E+02  0.00000000000E+00 0. -1.
</event>
<event>
 7    1  0.2932741E-013  0.7246151E+02  0.7816164E-02  0.1226708E+00
        -11   -1    0    0    0    0  0.00000000000E+00  0.00000000000E+00  0.45593999997E+02  0.45594000000E+02  0.51100000000E-03 0.  1.
         11   -1    0    0    0    0 -0.00000000000E+00 -0.00000000000E+00 -0.45593999997E+02  0.45594000000E+02  0.51100000000E-03 0. -1.
    9900012    2    1    2    0    0 -0.76772942755E+01  0.62746722033E+01  0.15886122710E+02  0.72461514655E+02  0.69999927519E+02 0.  0.
         12    1    1    2    0    0  0.76772942755E+01 -0.62746722033E+01 -0.15886122710E+02  0.18726485345E+02  0.00000000000E+00 0. -1.
         11    1    3    3    0    0 -0.10809774021E+02  0.18391462884E+01  0.14078515280E+02  0.17844838643E+02  0.51100000000E-03 0. -1.
        -11    1    3    3    0    0 -0.13710465639E+02 -0.17100529910E+02  0.12532521874E+02  0.25248150349E+02  0.51100000000E-03 0.  1.
         12    1    3    3    0    0  0.16842945384E+02  0.21536055825E+02 -0.10724914445E+02  0.29368525662E+02  0.00000000000E+00 0. -1.
</event>
<event>
 7    1  0.2932741E-013  0.7246153E+02  0.7816164E-02  0.1226708E+00
        -11   -1    0    0    0    0  0.00000000000E+00  0.00000000000E+00  0.45593999997E+02  0.45594000000E+02  0.51100000000E-03 0. -1.
         11   -1    0    0    0    0 -0.00000000000E+00 -0.00000000000E+00 -0.45593999997E+02  0.45594000000E+02  0.51100000000E-03 0.  1.
    9900012    2    1    2    0    0  0.16026018687E+02 -0.76773320150E+01  0.59081126668E+01  0.72461534847E+02  0.69999953824E+02 0.  0.
         12    1    1    2    0    0 -0.16026018687E+02  0.76773320150E+01 -0.59081126668E+01  0.18726465153E+02  0.00000000000E+00 0. -1.
         11    1    3    3    0    0 -0.51576631158E+01 -0.12696206322E+01  0.13674150945E+02  0.14669554516E+02  0.51100000000E-03 0.  1.
        -11    1    3    3    0    0 -0.17670729821E+02 -0.39678812962E+01 -0.87078123357E-01  0.18110945786E+02  0.51100000000E-03 0. -1.
        -12    1    3    3    0    0  0.38854411624E+02 -0.24398300866E+01 -0.76789601549E+01  0.39681034545E+02  0.00000000000E+00 0.  1.
</event>
<event>
 7    1  0.2932741E-013  0.7246147E+02  0.7816164E-02  0.1226708E+00
        -11   -1    0    0    0    0  0.00000000000E+00  0.00000000000E+00  0.45593999997E+02  0.45594000000E+02  0.51100000000E-03 0.  1.
         11   -1    0    0    0    0 -0.00000000000E+00 -0.00000000000E+00 -0.45593999997E+02  0.45594000000E+02  0.51100000000E-03 0. -1.
    9900012    2    1    2    0    0 -0.85041883096E+01  0.12120077713E+02  0.11465844390E+02  0.72461465613E+02  0.69999863633E+02 0.  0.
         12    1    1    2    0    0  0.85041883096E+01 -0.12120077713E+02 -0.11465844390E+02  0.18726534387E+02  0.00000000000E+00 0. -1.
         11    1    3    3    0    0 -0.11240255859E+02 -0.13679906620E+02  0.14885748315E+02  0.23131552046E+02  0.51100000000E-03 0. -1.
        -11    1    3    3    0    0  0.51839400862E+01  0.97782845511E+00  0.16554759388E+02  0.17374965956E+02  0.51100000000E-03 0.  1.
         12    1    3    3    0    0 -0.24478725367E+01  0.24822155877E+02 -0.19974663314E+02  0.31954947611E+02  0.00000000000E+00 0. -1.
</event>
<event>
 7    1  0.2932741E-013  0.7246150E+02  0.7816164E-02  0.1226708E+00
        -11   -1    0    0    0    0  0.00000000000E+00  0.00000000000E+00  0.45593999997E+02  0.45594000000E+02  0.51100000000E-03 0. -1.
         11   -1    0    0    0    0 -0.00000000000E+00 -0.00000000000E+00 -0.45593999997E+02  0.45594000000E+02  0.51100000000E-03 0.  1.
    9900012    2    1    2    0    0  0.19210537062E+01 -0.95733541964E+01 -0.15979430096E+02  0.72461501553E+02  0.69999910451E+02 0.  0.
         12    1    1    2    0    0 -0.19210537062E+01  0.95733541964E+01  0.15979430096E+02  0.18726498447E+02  0.00000000000E+00 0. -1.
         11    1    3    3    0    0  0.10858005104E+02  0.90551060364E+01  0.10926807147E+02  0.17868585139E+02  0.51100000000E-03 0. -1.
        -11    1    3    3    0    0  0.12455226136E+02 -0.21833392329E+02 -0.96607383281E+01  0.26928786531E+02  0.51100000000E-03 0.  1.
        -12    1    3    3    0    0 -0.21392177534E+02  0.32049320965E+01 -0.17245498915E+02  0.27664129883E+02  0.00000000000E+00 0.  1.
</event>
<event>
 7    1  0.2932741E-013  0.7246148E+02  0.7816164E-02  0.1226708E+00
        -11   -1    0    0    0    0  0.00000000000E+00  0.00000000000E+00  0.45593999997E+02  0.45594000000E+02  0.51100000000E-03 0.  1.
         11   -1    0    0    0    0 -0.00000000000E+00 -0.00000000000E+00 -0.45593999997E+02  0.45594000000E+02  0.51100000000E-03 0. -1.
    9900012    2    1    2    0    0  0.41136147571E+00  0.16776912453E+02  0.83095463837E+01  0.72461479479E+02  0.69999881696E+02 0.  0.
         12    1    1    2    0    0 -0.41136147571E+00 -0.16776912453E+02 -0.83095463837E+01  0.18726520521E+02  0.00000000000E+00 0. -1.
         11    1    3    3    0    0 -0.13656703633E+02 -0.26184444388E+01  0.16650356273E+02  0.21693228660E+02  0.51100000000E-03 0. -1.
        -11    1    3    3    0    0  0.42547490794E+01 -0.77999551366E+01  0.12351125608E+02  0.15214877387E+02  0.51100000000E-03 0.  1.
        -12    1    3    3    0    0  0.98133160296E+01  0.27195312028E+02 -0.20691935497E+02  0.35553373432E+02  0.00000000000E+00 0.  1.
</event>
<event>
 7    1  0.2932741E-013  0.7246147E+02  0.7816164E-02  0.1226708E+00
        -11   -1    0    0    0    0  0.00000000000E+00  0.00000000000E+00  0.45593999997E+02  0.45594000000E+02  0.51100000000E-03 0. -1.
         11   -1    0    0    0    0 -0.00000000000E+00 -0.00000000000E+00 -0.45593999997E+02  0.45594000000E+02  0.51100000000E-03 0.  1.
    9900012    2    1    2    0    0 -0.49245510282E+01 -0.17675843426E+02 -0.37411571977E+01  0.72461470668E+02  0.69999870218E+02 0.  0.
         12    1    1    2    0    0  0.49245510282E+01  0.17675843426E+02  0.37411571977E+01  0.18726529332E+02  0.00000000000E+00 0. -1.
         11    1    3    3    0    0  0.67286866908E+01  0.30643588921E+01 -0.94034492811E+01  0.11962039067E+02  0.51100000000E-03 0. -1.
        -11    1    3    3    0    0  0.15120932585E+02 -0.19667723160E+02 -0.12842147355E+02  0.27935330417E+02  0.51100000000E-03 0.  1.
         12    1    3    3    0    0 -0.26774170304E+02 -0.10724791582E+01  0.18504439438E+02  0.32564101184E+02  0.00000000000E+00 0. -1.
</event>
<event>
 7    1  0.2932741E-013  0.7246156E+02  0.7816164E-02  0.1226708E+00
        -11   -1    0    0    0    0  0.00000000000E+00  0.00000000000E+00  0.45593999997E+02  0.45594000000E+02  0.51100000000E-03 0.  1.
         11   -1    0    0    0    0 -0.00000000000E+00 -0.00000000000E+00 -0.45593999997E+02  0.45594000000E+02  0.51100000000E-03 0. -1.
    9900012    2    1    2    0    0  0.52922529073E+01  0.17958433478E+02 -0.40765071243E+00  0.72461562727E+02  0.69999990142E+02 0.  0.
         12    1    1    2    0    0 -0.52922529073E+01 -0.17958433478E+02  0.40765071243E+00  0.18726437273E+02  0.00000000000E+00 0. -1.
         11    1    3    3    0    0 -0.59056914695E+01  0.14455723194E+02 -0.82331514681E+01  0.17653042461E+02  0.51100000000E-03 0. -1.
        -11    1    3    3    0    0 -0.12713757945E+02 -0.17886468926E+02  0.56077529441E+01  0.22649774945E+02  0.51100000000E-03 0.  1.
         12    1    3    3    0    0  0.23911702322E+02  0.21389179210E+02  0.22177478115E+01  0.32158745320E+02  0.00000000000E+00 0. -1.
</event>
<event>
 7    1  0.2932741E-013  0.7246125E+02  0.7816164E-02  0.1226709E+00
        -11   -1    0    0    0    0  0.00000000000E+00  0.00000000000E+00  0.45593999997E+02  0.45594000000E+02  0.51100000000E-03 0. -1.
         11   -1    0    0    0    0 -0.00000000000E+00 -0.00000000000E+00 -0.45593999997E+02  0.45594000000E+02  0.51100000000E-03 0.  1.
    9900012    2    1    2    0    0  0.91769282585E+01  0.68979502552E+01 -0.14795045192E+02  0.72461251958E+02  0.69999585307E+02 0.  0.
         12    1    1    2    0    0 -0.91769282585E+01 -0.68979502552E+01  0.14795045192E+02  0.18726748042E+02  0.00000000000E+00 0. -1.
         11    1    3    3    0    0  0.20480710149E+01 -0.16149457796E+02  0.13479559758E+02  0.21135233936E+02  0.51100000000E-03 0. -1.
        -11    1    3    3    0    0  0.21096777275E+02  0.13452586738E+02 -0.11697487773E+02  0.27620233920E+02  0.51100000000E-03 0.  1.
        -12    1    3    3    0    0 -0.13967920031E+02  0.95948213129E+01 -0.16577117177E+02  0.23705784103E+02  0.00000000000E+00 0.  1.
</event>
<event>
 7    1  0.2932741E-013  0.7246117E+02  0.7816164E-02  0.1226709E+00
        -11   -1    0    0    0    0  0.00000000000E+00  0.00000000000E+00  0.45593999997E+02  0.45594000000E+02  0.51100000000E-03 0. -1.
         11   -1    0    0    0    0 -0.00000000000E+00 -0.00000000000E+00 -0.45593999997E+02  0.45594000000E+02  0.51100000000E-03 0.  1.
    9900012    2    1    2    0    0 -0.91902696211E+01 -0.99747956330E+01  0.12912645879E+02  0.72461173594E+02  0.69999483223E+02 0.  0.
         12    1    1    2    0    0  0.91902696211E+01  0.99747956330E+01 -0.12912645879E+02  0.18726826406E+02  0.00000000000E+00 0. -1.
         11    1    3    3    0    0 -0.47455307508E+01  0.20512502002E+02  0.22382944078E+02  0.30729122772E+02  0.51100000000E-03 0. -1.
        -11    1    3    3    0    0  0.44233772733E+01 -0.91237838100E+01  0.78598609916E+01  0.12829150891E+02  0.51100000000E-03 0.  1.
        -12    1    3    3    0    0 -0.88681161436E+01 -0.21363513825E+02 -0.17330159190E+02  0.28902899931E+02  0.00000000000E+00 0.  1.
</event>
<event>
 7    1  0.2932741E-013  0.7246160E+02  0.7816164E-02  0.1226708E+00
        -11   -1    0    0    0    0  0.00000000000E+00  0.00000000000E+00  0.45593999997E+02  0.45594000000E+02  0.51100000000E-03 0. -1.
         11   -1    0    0    0    0 -0.00000000000E+00 -0.00000000000E+00 -0.45593999997E+02  0.45594000000E+02  0.51100000000E-03 0.  1.
    9900012    2    1    2    0    0  0.10563806190E+02  0.14646653329E+02  0.49557742059E+01  0.72461597437E+02  0.70000035359E+02 0.  0.
         12    1    1    2    0    0 -0.10563806190E+02 -0.14646653329E+02 -0.49557742059E+01  0.18726402563E+02  0.00000000000E+00 0. -1.
         11    1    3    3    0    0 -0.16196843667E+01  0.62194142533E+01 -0.72125637634E+01  0.96605158974E+01  0.51100000000E-03 0. -1.
        -11    1    3    3    0    0 -0.22552137326E+02  0.25794927733E+01 -0.55552111796E+01  0.23369061865E+02  0.51100000000E-03 0.  1.
         12    1    3    3    0    0  0.34735627882E+02  0.58477463026E+01  0.17723549149E+02  0.39432019675E+02  0.00000000000E+00 0. -1.
</event>
<event>
 7    1  0.2932741E-013  0.7246151E+02  0.7816164E-02  0.1226708E+00
        -11   -1    0    0    0    0  0.00000000000E+00  0.00000000000E+00  0.45593999997E+02  0.45594000000E+02  0.51100000000E-03 0. -1.
         11   -1    0    0    0    0 -0.00000000000E+00 -0.00000000000E+00 -0.45593999997E+02  0.45594000000E+02  0.51100000000E-03 0.  1.
    9900012    2    1    2    0    0  0.11467856318E+02  0.20923051029E+01 -0.14655785976E+02  0.72461507223E+02  0.69999917837E+02 0.  0.
         12    1    1    2    0    0 -0.11467856318E+02 -0.20923051029E+01  0.14655785976E+02  0.18726492777E+02  0.00000000000E+00 0. -1.
         11    1    3    3    0    0 -0.10470394964E+02 -0.16221317868E+00 -0.52925714275E+01  0.11733149466E+02  0.51100000000E-03 0. -1.
        -11    1    3    3    0    0  0.13936044179E+02 -0.98419445894E+01  0.21013104123E+02  0.27067097107E+02  0.51100000000E-03 0.  1.
         12    1    3    3    0    0  0.80022071029E+01  0.12096462871E+02 -0.30376318671E+02  0.33661260649E+02  0.00000000000E+00 0. -1.
</event>
<event>
 7    1  0.2932741E-013  0.7246162E+02  0.7816164E-02  0.1226708E+00
        -11   -1    0    0    0    0  0.00000000000E+00  0.00000000000E+00  0.45593999997E+02  0.45594000000E+02  0.51100000000E-03 0.  1.
         11   -1    0    0    0    0 -0.00000000000E+00 -0.00000000000E+00 -0.45593999997E+02  0.45594000000E+02  0.51100000000E-03 0. -1.
    9900012    2    1    2    0    0 -0.72717855468E+00 -0.20890407210E+01  0.18595275215E+02  0.72461624480E+02  0.70000070587E+02 0.  0.
         12    1    1    2    0    0  0.72717855468E+00  0.20890407210E+01 -0.18595275215E+02  0.18726375520E+02  0.00000000000E+00 0. -1.
         11    1    3    3    0    0  0.77274749029E+01 -0.20786899466E+02 -0.13119504879E+02  0.25766848203E+02  0.51100000000E-03 0. -1.
        -11    1    3    3    0    0 -0.94401905094E+01  0.27707974207E+00 -0.62363331909E+00  0.94648237603E+01  0.51100000000E-03 0.  1.
        -12    1    3    3    0    0  0.98553705178E+00  0.18420779003E+02  0.32338413413E+02  0.37229952517E+02  0.00000000000E+00 0.  1.
</event>
<event>
 7    1  0.2932741E-013  0.7246163E+02  0.7816164E-02  0.1226708E+00
        -11   -1    0    0    0    0  0.00000000000E+00  0.00000000000E+00  0.45593999997E+02  0.45594000000E+02  0.51100000000E-03 0.  1.
         11   -1    0    0    0    0 -0.00000000000E+00 -0.00000000000E+00 -0.45593999997E+02  0.45594000000E+02  0.51100000000E-03 0. -1.
    9900012    2    1    2    0    0  0.62522970370E+01  0.30919412189E+01  0.17378887054E+02  0.72461627314E+02  0.70000074278E+02 0.  0.
         12    1    1    2    0    0 -0.62522970370E+01 -0.30919412189E+01 -0.17378887054E+02  0.18726372686E+02  0.00000000000E+00 0. -1.
         11    1    3    3    0    0 -0.70557116132E+01 -0.10985848099E+02  0.65233761525E+01  0.14595422622E+02  0.51100000000E-03 0. -1.
        -11    1    3    3    0    0 -0.20463723913E+02  0.41571341462E+01  0.86377035010E+01  0.22597691978E+02  0.51100000000E-03 0.  1.
        -12    1    3    3    0    0  0.33771732564E+02  0.99206551713E+01  0.22178074007E+01  0.35268512714E+02  0.00000000000E+00 0.  1.
</event>
<event>
 7    1  0.2932741E-013  0.7246159E+02  0.7816164E-02  0.1226708E+00
        -11   -1    0    0    0    0  0.00000000000E+00  0.00000000000E+00  0.45593999997E+02  0.45594000000E+02  0.51100000000E-03 0.  1.
         11   -1    0    0    0    0 -0.00000000000E+00 -0.00000000000E+00 -0.45593999997E+02  0.45594000000E+02  0.51100000000E-03 0. -1.
    9900012    2    1    2    0    0  0.18050651988E+02 -0.33378750754E+01  0.37028526103E+01  0.72461586444E+02  0.70000021038E+02 0.  0.
         12    1    1    2    0    0 -0.18050651988E+02  0.33378750754E+01 -0.37028526103E+01  0.18726413556E+02  0.00000000000E+00 0. -1.
         11    1    3    3    0    0  0.11775744731E+02  0.18106554116E+02  0.57495265236E+01  0.22351119020E+02  0.51100000000E-03 0. -1.
        -11    1    3    3    0    0  0.11656499922E+02  0.74052836039E+01  0.11325661565E+02  0.17860090308E+02  0.51100000000E-03 0.  1.
        -12    1    3    3    0    0 -0.53815926649E+01 -0.28849712795E+02 -0.13372335478E+02  0.32250377116E+02  0.00000000000E+00 0.  1.
</event>
<event>
 7    1  0.2932741E-013  0.7246159E+02  0.7816164E-02  0.1226708E+00
        -11   -1    0    0    0    0  0.00000000000E+00  0.00000000000E+00  0.45593999997E+02  0.45594000000E+02  0.51100000000E-03 0.  1.
         11   -1    0    0    0    0 -0.00000000000E+00 -0.00000000000E+00 -0.45593999997E+02  0.45594000000E+02  0.51100000000E-03 0. -1.
    9900012    2    1    2    0    0  0.10560455154E+02 -0.55953636353E+01  0.14416901596E+02  0.72461591938E+02  0.70000028195E+02 0.  0.
         12    1    1    2    0    0 -0.10560455154E+02  0.55953636353E+01 -0.14416901596E+02  0.18726408062E+02  0.00000000000E+00 0. -1.
         11    1    3    3    0    0 -0.63377323715E+01  0.24466055722E+01  0.68326702726E+01  0.96352536943E+01  0.51100000000E-03 0. -1.
        -11    1    3    3    0    0 -0.22367000251E+02 -0.50010698821E+01  0.41733816353E+01  0.23296148067E+02  0.51100000000E-03 0.  1.
         12    1    3    3    0    0  0.39265187777E+02 -0.30408993254E+01  0.34108496884E+01  0.39530190177E+02  0.00000000000E+00 0. -1.
</event>
<event>
 7    1  0.2932741E-013  0.7246159E+02  0.7816164E-02  0.1226708E+00
        -11   -1    0    0    0    0  0.00000000000E+00  0.00000000000E+00  0.45593999997E+02  0.45594000000E+02  0.51100000000E-03 0.  1.
         11   -1    0    0    0    0 -0.00000000000E+00 -0.00000000000E+00 -0.45593999997E+02  0.45594000000E+02  0.51100000000E-03 0. -1.
    9900012    2    1    2    0    0  0.15732198614E+02 -0.77475636911E+01  0.65689973000E+01  0.72461587052E+02  0.70000021830E+02 0.  0.
         12    1    1    2    0    0 -0.15732198614E+02  0.77475636911E+01 -0.65689973000E+01  0.18726412948E+02  0.00000000000E+00 0. -1.
         11    1    3    3    0    0  0.20543382483E+01 -0.49855392766E+01  0.15755331544E+02  0.16652518723E+02  0.51100000000E-03 0. -1.
        -11    1    3    3    0    0  0.67072699177E+01  0.54623194494E+01  0.21558314697E+02  0.23228976223E+02  0.51100000000E-03 0.  1.
         12    1    3    3    0    0  0.69705904475E+01 -0.82243438639E+01 -0.30744648941E+02  0.32580092106E+02  0.00000000000E+00 0. -1.
</event>
<event>
 7    1  0.2932741E-013  0.7246153E+02  0.7816164E-02  0.1226708E+00
        -11   -1    0    0    0    0  0.00000000000E+00  0.00000000000E+00  0.45593999997E+02  0.45594000000E+02  0.51100000000E-03 0.  1.
         11   -1    0    0    0    0 -0.00000000000E+00 -0.00000000000E+00 -0.45593999997E+02  0.45594000000E+02  0.51100000000E-03 0. -1.
    9900012    2    1    2    0    0 -0.17289173988E+02  0.68494266751E+01 -0.22023595337E+01  0.72461532888E+02  0.69999951272E+02 0.  0.
         12    1    1    2    0    0  0.17289173988E+02 -0.68494266751E+01  0.22023595337E+01  0.18726467112E+02  0.00000000000E+00 0. -1.
         11    1    3    3    0    0 -0.10849657272E+02 -0.15312854395E+02 -0.17027511589E+02  0.25340377341E+02  0.51100000000E-03 0. -1.
        -11    1    3    3    0    0  0.24421735849E+00 -0.98653247218E+01  0.10000595897E+02  0.14049775533E+02  0.51100000000E-03 0.  1.
        -12    1    3    3    0    0 -0.66837340749E+01  0.32027605792E+02  0.48245561583E+01  0.33071380014E+02  0.00000000000E+00 0.  1.
</event>
<event>
 7    1  0.2932741E-013  0.7246149E+02  0.7816164E-02  0.1226708E+00
        -11   -1    0    0    0    0  0.00000000000E+00  0.00000000000E+00  0.45593999997E+02  0.45594000000E+02  0.51100000000E-03 0.  1.
         11   -1    0    0    0    0 -0.00000000000E+00 -0.00000000000E+00 -0.45593999997E+02  0.45594000000E+02  0.51100000000E-03 0. -1.
    9900012    2    1    2    0    0  0.75395743691E+01  0.52899780533E+01  0.16305008479E+02  0.72461485349E+02  0.69999889343E+02 0.  0.
         12    1    1    2    0    0 -0.75395743691E+01 -0.52899780533E+01 -0.16305008479E+02  0.18726514651E+02  0.00000000000E+00 0. -1.
         11    1    3    3    0    0 -0.89959914498E+01  0.22082194117E+02 -0.11815484109E+02  0.26611216135E+02  0.51100000000E-03 0. -1.
        -11    1    3    3    0    0  0.73453317497E+01 -0.31016187767E+01 -0.46033763197E+01  0.92067915883E+01  0.51100000000E-03 0.  1.
        -12    1    3    3    0    0  0.91902340692E+01 -0.13690597287E+02  0.32723868907E+02  0.36643477626E+02  0.00000000000E+00 0.  1.
</event>
<event>
 7    1  0.2932741E-013  0.7246157E+02  0.7816164E-02  0.1226708E+00
        -11   -1    0    0    0    0  0.00000000000E+00  0.00000000000E+00  0.45593999997E+02  0.45594000000E+02  0.51100000000E-03 0. -1.
         11   -1    0    0    0    0 -0.00000000000E+00 -0.00000000000E+00 -0.45593999997E+02  0.45594000000E+02  0.51100000000E-03 0.  1.
    9900012    2    1    2    0    0 -0.16112733315E+02 -0.86559957350E+01  0.40165490895E+01  0.72461572054E+02  0.70000002292E+02 0.  0.
         12    1    1    2    0    0  0.16112733315E+02  0.86559957350E+01 -0.40165490895E+01  0.18726427946E+02  0.00000000000E+00 0. -1.
         11    1    3    3    0    0 -0.93940119576E+01  0.44729407046E+01  0.53151363803E+01  0.11683549726E+02  0.51100000000E-03 0. -1.
        -11    1    3    3    0    0 -0.16133205606E+02  0.19457102797E+02 -0.73522622823E+01  0.26323277404E+02  0.51100000000E-03 0.  1.
         12    1    3    3    0    0  0.94144842490E+01 -0.32586039236E+02  0.60536749915E+01  0.34454744923E+02  0.00000000000E+00 0. -1.
</event>
<event>
 7    1  0.2932741E-013  0.7246153E+02  0.7816164E-02  0.1226708E+00
        -11   -1    0    0    0    0  0.00000000000E+00  0.00000000000E+00  0.45593999997E+02  0.45594000000E+02  0.51100000000E-03 0. -1.
         11   -1    0    0    0    0 -0.00000000000E+00 -0.00000000000E+00 -0.45593999997E+02  0.45594000000E+02  0.51100000000E-03 0.  1.
    9900012    2    1    2    0    0  0.89949400372E+01 -0.15725588429E+02  0.47410374280E+01  0.72461534407E+02  0.69999953250E+02 0.  0.
         12    1    1    2    0    0 -0.89949400372E+01  0.15725588429E+02 -0.47410374280E+01  0.18726465593E+02  0.00000000000E+00 0. -1.
         11    1    3    3    0    0 -0.72895822643E+01 -0.23893371717E+02  0.59892401981E+01  0.25688562047E+02  0.51100000000E-03 0. -1.
        -11    1    3    3    0    0 -0.14202121928E+02  0.70630258497E+01 -0.32861819329E+01  0.16198320696E+02  0.51100000000E-03 0.  1.
        -12    1    3    3    0    0  0.30486644229E+02  0.11047574386E+01  0.20379791627E+01  0.30574651665E+02  0.00000000000E+00 0.  1.
</event>
<event>
 7    1  0.2932741E-013  0.7246169E+02  0.7816164E-02  0.1226708E+00
        -11   -1    0    0    0    0  0.00000000000E+00  0.00000000000E+00  0.45593999997E+02  0.45594000000E+02  0.51100000000E-03 0. -1.
         11   -1    0    0    0    0 -0.00000000000E+00 -0.00000000000E+00 -0.45593999997E+02  0.45594000000E+02  0.51100000000E-03 0.  1.
    9900012    2    1    2    0    0  0.53634768004E+01  0.17072766568E+02 -0.55161895843E+01  0.72461692590E+02  0.70000159313E+02 0.  0.
         12    1    1    2    0    0 -0.53634768004E+01 -0.17072766568E+02  0.55161895843E+01  0.18726307410E+02  0.00000000000E+00 0. -1.
         11    1    3    3    0    0 -0.22664552501E+02  0.22493890549E+02 -0.12671632081E+02  0.34354436569E+02  0.51100000000E-03 0. -1.
        -11    1    3    3    0    0  0.28205491804E+01  0.48053178458E+01 -0.57425966068E+01  0.80014994425E+01  0.51100000000E-03 0.  1.
        -12    1    3    3    0    0  0.25207480121E+02 -0.10226441827E+02  0.12898039104E+02  0.30105756579E+02  0.00000000000E+00 0.  1.
</event>
<event>
 7    1  0.2932741E-013  0.7246155E+02  0.7816164E-02  0.1226708E+00
        -11   -1    0    0    0    0  0.00000000000E+00  0.00000000000E+00  0.45593999997E+02  0.45594000000E+02  0.51100000000E-03 0. -1.
         11   -1    0    0    0    0 -0.00000000000E+00 -0.00000000000E+00 -0.45593999997E+02  0.45594000000E+02  0.51100000000E-03 0.  1.
    9900012    2    1    2    0    0 -0.11643966243E+02 -0.20539513405E+01  0.14521684799E+02  0.72461548244E+02  0.69999971275E+02 0.  0.
         12    1    1    2    0    0  0.11643966243E+02  0.20539513405E+01 -0.14521684799E+02  0.18726451756E+02  0.00000000000E+00 0. -1.
         11    1    3    3    0    0 -0.10697305813E+02  0.87484080845E+01  0.25952916040E+01  0.14060673328E+02  0.51100000000E-03 0. -1.
        -11    1    3    3    0    0 -0.95307967175E+01  0.19109910767E+02  0.16447559665E+02  0.26954535700E+02  0.51100000000E-03 0.  1.
        -12    1    3    3    0    0  0.85841362881E+01 -0.29912270192E+02 -0.45211664696E+01  0.31446339216E+02  0.00000000000E+00 0.  1.
</event>
<event>
 7    1  0.2932741E-013  0.7246156E+02  0.7816164E-02  0.1226708E+00
        -11   -1    0    0    0    0  0.00000000000E+00  0.00000000000E+00  0.45593999997E+02  0.45594000000E+02  0.51100000000E-03 0.  1.
         11   -1    0    0    0    0 -0.00000000000E+00 -0.00000000000E+00 -0.45593999997E+02  0.45594000000E+02  0.51100000000E-03 0. -1.
    9900012    2    1    2    0    0  0.18119148488E+02 -0.37727359161E+01  0.28534734072E+01  0.72461564442E+02  0.69999992377E+02 0.  0.
         12    1    1    2    0    0 -0.18119148488E+02  0.37727359161E+01 -0.28534734072E+01  0.18726435558E+02  0.00000000000E+00 0. -1.
         11    1    3    3    0    0  0.34326638811E+01 -0.43312368503E+01  0.28975263449E+02  0.29497604753E+02  0.51100000000E-03 0.  1.
        -11    1    3    3    0    0 -0.51654894363E+00  0.12646372966E+02 -0.34675356000E+01  0.13123314193E+02  0.51100000000E-03 0. -1.
        -12    1    3    3    0    0  0.15203033550E+02 -0.12087872032E+02 -0.22654254441E+02  0.29840645497E+02  0.00000000000E+00 0.  1.
</event>
<event>
 7    1  0.2932741E-013  0.7246155E+02  0.7816164E-02  0.1226708E+00
        -11   -1    0    0    0    0  0.00000000000E+00  0.00000000000E+00  0.45593999997E+02  0.45594000000E+02  0.51100000000E-03 0.  1.
         11   -1    0    0    0    0 -0.00000000000E+00 -0.00000000000E+00 -0.45593999997E+02  0.45594000000E+02  0.51100000000E-03 0. -1.
    9900012    2    1    2    0    0 -0.75424559677E+01  0.47930437982E+01  0.16456554882E+02  0.72461545197E+02  0.69999967307E+02 0.  0.
         12    1    1    2    0    0  0.75424559677E+01 -0.47930437982E+01 -0.16456554882E+02  0.18726454803E+02  0.00000000000E+00 0. -1.
         11    1    3    3    0    0 -0.23539336596E+02 -0.57261470048E+01 -0.99900643248E+01  0.26204780335E+02  0.51100000000E-03 0. -1.
        -11    1    3    3    0    0 -0.10120927745E+02  0.11015101490E+01  0.67257024335E+01  0.12201703836E+02  0.51100000000E-03 0.  1.
        -12    1    3    3    0    0  0.26117808373E+02  0.94176806541E+01  0.19720916774E+02  0.34055061027E+02  0.00000000000E+00 0.  1.
</event>
<event>
 7    1  0.2932741E-013  0.7246130E+02  0.7816164E-02  0.1226709E+00
        -11   -1    0    0    0    0  0.00000000000E+00  0.00000000000E+00  0.45593999997E+02  0.45594000000E+02  0.51100000000E-03 0. -1.
         11   -1    0    0    0    0 -0.00000000000E+00 -0.00000000000E+00 -0.45593999997E+02  0.45594000000E+02  0.51100000000E-03 0.  1.
    9900012    2    1    2    0    0  0.37565964566E+01 -0.11216252339E+01 -0.18311726742E+02  0.72461297237E+02  0.69999644291E+02 0.  0.
         12    1    1    2    0    0 -0.37565964566E+01  0.11216252339E+01  0.18311726742E+02  0.18726702763E+02  0.00000000000E+00 0. -1.
         11    1    3    3    0    0  0.24573534131E+02  0.15529289244E+02 -0.28237724601E+01  0.29206011287E+02  0.51100000000E-03 0. -1.
        -11    1    3    3    0    0  0.61275291604E-01  0.76024332535E+01  0.22050484302E+00  0.76058772461E+01  0.51100000000E-03 0.  1.
        -12    1    3    3    0    0 -0.20878212966E+02 -0.24253347732E+02 -0.15708459125E+02  0.35649408704E+02  0.00000000000E+00 0.  1.
</event>
<event>
 7    1  0.2932741E-013  0.7246159E+02  0.7816164E-02  0.1226708E+00
        -11   -1    0    0    0    0  0.00000000000E+00  0.00000000000E+00  0.45593999997E+02  0.45594000000E+02  0.51100000000E-03 0. -1.
         11   -1    0    0    0    0 -0.00000000000E+00 -0.00000000000E+00 -0.45593999997E+02  0.45594000000E+02  0.51100000000E-03 0.  1.
    9900012    2    1    2    0    0  0.24631622900E+01  0.13148271579E+02 -0.13104741117E+02  0.72461589406E+02  0.70000024897E+02 0.  0.
         12    1    1    2    0    0 -0.24631622900E+01 -0.13148271579E+02  0.13104741117E+02  0.18726410594E+02  0.00000000000E+00 0. -1.
         11    1    3    3    0    0 -0.26938109349E+01  0.40024604427E+02 -0.74255766297E+01  0.40796626888E+02  0.51100000000E-03 0. -1.
        -11    1    3    3    0    0 -0.20480241186E+01  0.50903750889E+00  0.13281879821E+01  0.24935126935E+01  0.51100000000E-03 0.  1.
        -12    1    3    3    0    0  0.72049973434E+01 -0.27385370356E+02 -0.70073524692E+01  0.29171449825E+02  0.00000000000E+00 0.  1.
</event>
<event>
 7    1  0.2932741E-013  0.7246156E+02  0.7816164E-02  0.1226708E+00
        -11   -1    0    0    0    0  0.00000000000E+00  0.00000000000E+00  0.45593999997E+02  0.45594000000E+02  0.51100000000E-03 0. -1.
         11   -1    0    0    0    0 -0.00000000000E+00 -0.00000000000E+00 -0.45593999997E+02  0.45594000000E+02  0.51100000000E-03 0.  1.
    9900012    2    1    2    0    0  0.13981498291E+02  0.78202031889E+01  0.96975063967E+01  0.72461561399E+02  0.69999988412E+02 0.  0.
         12    1    1    2    0    0 -0.13981498291E+02 -0.78202031889E+01 -0.96975063967E+01  0.18726438601E+02  0.00000000000E+00 0. -1.
         11    1    3    3    0    0  0.48971240757E+01  0.10669934457E+02  0.33693156403E+02  0.35679939940E+02  0.51100000000E-03 0. -1.
        -11    1    3    3    0    0  0.69296220997E+01 -0.10419235905E+02 -0.10888090696E+01  0.12560479479E+02  0.51100000000E-03 0.  1.
        -12    1    3    3    0    0  0.21547521152E+01  0.75695046366E+01 -0.22906840936E+02  0.24221141980E+02  0.00000000000E+00 0.  1.
</event>
<event>
 7    1  0.2932741E-013  0.7246159E+02  0.7816164E-02  0.1226708E+00
        -11   -1    0    0    0    0  0.00000000000E+00  0.00000000000E+00  0.45593999997E+02  0.45594000000E+02  0.51100000000E-03 0.  1.
         11   -1    0    0    0    0 -0.00000000000E+00 -0.00000000000E+00 -0.45593999997E+02  0.45594000000E+02  0.51100000000E-03 0. -1.
    9900012    2    1    2    0    0 -0.74794933632E+01  0.11083105459E+02  0.13111074510E+02  0.72461592913E+02  0.70000029465E+02 0.  0.
         12    1    1    2    0    0  0.74794933632E+01 -0.11083105459E+02 -0.13111074510E+02  0.18726407087E+02  0.00000000000E+00 0. -1.
         11    1    3    3    0    0 -0.18922714861E+02  0.17138542206E+02  0.14018260171E+01  0.25568806838E+02  0.51100000000E-03 0. -1.
        -11    1    3    3    0    0  0.17991414241E+02  0.49645208666E+01 -0.10378123482E+02  0.21355160994E+02  0.51100000000E-03 0.  1.
        -12    1    3    3    0    0 -0.65481927430E+01 -0.11019957613E+02  0.22087371975E+02  0.25537625081E+02  0.00000000000E+00 0.  1.
</event>
<event>
 7    1  0.2932741E-013  0.7246164E+02  0.7816164E-02  0.1226708E+00
        -11   -1    0    0    0    0  0.00000000000E+00  0.00000000000E+00  0.45593999997E+02  0.45594000000E+02  0.51100000000E-03 0.  1.
         11   -1    0    0    0    0 -0.00000000000E+00 -0.00000000000E+00 -0.45593999997E+02  0.45594000000E+02  0.51100000000E-03 0. -1.
    9900012    2    1    2    0    0 -0.17663792585E+02  0.61293529666E+01  0.10479175359E+01  0.72461637101E+02  0.70000087028E+02 0.  0.
         12    1    1    2    0    0  0.17663792585E+02 -0.61293529666E+01 -0.10479175359E+01  0.18726362899E+02  0.00000000000E+00 0. -1.
         11    1    3    3    0    0 -0.13254503390E+02 -0.12193053348E+02  0.14428578848E+02  0.23076747992E+02  0.51100000000E-03 0. -1.
        -11    1    3    3    0    0  0.11785588609E+02  0.47105051446E+01  0.11218850276E+02  0.16939644605E+02  0.51100000000E-03 0.  1.
         12    1    3    3    0    0 -0.16194877803E+02  0.13611901170E+02 -0.24599511588E+02  0.32445244503E+02  0.00000000000E+00 0. -1.
</event>
<event>
 7    1  0.2932741E-013  0.7246157E+02  0.7816164E-02  0.1226708E+00
        -11   -1    0    0    0    0  0.00000000000E+00  0.00000000000E+00  0.45593999997E+02  0.45594000000E+02  0.51100000000E-03 0. -1.
         11   -1    0    0    0    0 -0.00000000000E+00 -0.00000000000E+00 -0.45593999997E+02  0.45594000000E+02  0.51100000000E-03 0.  1.
    9900012    2    1    2    0    0 -0.17195769038E+01 -0.15661402814E+02 -0.10121397677E+02  0.72461570181E+02  0.69999999853E+02 0.  0.
         12    1    1    2    0    0  0.17195769038E+01  0.15661402814E+02  0.10121397677E+02  0.18726429819E+02  0.00000000000E+00 0. -1.
         11    1    3    3    0    0 -0.10053830281E+02 -0.36540785949E+02  0.17984504253E+01  0.37941309483E+02  0.51100000000E-03 0. -1.
        -11    1    3    3    0    0  0.75393095858E+01 -0.18860859746E+01 -0.84460681868E+01  0.11477568445E+02  0.51100000000E-03 0.  1.
        -12    1    3    3    0    0  0.79494379151E+00  0.22765469109E+02 -0.34737799150E+01  0.23042692254E+02  0.00000000000E+00 0.  1.
</event>
<event>
 7    1  0.2932741E-013  0.7246153E+02  0.7816164E-02  0.1226708E+00
        -11   -1    0    0    0    0  0.00000000000E+00  0.00000000000E+00  0.45593999997E+02  0.45594000000E+02  0.51100000000E-03 0. -1.
         11   -1    0    0    0    0 -0.00000000000E+00 -0.00000000000E+00 -0.45593999997E+02  0.45594000000E+02  0.51100000000E-03 0.  1.
    9900012    2    1    2    0    0  0.14249556655E+02 -0.97238697962E+01 -0.72854042256E+01  0.72461531475E+02  0.69999949431E+02 0.  0.
         12    1    1    2    0    0 -0.14249556655E+02  0.97238697962E+01  0.72854042256E+01  0.18726468525E+02  0.00000000000E+00 0. -1.
         11    1    3    3    0    0 -0.18976030542E+01 -0.32313861103E+01 -0.50658816177E+01  0.63012626013E+01  0.51100000000E-03 0. -1.
        -11    1    3    3    0    0  0.30817513190E+02  0.26041003783E+01 -0.23439472976E+02  0.38806047874E+02  0.51100000000E-03 0.  1.
         12    1    3    3    0    0 -0.14670353481E+02 -0.90965840643E+01  0.21219950368E+02  0.27354221000E+02  0.00000000000E+00 0. -1.
</event>
<event>
 7    1  0.2932741E-013  0.7246158E+02  0.7816164E-02  0.1226708E+00
        -11   -1    0    0    0    0  0.00000000000E+00  0.00000000000E+00  0.45593999997E+02  0.45594000000E+02  0.51100000000E-03 0. -1.
         11   -1    0    0    0    0 -0.00000000000E+00 -0.00000000000E+00 -0.45593999997E+02  0.45594000000E+02  0.51100000000E-03 0.  1.
    9900012    2    1    2    0    0 -0.13901339783E+02 -0.12355033452E+02  0.21873787117E+01  0.72461582163E+02  0.70000015461E+02 0.  0.
         12    1    1    2    0    0  0.13901339783E+02  0.12355033452E+02 -0.21873787117E+01  0.18726417837E+02  0.00000000000E+00 0. -1.
         11    1    3    3    0    0 -0.14693939672E+02 -0.12431292449E+01  0.29141921561E+02  0.32660508660E+02  0.51100000000E-03 0.  1.
        -11    1    3    3    0    0  0.13350955369E+02 -0.38652624682E+01 -0.83523055377E+01  0.16215710631E+02  0.51100000000E-03 0. -1.
        -12    1    3    3    0    0 -0.12558355480E+02 -0.72466417390E+01 -0.18602237311E+02  0.23585362873E+02  0.00000000000E+00 0.  1.
</event>
<event>
 7    1  0.2932741E-013  0.7246162E+02  0.7816164E-02  0.1226708E+00
        -11   -1    0    0    0    0  0.00000000000E+00  0.00000000000E+00  0.45593999997E+02  0.45594000000E+02  0.51100000000E-03 0.  1.
         11   -1    0    0    0    0 -0.00000000000E+00 -0.00000000000E+00 -0.45593999997E+02  0.45594000000E+02  0.51100000000E-03 0. -1.
    9900012    2    1    2    0    0  0.33814490935E+01  0.18413588488E+02  0.42771895868E+00  0.72461618009E+02  0.70000062157E+02 0.  0.
         12    1    1    2    0    0 -0.33814490935E+01 -0.18413588488E+02 -0.42771895868E+00  0.18726381991E+02  0.00000000000E+00 0. -1.
         11    1    3    3    0    0 -0.19882711218E+02 -0.20928035009E+01 -0.10315854213E+02  0.22497086040E+02  0.51100000000E-03 0. -1.
        -11    1    3    3    0    0  0.22282845691E+01  0.26757842321E+02  0.59842608659E+01  0.27509248557E+02  0.51100000000E-03 0.  1.
        -12    1    3    3    0    0  0.21035875743E+02 -0.62514503323E+01  0.47593123057E+01  0.22455283413E+02  0.00000000000E+00 0.  1.
</event>
<event>
 7    1  0.2932741E-013  0.7246168E+02  0.7816164E-02  0.1226708E+00
        -11   -1    0    0    0    0  0.00000000000E+00  0.00000000000E+00  0.45593999997E+02  0.45594000000E+02  0.51100000000E-03 0. -1.
         11   -1    0    0    0    0 -0.00000000000E+00 -0.00000000000E+00 -0.45593999997E+02  0.45594000000E+02  0.51100000000E-03 0.  1.
    9900012    2    1    2    0    0  0.56529792294E+01 -0.18613955039E+01 -0.17755393737E+02  0.72461682312E+02  0.70000145924E+02 0.  0.
         12    1    1    2    0    0 -0.56529792294E+01  0.18613955039E+01  0.17755393737E+02  0.18726317688E+02  0.00000000000E+00 0. -1.
         11    1    3    3    0    0 -0.12912300290E+01 -0.23429176362E+01 -0.10252850998E+01  0.28649167239E+01  0.51100000000E-03 0. -1.
        -11    1    3    3    0    0 -0.25704916131E+02  0.15235691570E+02 -0.15698838958E+02  0.33753852459E+02  0.51100000000E-03 0.  1.
         12    1    3    3    0    0  0.32649125389E+02 -0.14754169438E+02 -0.10312696790E+01  0.35842913130E+02  0.00000000000E+00 0. -1.
</event>
<event>
 7    1  0.2932741E-013  0.7246158E+02  0.7816164E-02  0.1226708E+00
        -11   -1    0    0    0    0  0.00000000000E+00  0.00000000000E+00  0.45593999997E+02  0.45594000000E+02  0.51100000000E-03 0.  1.
         11   -1    0    0    0    0 -0.00000000000E+00 -0.00000000000E+00 -0.45593999997E+02  0.45594000000E+02  0.51100000000E-03 0. -1.
    9900012    2    1    2    0    0 -0.10598051245E+02  0.12215939735E+02  0.94409274577E+01  0.72461575219E+02  0.70000006416E+02 0.  0.
         12    1    1    2    0    0  0.10598051245E+02 -0.12215939735E+02 -0.94409274577E+01  0.18726424781E+02  0.00000000000E+00 0. -1.
         11    1    3    3    0    0  0.59940512199E+01 -0.12085031013E+02  0.80058203914E+01  0.15686611648E+02  0.51100000000E-03 0. -1.
        -11    1    3    3    0    0  0.18533368671E+01  0.23201341130E+02  0.19921812975E+02  0.30636836002E+02  0.51100000000E-03 0.  1.
        -12    1    3    3    0    0 -0.18445439332E+02  0.10996296176E+01 -0.18486705908E+02  0.26138127569E+02  0.00000000000E+00 0.  1.
</event>
<event>
 7    1  0.2932741E-013  0.7246156E+02  0.7816164E-02  0.1226708E+00
        -11   -1    0    0    0    0  0.00000000000E+00  0.00000000000E+00  0.45593999997E+02  0.45594000000E+02  0.51100000000E-03 0.  1.
         11   -1    0    0    0    0 -0.00000000000E+00 -0.00000000000E+00 -0.45593999997E+02  0.45594000000E+02  0.51100000000E-03 0. -1.
    9900012    2    1    2    0    0 -0.84731834846E+01 -0.15415714261E+02  0.64218751521E+01  0.72461559735E+02  0.69999986244E+02 0.  0.
         12    1    1    2    0    0  0.84731834846E+01  0.15415714261E+02 -0.64218751521E+01  0.18726440265E+02  0.00000000000E+00 0. -1.
         11    1    3    3    0    0 -0.10864259559E+02 -0.14476884569E+02  0.83016636160E+01  0.19913059575E+02  0.51100000000E-03 0.  1.
        -11    1    3    3    0    0 -0.20948439729E+02 -0.14486386388E+02  0.33138910028E+00  0.25471598628E+02  0.51100000000E-03 0. -1.
         12    1    3    3    0    0  0.23339515803E+02  0.13547556696E+02 -0.22111775642E+01  0.27076901532E+02  0.00000000000E+00 0. -1.
</event>
<event>
 7    1  0.2932741E-013  0.7246159E+02  0.7816164E-02  0.1226708E+00
        -11   -1    0    0    0    0  0.00000000000E+00  0.00000000000E+00  0.45593999997E+02  0.45594000000E+02  0.51100000000E-03 0. -1.
         11   -1    0    0    0    0 -0.00000000000E+00 -0.00000000000E+00 -0.45593999997E+02  0.45594000000E+02  0.51100000000E-03 0.  1.
    9900012    2    1    2    0    0 -0.11660317178E+02 -0.13959569304E+02 -0.44548871576E+01  0.72461585729E+02  0.70000020107E+02 0.  0.
         12    1    1    2    0    0  0.11660317178E+02  0.13959569304E+02  0.44548871576E+01  0.18726414271E+02  0.00000000000E+00 0. -1.
         11    1    3    3    0    0  0.10881067743E+01  0.59291485497E+01  0.22306681590E+02  0.23106856616E+02  0.51100000000E-03 0. -1.
        -11    1    3    3    0    0 -0.16393685300E+02 -0.37821870621E+01  0.12147020442E+01  0.16868116611E+02  0.51100000000E-03 0.  1.
        -12    1    3    3    0    0  0.36452613477E+01 -0.16106530792E+02 -0.27976270792E+02  0.32486612502E+02  0.00000000000E+00 0.  1.
</event>
<event>
 7    1  0.2932741E-013  0.7246156E+02  0.7816164E-02  0.1226708E+00
        -11   -1    0    0    0    0  0.00000000000E+00  0.00000000000E+00  0.45593999997E+02  0.45594000000E+02  0.51100000000E-03 0.  1.
         11   -1    0    0    0    0 -0.00000000000E+00 -0.00000000000E+00 -0.45593999997E+02  0.45594000000E+02  0.51100000000E-03 0. -1.
    9900012    2    1    2    0    0 -0.57734491341E+01  0.17560078129E+02  0.29984314228E+01  0.72461557471E+02  0.69999983295E+02 0.  0.
         12    1    1    2    0    0  0.57734491341E+01 -0.17560078129E+02 -0.29984314228E+01  0.18726442529E+02  0.00000000000E+00 0. -1.
         11    1    3    3    0    0  0.20473051757E+02  0.20393916810E+02  0.81121328343E+00  0.28908748820E+02  0.51100000000E-03 0. -1.
        -11    1    3    3    0    0  0.72231485542E+01  0.31320612704E+01  0.51798584586E+01  0.94241507177E+01  0.51100000000E-03 0.  1.
        -12    1    3    3    0    0 -0.33469649445E+02 -0.59658999511E+01 -0.29926403192E+01  0.34128657933E+02  0.00000000000E+00 0.  1.
</event>
<event>
 7    1  0.2932741E-013  0.7246157E+02  0.7816164E-02  0.1226708E+00
        -11   -1    0    0    0    0  0.00000000000E+00  0.00000000000E+00  0.45593999997E+02  0.45594000000E+02  0.51100000000E-03 0.  1.
         11   -1    0    0    0    0 -0.00000000000E+00 -0.00000000000E+00 -0.45593999997E+02  0.45594000000E+02  0.51100000000E-03 0. -1.
    9900012    2    1    2    0    0  0.13889385293E+02  0.98940300994E+01  0.77377098315E+01  0.72461574584E+02  0.70000005588E+02 0.  0.
         12    1    1    2    0    0 -0.13889385293E+02 -0.98940300994E+01 -0.77377098315E+01  0.18726425416E+02  0.00000000000E+00 0. -1.
         11    1    3    3    0    0  0.29352736887E+01  0.39255827157E+01 -0.94936349585E+01  0.10684340704E+02  0.51100000000E-03 0. -1.
        -11    1    3    3    0    0 -0.12148448713E+02 -0.86849047240E+01 -0.13852256932E+02  0.20369030379E+02  0.51100000000E-03 0.  1.
        -12    1    3    3    0    0  0.23102560317E+02  0.14653352108E+02  0.31083601722E+02  0.41408203502E+02  0.00000000000E+00 0.  1.
</event>
<event>
 7    1  0.2932741E-013  0.7246156E+02  0.7816164E-02  0.1226708E+00
        -11   -1    0    0    0    0  0.00000000000E+00  0.00000000000E+00  0.45593999997E+02  0.45594000000E+02  0.51100000000E-03 0.  1.
         11   -1    0    0    0    0 -0.00000000000E+00 -0.00000000000E+00 -0.45593999997E+02  0.45594000000E+02  0.51100000000E-03 0. -1.
    9900012    2    1    2    0    0  0.95923112735E+01  0.18410517933E+01  0.15977415479E+02  0.72461555792E+02  0.69999981109E+02 0.  0.
         12    1    1    2    0    0 -0.95923112735E+01 -0.18410517933E+01 -0.15977415479E+02  0.18726444208E+02  0.00000000000E+00 0. -1.
         11    1    3    3    0    0  0.19005986243E+01  0.27031461189E+01 -0.16919323501E+01  0.37123994140E+01  0.51100000000E-03 0. -1.
        -11    1    3    3    0    0  0.23690277616E+02  0.25909029906E+02  0.70859608669E+01  0.35815051666E+02  0.51100000000E-03 0.  1.
        -12    1    3    3    0    0 -0.15998564966E+02 -0.26771124232E+02  0.10583386962E+02  0.32934104712E+02  0.00000000000E+00 0.  1.
</event>
<event>
 7    1  0.2932741E-013  0.7246160E+02  0.7816164E-02  0.1226708E+00
        -11   -1    0    0    0    0  0.00000000000E+00  0.00000000000E+00  0.45593999997E+02  0.45594000000E+02  0.51100000000E-03 0.  1.
         11   -1    0    0    0    0 -0.00000000000E+00 -0.00000000000E+00 -0.45593999997E+02  0.45594000000E+02  0.51100000000E-03 0. -1.
    9900012    2    1    2    0    0  0.79857673500E+01 -0.16483764298E+02  0.38975696576E+01  0.72461601124E+02  0.70000040162E+02 0.  0.
         12    1    1    2    0    0 -0.79857673500E+01  0.16483764298E+02 -0.38975696576E+01  0.18726398876E+02  0.00000000000E+00 0. -1.
         11    1    3    3    0    0  0.61540403736E+01 -0.71254667787E+01  0.20602336660E+02  0.22651727657E+02  0.51100000000E-03 0. -1.
        -11    1    3    3    0    0 -0.60570158737E+01  0.44499905081E+01  0.13626830459E+02  0.15562145271E+02  0.51100000000E-03 0.  1.
         12    1    3    3    0    0  0.78887428500E+01 -0.13808288028E+02 -0.30331597462E+02  0.34247728196E+02  0.00000000000E+00 0. -1.
</event>
<event>
 7    1  0.2932741E-013  0.7246160E+02  0.7816164E-02  0.1226708E+00
        -11   -1    0    0    0    0  0.00000000000E+00  0.00000000000E+00  0.45593999997E+02  0.45594000000E+02  0.51100000000E-03 0.  1.
         11   -1    0    0    0    0 -0.00000000000E+00 -0.00000000000E+00 -0.45593999997E+02  0.45594000000E+02  0.51100000000E-03 0. -1.
    9900012    2    1    2    0    0 -0.62497799905E+01  0.76570375964E+01  0.15905597518E+02  0.72461601332E+02  0.70000040432E+02 0.  0.
         12    1    1    2    0    0  0.62497799905E+01 -0.76570375964E+01 -0.15905597518E+02  0.18726398668E+02  0.00000000000E+00 0. -1.
         11    1    3    3    0    0  0.95651447877E+01 -0.21593739362E+02  0.18606106676E+02  0.30066073577E+02  0.51100000000E-03 0. -1.
        -11    1    3    3    0    0 -0.73848486435E+01  0.58619704795E+01  0.10610752705E+02  0.14194603222E+02  0.51100000000E-03 0.  1.
        -12    1    3    3    0    0 -0.84300761347E+01  0.23388806479E+02 -0.13311261864E+02  0.28200924533E+02  0.00000000000E+00 0.  1.
</event>
<event>
 7    1  0.2932741E-013  0.7246156E+02  0.7816164E-02  0.1226708E+00
        -11   -1    0    0    0    0  0.00000000000E+00  0.00000000000E+00  0.45593999997E+02  0.45594000000E+02  0.51100000000E-03 0.  1.
         11   -1    0    0    0    0 -0.00000000000E+00 -0.00000000000E+00 -0.45593999997E+02  0.45594000000E+02  0.51100000000E-03 0. -1.
    9900012    2    1    2    0    0  0.89733003736E+01  0.15465981144E+02  0.55644119185E+01  0.72461564879E+02  0.69999992946E+02 0.  0.
         12    1    1    2    0    0 -0.89733003736E+01 -0.15465981144E+02 -0.55644119185E+01  0.18726435121E+02  0.00000000000E+00 0. -1.
         11    1    3    3    0    0 -0.31845418785E+01 -0.15788899167E+01 -0.52240107078E+01  0.63185827905E+01  0.51100000000E-03 0. -1.
        -11    1    3    3    0    0  0.17163941612E+02 -0.20845609959E+02  0.55322617940E+01  0.27563495189E+02  0.51100000000E-03 0.  1.
         12    1    3    3    0    0 -0.50060993598E+01  0.37890481020E+02  0.52561608323E+01  0.38579486899E+02  0.00000000000E+00 0. -1.
</event>
<event>
 7    1  0.2932741E-013  0.7246155E+02  0.7816164E-02  0.1226708E+00
        -11   -1    0    0    0    0  0.00000000000E+00  0.00000000000E+00  0.45593999997E+02  0.45594000000E+02  0.51100000000E-03 0.  1.
         11   -1    0    0    0    0 -0.00000000000E+00 -0.00000000000E+00 -0.45593999997E+02  0.45594000000E+02  0.51100000000E-03 0. -1.
    9900012    2    1    2    0    0  0.52339325544E+01 -0.17792545388E+02  0.25905965707E+01  0.72461550471E+02  0.69999974176E+02 0.  0.
         12    1    1    2    0    0 -0.52339325544E+01  0.17792545388E+02 -0.25905965707E+01  0.18726449529E+02  0.00000000000E+00 0. -1.
         11    1    3    3    0    0  0.51802745991E+01  0.96064756637E+01  0.12655409875E+02  0.16711643216E+02  0.51100000000E-03 0.  1.
        -11    1    3    3    0    0 -0.13680420188E+02 -0.33365894684E+02 -0.16243393807E+02  0.39551038763E+02  0.51100000000E-03 0. -1.
         12    1    3    3    0    0  0.13734078144E+02  0.59668736317E+01  0.61785805030E+01  0.16198868492E+02  0.00000000000E+00 0. -1.
</event>
<event>
 7    1  0.2932741E-013  0.7246184E+02  0.7816164E-02  0.1226707E+00
        -11   -1    0    0    0    0  0.00000000000E+00  0.00000000000E+00  0.45593999997E+02  0.45594000000E+02  0.51100000000E-03 0. -1.
         11   -1    0    0    0    0 -0.00000000000E+00 -0.00000000000E+00 -0.45593999997E+02  0.45594000000E+02  0.51100000000E-03 0.  1.
    9900012    2    1    2    0    0  0.11877014040E+02 -0.39071815878E+01 -0.13940567991E+02  0.72461842723E+02  0.70000354888E+02 0.  0.
         12    1    1    2    0    0 -0.11877014040E+02  0.39071815878E+01  0.13940567991E+02  0.18726157277E+02  0.00000000000E+00 0. -1.
         11    1    3    3    0    0 -0.66806301689E+01 -0.26279664955E+02  0.83702431276E+01  0.28378029880E+02  0.51100000000E-03 0. -1.
        -11    1    3    3    0    0  0.54852461333E+01 -0.23846136190E+01  0.26816671500E+01  0.65548185497E+01  0.51100000000E-03 0.  1.
        -12    1    3    3    0    0  0.13072398076E+02  0.24757096986E+02 -0.24992478268E+02  0.37528994293E+02  0.00000000000E+00 0.  1.
</event>
<event>
 7    1  0.2932741E-013  0.7246157E+02  0.7816164E-02  0.1226708E+00
        -11   -1    0    0    0    0  0.00000000000E+00  0.00000000000E+00  0.45593999997E+02  0.45594000000E+02  0.51100000000E-03 0. -1.
         11   -1    0    0    0    0 -0.00000000000E+00 -0.00000000000E+00 -0.45593999997E+02  0.45594000000E+02  0.51100000000E-03 0.  1.
    9900012    2    1    2    0    0  0.17283333211E+02 -0.61043025958E+01  0.38344677176E+01  0.72461567886E+02  0.69999996862E+02 0.  0.
         12    1    1    2    0    0 -0.17283333211E+02  0.61043025958E+01 -0.38344677176E+01  0.18726432114E+02  0.00000000000E+00 0. -1.
         11    1    3    3    0    0  0.11237478862E+01 -0.25561536734E+02 -0.12696523228E+02  0.28563204860E+02  0.51100000000E-03 0. -1.
        -11    1    3    3    0    0  0.11424506258E+02 -0.54700350752E+01  0.13222562201E+02  0.18310564665E+02  0.51100000000E-03 0.  1.
        -12    1    3    3    0    0  0.47350790671E+01  0.24927269213E+02  0.33084287453E+01  0.25587798361E+02  0.00000000000E+00 0.  1.
</event>
<event>
 7    1  0.2932741E-013  0.7246160E+02  0.7816164E-02  0.1226708E+00
        -11   -1    0    0    0    0  0.00000000000E+00  0.00000000000E+00  0.45593999997E+02  0.45594000000E+02  0.51100000000E-03 0.  1.
         11   -1    0    0    0    0 -0.00000000000E+00 -0.00000000000E+00 -0.45593999997E+02  0.45594000000E+02  0.51100000000E-03 0. -1.
    9900012    2    1    2    0    0 -0.58697232734E+01 -0.63709925861E+01  0.16602258293E+02  0.72461596761E+02  0.70000034478E+02 0.  0.
         12    1    1    2    0    0  0.58697232734E+01  0.63709925861E+01 -0.16602258293E+02  0.18726403239E+02  0.00000000000E+00 0. -1.
         11    1    3    3    0    0  0.44567673497E+01 -0.66785376034E+00 -0.11854134618E+01  0.46598293092E+01  0.51100000000E-03 0. -1.
        -11    1    3    3    0    0  0.22104377965E+02  0.14200382785E+02  0.13416420264E+02  0.29500080159E+02  0.51100000000E-03 0.  1.
         12    1    3    3    0    0 -0.32430868588E+02 -0.19903521611E+02  0.43712514914E+01  0.38301687293E+02  0.00000000000E+00 0. -1.
</event>
<event>
 7    1  0.2932741E-013  0.7246157E+02  0.7816164E-02  0.1226708E+00
        -11   -1    0    0    0    0  0.00000000000E+00  0.00000000000E+00  0.45593999997E+02  0.45594000000E+02  0.51100000000E-03 0.  1.
         11   -1    0    0    0    0 -0.00000000000E+00 -0.00000000000E+00 -0.45593999997E+02  0.45594000000E+02  0.51100000000E-03 0. -1.
    9900012    2    1    2    0    0 -0.17452558086E+02 -0.10826423590E+01  0.67018778668E+01  0.72461573080E+02  0.70000003629E+02 0.  0.
         12    1    1    2    0    0  0.17452558086E+02  0.10826423590E+01 -0.67018778668E+01  0.18726426920E+02  0.00000000000E+00 0. -1.
         11    1    3    3    0    0 -0.71893470509E+01  0.12339220156E+02 -0.19246559962E+02  0.23966083028E+02  0.51100000000E-03 0. -1.
        -11    1    3    3    0    0  0.73697841337E+01  0.67610864270E+01  0.17913489095E+02  0.20516313013E+02  0.51100000000E-03 0.  1.
         12    1    3    3    0    0 -0.17632995169E+02 -0.20182948942E+02  0.80349487341E+01  0.27979177039E+02  0.00000000000E+00 0. -1.
</event>
<event>
 7    1  0.2932741E-013  0.7246157E+02  0.7816164E-02  0.1226708E+00
        -11   -1    0    0    0    0  0.00000000000E+00  0.00000000000E+00  0.45593999997E+02  0.45594000000E+02  0.51100000000E-03 0.  1.
         11   -1    0    0    0    0 -0.00000000000E+00 -0.00000000000E+00 -0.45593999997E+02  0.45594000000E+02  0.51100000000E-03 0. -1.
    9900012    2    1    2    0    0 -0.16304956025E+01 -0.17526681770E+02 -0.63903151565E+01  0.72461569011E+02  0.69999998328E+02 0.  0.
         12    1    1    2    0    0  0.16304956025E+01  0.17526681770E+02  0.63903151565E+01  0.18726430989E+02  0.00000000000E+00 0. -1.
         11    1    3    3    0    0 -0.89900217514E+01 -0.17422338302E+02 -0.10857162045E+02  0.22410629865E+02  0.51100000000E-03 0. -1.
        -11    1    3    3    0    0  0.28389493561E+02  0.16322583971E+01 -0.21077604911E+00  0.28437159474E+02  0.51100000000E-03 0.  1.
         12    1    3    3    0    0 -0.21029967412E+02 -0.17366018651E+01  0.46776229375E+01  0.21613779673E+02  0.00000000000E+00 0. -1.
</event>
<event>
 7    1  0.2932741E-013  0.7246157E+02  0.7816164E-02  0.1226708E+00
        -11   -1    0    0    0    0  0.00000000000E+00  0.00000000000E+00  0.45593999997E+02  0.45594000000E+02  0.51100000000E-03 0.  1.
         11   -1    0    0    0    0 -0.00000000000E+00 -0.00000000000E+00 -0.45593999997E+02  0.45594000000E+02  0.51100000000E-03 0. -1.
    9900012    2    1    2    0    0  0.69197264614E+01  0.72022443182E-01  0.17400900320E+02  0.72461571257E+02  0.70000001254E+02 0.  0.
         12    1    1    2    0    0 -0.69197264614E+01 -0.72022443182E-01 -0.17400900320E+02  0.18726428743E+02  0.00000000000E+00 0. -1.
         11    1    3    3    0    0 -0.16349031749E+01 -0.20101648878E+01  0.18873354864E+02  0.19050385700E+02  0.51100000000E-03 0.  1.
        -11    1    3    3    0    0  0.88168057572E+01  0.19175411431E+02  0.17828723062E+02  0.27627809063E+02  0.51100000000E-03 0. -1.
         12    1    3    3    0    0 -0.26217612096E+00 -0.17093224100E+02 -0.19301177606E+02  0.25783376494E+02  0.00000000000E+00 0. -1.
</event>
<event>
 7    1  0.2932741E-013  0.7246156E+02  0.7816164E-02  0.1226708E+00
        -11   -1    0    0    0    0  0.00000000000E+00  0.00000000000E+00  0.45593999997E+02  0.45594000000E+02  0.51100000000E-03 0. -1.
         11   -1    0    0    0    0 -0.00000000000E+00 -0.00000000000E+00 -0.45593999997E+02  0.45594000000E+02  0.51100000000E-03 0.  1.
    9900012    2    1    2    0    0  0.11272144512E+02  0.14942022527E+02  0.59514652290E+00  0.72461562045E+02  0.69999989254E+02 0.  0.
         12    1    1    2    0    0 -0.11272144512E+02 -0.14942022527E+02 -0.59514652290E+00  0.18726437955E+02  0.00000000000E+00 0. -1.
         11    1    3    3    0    0  0.13278040303E+02 -0.85309333112E+01  0.60041651941E+00  0.15793786047E+02  0.51100000000E-03 0. -1.
        -11    1    3    3    0    0  0.90383592549E+01  0.13511563944E+02  0.23666378821E+02  0.28711527041E+02  0.51100000000E-03 0.  1.
        -12    1    3    3    0    0 -0.11044255046E+02  0.99613918945E+01 -0.23671648818E+02  0.27956248957E+02  0.00000000000E+00 0.  1.
</event>
<event>
 7    1  0.2932741E-013  0.7246154E+02  0.7816164E-02  0.1226708E+00
        -11   -1    0    0    0    0  0.00000000000E+00  0.00000000000E+00  0.45593999997E+02  0.45594000000E+02  0.51100000000E-03 0. -1.
         11   -1    0    0    0    0 -0.00000000000E+00 -0.00000000000E+00 -0.45593999997E+02  0.45594000000E+02  0.51100000000E-03 0.  1.
    9900012    2    1    2    0    0 -0.10119470849E+02 -0.81039819948E+01 -0.13513031416E+02  0.72461541913E+02  0.69999963027E+02 0.  0.
         12    1    1    2    0    0  0.10119470849E+02  0.81039819948E+01  0.13513031416E+02  0.18726458087E+02  0.00000000000E+00 0. -1.
         11    1    3    3    0    0  0.61260456485E+01 -0.18115604194E+02 -0.13380582321E+02  0.23339741518E+02  0.51100000000E-03 0. -1.
        -11    1    3    3    0    0 -0.53138199779E+01 -0.17238346231E+02  0.62209777649E+01  0.19081347650E+02  0.51100000000E-03 0.  1.
         12    1    3    3    0    0 -0.10931696520E+02  0.27249968430E+02 -0.63534268603E+01  0.30040452745E+02  0.00000000000E+00 0. -1.
</event>
<event>
 7    1  0.2932741E-013  0.7246154E+02  0.7816164E-02  0.1226708E+00
        -11   -1    0    0    0    0  0.00000000000E+00  0.00000000000E+00  0.45593999997E+02  0.45594000000E+02  0.51100000000E-03 0.  1.
         11   -1    0    0    0    0 -0.00000000000E+00 -0.00000000000E+00 -0.45593999997E+02  0.45594000000E+02  0.51100000000E-03 0. -1.
    9900012    2    1    2    0    0 -0.39320605378E+01 -0.66061516003E+01  0.17075654279E+02  0.72461539894E+02  0.69999960398E+02 0.  0.
         12    1    1    2    0    0  0.39320605378E+01  0.66061516003E+01 -0.17075654279E+02  0.18726460106E+02  0.00000000000E+00 0. -1.
         11    1    3    3    0    0 -0.58632555255E+01  0.84415157355E+01  0.32404910402E+01  0.10776721937E+02  0.51100000000E-03 0. -1.
        -11    1    3    3    0    0 -0.91944622422E+01  0.18927499231E+02  0.15119808594E+02  0.25911329090E+02  0.51100000000E-03 0.  1.
         12    1    3    3    0    0  0.11125657230E+02 -0.33975166566E+02 -0.12846453553E+01  0.35773488867E+02  0.00000000000E+00 0. -1.
</event>
<event>
 7    1  0.3494299E-013  0.7246159E+02  0.7816164E-02  0.1226708E+00
        -11   -1    0    0    0    0  0.00000000000E+00  0.00000000000E+00  0.45593999997E+02  0.45594000000E+02  0.51100000000E-03 0. -1.
         11   -1    0    0    0    0 -0.00000000000E+00 -0.00000000000E+00 -0.45593999997E+02  0.45594000000E+02  0.51100000000E-03 0.  1.
    9900012    2    1    2    0    0 -0.39285734950E+01 -0.70655379960E+01 -0.16891506163E+02  0.72461588242E+02  0.70000023380E+02 0.  0.
         12    1    1    2    0    0  0.39285734950E+01  0.70655379960E+01  0.16891506163E+02  0.18726411758E+02  0.00000000000E+00 0. -1.
         11    1    3    3    0    0  0.15892146127E+02 -0.37839220118E+01  0.18655032246E+02  0.24796947447E+02  0.51100000000E-03 0. -1.
        -11    1    3    3    0    0 -0.84001066520E+01  0.49989093543E+01 -0.38918419661E+00  0.97827578472E+01  0.51100000000E-03 0.  1.
        -12    1    3    3    0    0 -0.11420612970E+02 -0.82805253385E+01 -0.35157354212E+02  0.37881882948E+02  0.00000000000E+00 0.  1.
</event>
<event>
 7    1  0.2932741E-013  0.7246161E+02  0.7816164E-02  0.1226708E+00
        -11   -1    0    0    0    0  0.00000000000E+00  0.00000000000E+00  0.45593999997E+02  0.45594000000E+02  0.51100000000E-03 0.  1.
         11   -1    0    0    0    0 -0.00000000000E+00 -0.00000000000E+00 -0.45593999997E+02  0.45594000000E+02  0.51100000000E-03 0. -1.
    9900012    2    1    2    0    0  0.85274802491E+01 -0.13338418108E+02  0.10002309946E+02  0.72461614303E+02  0.70000057330E+02 0.  0.
         12    1    1    2    0    0 -0.85274802491E+01  0.13338418108E+02 -0.10002309946E+02  0.18726385697E+02  0.00000000000E+00 0. -1.
         11    1    3    3    0    0  0.10833345659E+02 -0.81641791360E+01  0.12575930519E+02  0.18497816839E+02  0.51100000000E-03 0. -1.
        -11    1    3    3    0    0  0.13504228824E+02 -0.68071870166E+01  0.20788684751E+02  0.25707419263E+02  0.51100000000E-03 0.  1.
         12    1    3    3    0    0 -0.15810094233E+02  0.16329480451E+01 -0.23362305324E+02  0.28256378201E+02  0.00000000000E+00 0. -1.
</event>
<event>
 7    1  0.2932741E-013  0.7246159E+02  0.7816164E-02  0.1226708E+00
        -11   -1    0    0    0    0  0.00000000000E+00  0.00000000000E+00  0.45593999997E+02  0.45594000000E+02  0.51100000000E-03 0. -1.
         11   -1    0    0    0    0 -0.00000000000E+00 -0.00000000000E+00 -0.45593999997E+02  0.45594000000E+02  0.51100000000E-03 0.  1.
    9900012    2    1    2    0    0  0.67226654595E+01  0.17217136006E+02 -0.30090728940E+01  0.72461587562E+02  0.70000022494E+02 0.  0.
         12    1    1    2    0    0 -0.67226654595E+01 -0.17217136006E+02  0.30090728940E+01  0.18726412438E+02  0.00000000000E+00 0. -1.
         11    1    3    3    0    0 -0.78402514568E+01  0.14641906362E+02 -0.12480018708E+02  0.20775125319E+02  0.51100000000E-03 0. -1.
        -11    1    3    3    0    0 -0.15068797627E+02 -0.18771555370E+01  0.14854184106E+02  0.21242390651E+02  0.51100000000E-03 0.  1.
         12    1    3    3    0    0  0.29631714543E+02  0.44523851808E+01 -0.53832382924E+01  0.30444071592E+02  0.00000000000E+00 0. -1.
</event>
<event>
 7    1  0.2932741E-013  0.7246160E+02  0.7816164E-02  0.1226708E+00
        -11   -1    0    0    0    0  0.00000000000E+00  0.00000000000E+00  0.45593999997E+02  0.45594000000E+02  0.51100000000E-03 0.  1.
         11   -1    0    0    0    0 -0.00000000000E+00 -0.00000000000E+00 -0.45593999997E+02  0.45594000000E+02  0.51100000000E-03 0. -1.
    9900012    2    1    2    0    0  0.19576503876E+01  0.54791754968E+01  0.17799557604E+02  0.72461601252E+02  0.70000040328E+02 0.  0.
         12    1    1    2    0    0 -0.19576503876E+01 -0.54791754968E+01 -0.17799557604E+02  0.18726398748E+02  0.00000000000E+00 0. -1.
         11    1    3    3    0    0  0.77170850811E+01  0.18049623509E+02  0.29722942958E+01  0.19853887393E+02  0.51100000000E-03 0. -1.
        -11    1    3    3    0    0  0.18655593770E+02 -0.29897986879E+01  0.18115094755E+02  0.26174925661E+02  0.51100000000E-03 0.  1.
         12    1    3    3    0    0 -0.24415028463E+02 -0.95806493241E+01 -0.32878314462E+01  0.26432788199E+02  0.00000000000E+00 0. -1.
</event>
<event>
 7    1  0.2932741E-013  0.7246153E+02  0.7816164E-02  0.1226708E+00
        -11   -1    0    0    0    0  0.00000000000E+00  0.00000000000E+00  0.45593999997E+02  0.45594000000E+02  0.51100000000E-03 0. -1.
         11   -1    0    0    0    0 -0.00000000000E+00 -0.00000000000E+00 -0.45593999997E+02  0.45594000000E+02  0.51100000000E-03 0.  1.
    9900012    2    1    2    0    0 -0.16010338959E+01  0.10282866155E+02 -0.15568559282E+02  0.72461529857E+02  0.69999947323E+02 0.  0.
         12    1    1    2    0    0  0.16010338959E+01 -0.10282866155E+02  0.15568559282E+02  0.18726470143E+02  0.00000000000E+00 0. -1.
         11    1    3    3    0    0 -0.25279336147E+02 -0.10554297887E+02 -0.21119217516E+02  0.34589874077E+02  0.51100000000E-03 0. -1.
        -11    1    3    3    0    0  0.51221411389E+01 -0.37177080693E+01  0.29539248027E+01  0.69845082243E+01  0.51100000000E-03 0.  1.
        -12    1    3    3    0    0  0.18556161112E+02  0.24554872111E+02  0.25967334318E+01  0.30887147556E+02  0.00000000000E+00 0.  1.
</event>
<event>
 7    1  0.2932741E-013  0.7246140E+02  0.7816164E-02  0.1226708E+00
        -11   -1    0    0    0    0  0.00000000000E+00  0.00000000000E+00  0.45593999997E+02  0.45594000000E+02  0.51100000000E-03 0.  1.
         11   -1    0    0    0    0 -0.00000000000E+00 -0.00000000000E+00 -0.45593999997E+02  0.45594000000E+02  0.51100000000E-03 0. -1.
    9900012    2    1    2    0    0 -0.20615626976E+01 -0.91072268685E+01  0.16232492879E+02  0.72461402683E+02  0.69999781655E+02 0.  0.
         12    1    1    2    0    0  0.20615626976E+01  0.91072268685E+01 -0.16232492879E+02  0.18726597317E+02  0.00000000000E+00 0. -1.
         11    1    3    3    0    0  0.57716191922E+01 -0.19143506359E+02 -0.38143003731E+01  0.20355203546E+02  0.51100000000E-03 0. -1.
        -11    1    3    3    0    0  0.15893838120E+02 -0.35179074827E+01 -0.27633608804E+01  0.16511387793E+02  0.51100000000E-03 0.  1.
        -12    1    3    3    0    0 -0.23727020010E+02  0.13554186973E+02  0.22810154133E+02  0.35594811344E+02  0.00000000000E+00 0.  1.
</event>
<event>
 7    1  0.2932741E-013  0.7246155E+02  0.7816164E-02  0.1226708E+00
        -11   -1    0    0    0    0  0.00000000000E+00  0.00000000000E+00  0.45593999997E+02  0.45594000000E+02  0.51100000000E-03 0.  1.
         11   -1    0    0    0    0 -0.00000000000E+00 -0.00000000000E+00 -0.45593999997E+02  0.45594000000E+02  0.51100000000E-03 0. -1.
    9900012    2    1    2    0    0  0.80861172848E+01 -0.13700018389E+02 -0.98794806727E+01  0.72461549857E+02  0.69999973377E+02 0.  0.
         12    1    1    2    0    0 -0.80861172848E+01  0.13700018389E+02  0.98794806727E+01  0.18726450143E+02  0.00000000000E+00 0. -1.
         11    1    3    3    0    0 -0.62013667043E+01 -0.23474572478E+02  0.35827011786E+00  0.24282521693E+02  0.51100000000E-03 0. -1.
        -11    1    3    3    0    0  0.35156442796E+01 -0.17229725803E+02 -0.69965034974E+01  0.18925492527E+02  0.51100000000E-03 0.  1.
        -12    1    3    3    0    0  0.10771839709E+02  0.27004279893E+02 -0.32412472931E+01  0.29253535637E+02  0.00000000000E+00 0.  1.
</event>
<event>
 7    1  0.2932741E-013  0.7246157E+02  0.7816164E-02  0.1226708E+00
        -11   -1    0    0    0    0  0.00000000000E+00  0.00000000000E+00  0.45593999997E+02  0.45594000000E+02  0.51100000000E-03 0. -1.
         11   -1    0    0    0    0 -0.00000000000E+00 -0.00000000000E+00 -0.45593999997E+02  0.45594000000E+02  0.51100000000E-03 0.  1.
    9900012    2    1    2    0    0 -0.17950913496E+02  0.53168375199E+01  0.41835563647E+00  0.72461572739E+02  0.70000003184E+02 0.  0.
         12    1    1    2    0    0  0.17950913496E+02 -0.53168375199E+01 -0.41835563647E+00  0.18726427261E+02  0.00000000000E+00 0. -1.
         11    1    3    3    0    0 -0.26501219712E+02 -0.20786668360E+01  0.62358726574E+01  0.27304241614E+02  0.51100000000E-03 0. -1.
        -11    1    3    3    0    0 -0.16222045142E+02 -0.63375962454E+00 -0.95731842562E+01  0.18846810258E+02  0.51100000000E-03 0.  1.
        -12    1    3    3    0    0  0.24772351358E+02  0.80292639804E+01  0.37556672353E+01  0.26310520867E+02  0.00000000000E+00 0.  1.
</event>
<event>
 7    1  0.2932741E-013  0.7246157E+02  0.7816164E-02  0.1226708E+00
        -11   -1    0    0    0    0  0.00000000000E+00  0.00000000000E+00  0.45593999997E+02  0.45594000000E+02  0.51100000000E-03 0. -1.
         11   -1    0    0    0    0 -0.00000000000E+00 -0.00000000000E+00 -0.45593999997E+02  0.45594000000E+02  0.51100000000E-03 0.  1.
    9900012    2    1    2    0    0 -0.12098086401E+01  0.12377172447E+02 -0.14000760014E+02  0.72461566391E+02  0.69999994915E+02 0.  0.
         12    1    1    2    0    0  0.12098086401E+01 -0.12377172447E+02  0.14000760014E+02  0.18726433609E+02  0.00000000000E+00 0. -1.
         11    1    3    3    0    0  0.34125563834E+01  0.37380823544E+01  0.14092280727E+02  0.14973682817E+02  0.51100000000E-03 0. -1.
        -11    1    3    3    0    0  0.48976591085E+00 -0.11394227810E+02 -0.34100835836E+02  0.35957409571E+02  0.51100000000E-03 0.  1.
         12    1    3    3    0    0 -0.51121309344E+01  0.20033317903E+02  0.60077950953E+01  0.21530474003E+02  0.00000000000E+00 0. -1.
</event>
<event>
 7    1  0.2932741E-013  0.7246157E+02  0.7816164E-02  0.1226708E+00
        -11   -1    0    0    0    0  0.00000000000E+00  0.00000000000E+00  0.45593999997E+02  0.45594000000E+02  0.51100000000E-03 0. -1.
         11   -1    0    0    0    0 -0.00000000000E+00 -0.00000000000E+00 -0.45593999997E+02  0.45594000000E+02  0.51100000000E-03 0.  1.
    9900012    2    1    2    0    0  0.13198170413E+02 -0.10186875744E+02 -0.85273113205E+01  0.72461570067E+02  0.69999999704E+02 0.  0.
         12    1    1    2    0    0 -0.13198170413E+02  0.10186875744E+02  0.85273113205E+01  0.18726429933E+02  0.00000000000E+00 0. -1.
         11    1    3    3    0    0 -0.59252381774E+01 -0.28043381479E+01 -0.50474512288E+01  0.82734227545E+01  0.51100000000E-03 0. -1.
        -11    1    3    3    0    0  0.71640795441E+01 -0.22348401203E+01 -0.31983193249E+02  0.32851837038E+02  0.51100000000E-03 0.  1.
         12    1    3    3    0    0  0.11959329046E+02 -0.51476974756E+01  0.28503333158E+02  0.31336310275E+02  0.00000000000E+00 0. -1.
</event>
<event>
 7    1  0.2932741E-013  0.7246201E+02  0.7816164E-02  0.1226707E+00
        -11   -1    0    0    0    0  0.00000000000E+00  0.00000000000E+00  0.45593999997E+02  0.45594000000E+02  0.51100000000E-03 0.  1.
         11   -1    0    0    0    0 -0.00000000000E+00 -0.00000000000E+00 -0.45593999997E+02  0.45594000000E+02  0.51100000000E-03 0. -1.
    9900012    2    1    2    0    0  0.22183848140E+01 -0.17332222386E+02  0.67331761214E+01  0.72462006710E+02  0.70000568510E+02 0.  0.
         12    1    1    2    0    0 -0.22183848140E+01  0.17332222386E+02 -0.67331761214E+01  0.18725993290E+02  0.00000000000E+00 0. -1.
         11    1    3    3    0    0  0.20084127721E+01 -0.11069009345E+02 -0.16728246293E+01  0.11373435376E+02  0.51100000000E-03 0. -1.
        -11    1    3    3    0    0  0.16822853672E+02 -0.65504774151E+01  0.29286677284E+02  0.34403875169E+02  0.51100000000E-03 0.  1.
        -12    1    3    3    0    0 -0.16612881631E+02  0.28726437446E+00 -0.20880676533E+02  0.26684696164E+02  0.00000000000E+00 0.  1.
</event>
<event>
 7    1  0.2932741E-013  0.7246153E+02  0.7816164E-02  0.1226708E+00
        -11   -1    0    0    0    0  0.00000000000E+00  0.00000000000E+00  0.45593999997E+02  0.45594000000E+02  0.51100000000E-03 0.  1.
         11   -1    0    0    0    0 -0.00000000000E+00 -0.00000000000E+00 -0.45593999997E+02  0.45594000000E+02  0.51100000000E-03 0. -1.
    9900012    2    1    2    0    0 -0.36474255493E+01 -0.16824057177E+02  0.73707642394E+01  0.72461527335E+02  0.69999944037E+02 0.  0.
         12    1    1    2    0    0  0.36474255493E+01  0.16824057177E+02 -0.73707642394E+01  0.18726472665E+02  0.00000000000E+00 0. -1.
         11    1    3    3    0    0  0.10708796263E+02 -0.14726730998E+02 -0.11486409739E+01  0.18244843097E+02  0.51100000000E-03 0. -1.
        -11    1    3    3    0    0  0.10376916071E+02 -0.17449500996E+02  0.13911764588E+02  0.24611027333E+02  0.51100000000E-03 0.  1.
         12    1    3    3    0    0 -0.24733137883E+02  0.15352174817E+02 -0.53923593746E+01  0.29605656905E+02  0.00000000000E+00 0. -1.
</event>
<event>
 7    1  0.2932741E-013  0.7246161E+02  0.7816164E-02  0.1226708E+00
        -11   -1    0    0    0    0  0.00000000000E+00  0.00000000000E+00  0.45593999997E+02  0.45594000000E+02  0.51100000000E-03 0.  1.
         11   -1    0    0    0    0 -0.00000000000E+00 -0.00000000000E+00 -0.45593999997E+02  0.45594000000E+02  0.51100000000E-03 0. -1.
    9900012    2    1    2    0    0  0.50960786587E+01 -0.95541893755E+01  0.15278253253E+02  0.72461612875E+02  0.70000055469E+02 0.  0.
         12    1    1    2    0    0 -0.50960786587E+01  0.95541893755E+01 -0.15278253253E+02  0.18726387125E+02  0.00000000000E+00 0. -1.
         11    1    3    3    0    0 -0.21043304863E+02 -0.16625731775E+02  0.63539463244E+01  0.27560991832E+02  0.51100000000E-03 0.  1.
        -11    1    3    3    0    0  0.11481581798E+02 -0.11468214731E+02 -0.55920048067E+01  0.17164416323E+02  0.51100000000E-03 0. -1.
        -12    1    3    3    0    0  0.14657801724E+02  0.18539757131E+02  0.14516311735E+02  0.27736204719E+02  0.00000000000E+00 0.  1.
</event>
<event>
 7    1  0.2932741E-013  0.7246150E+02  0.7816164E-02  0.1226708E+00
        -11   -1    0    0    0    0  0.00000000000E+00  0.00000000000E+00  0.45593999997E+02  0.45594000000E+02  0.51100000000E-03 0. -1.
         11   -1    0    0    0    0 -0.00000000000E+00 -0.00000000000E+00 -0.45593999997E+02  0.45594000000E+02  0.51100000000E-03 0.  1.
    9900012    2    1    2    0    0 -0.90692276253E+00  0.19632849991E+01 -0.18601200989E+02  0.72461503395E+02  0.69999912851E+02 0.  0.
         12    1    1    2    0    0  0.90692276253E+00 -0.19632849991E+01  0.18601200989E+02  0.18726496605E+02  0.00000000000E+00 0. -1.
         11    1    3    3    0    0 -0.13335298375E+02  0.28440216381E+02 -0.15228673122E+01  0.31448294320E+02  0.51100000000E-03 0. -1.
        -11    1    3    3    0    0  0.97776554389E+01  0.85027256679E+00 -0.50662482729E+01  0.11045016122E+02  0.51100000000E-03 0.  1.
        -12    1    3    3    0    0  0.26507201736E+01 -0.27327203948E+02 -0.12012085404E+02  0.29968192952E+02  0.00000000000E+00 0.  1.
</event>
<event>
 7    1  0.2932741E-013  0.7246157E+02  0.7816164E-02  0.1226708E+00
        -11   -1    0    0    0    0  0.00000000000E+00  0.00000000000E+00  0.45593999997E+02  0.45594000000E+02  0.51100000000E-03 0. -1.
         11   -1    0    0    0    0 -0.00000000000E+00 -0.00000000000E+00 -0.45593999997E+02  0.45594000000E+02  0.51100000000E-03 0.  1.
    9900012    2    1    2    0    0 -0.19249669270E+01  0.13037640177E+02  0.13303892570E+02  0.72461571708E+02  0.70000001842E+02 0.  0.
         12    1    1    2    0    0  0.19249669270E+01 -0.13037640177E+02 -0.13303892570E+02  0.18726428292E+02  0.00000000000E+00 0. -1.
         11    1    3    3    0    0  0.10155614553E+00 -0.10055848783E+02  0.30548353962E+02  0.32161037584E+02  0.51100000000E-03 0. -1.
        -11    1    3    3    0    0 -0.48356268200E+01 -0.79831794293E+00  0.53792713022E+01  0.72771669133E+01  0.51100000000E-03 0.  1.
        -12    1    3    3    0    0  0.28091037475E+01  0.23891806903E+02 -0.22623732694E+02  0.33023367211E+02  0.00000000000E+00 0.  1.
</event>
<event>
 7    1  0.2932741E-013  0.7246162E+02  0.7816164E-02  0.1226708E+00
        -11   -1    0    0    0    0  0.00000000000E+00  0.00000000000E+00  0.45593999997E+02  0.45594000000E+02  0.51100000000E-03 0. -1.
         11   -1    0    0    0    0 -0.00000000000E+00 -0.00000000000E+00 -0.45593999997E+02  0.45594000000E+02  0.51100000000E-03 0.  1.
    9900012    2    1    2    0    0 -0.15607291193E+02  0.16057500145E+00 -0.10347168831E+02  0.72461622199E+02  0.70000067616E+02 0.  0.
         12    1    1    2    0    0  0.15607291193E+02 -0.16057500145E+00  0.10347168831E+02  0.18726377801E+02  0.00000000000E+00 0. -1.
         11    1    3    3    0    0 -0.94463298179E+01 -0.65591152978E+01 -0.36538709067E+00  0.11506026617E+02  0.51100000000E-03 0. -1.
        -11    1    3    3    0    0 -0.82525496886E+01 -0.25528525789E+02 -0.10020796558E+02  0.28639597924E+02  0.51100000000E-03 0.  1.
        -12    1    3    3    0    0  0.20915883134E+01  0.32248216088E+02  0.39014817545E-01  0.32315997659E+02  0.00000000000E+00 0.  1.
</event>
<event>
 7    1  0.2932741E-013  0.7246149E+02  0.7816164E-02  0.1226708E+00
        -11   -1    0    0    0    0  0.00000000000E+00  0.00000000000E+00  0.45593999997E+02  0.45594000000E+02  0.51100000000E-03 0. -1.
         11   -1    0    0    0    0 -0.00000000000E+00 -0.00000000000E+00 -0.45593999997E+02  0.45594000000E+02  0.51100000000E-03 0.  1.
    9900012    2    1    2    0    0 -0.17386052344E+02 -0.66183139904E+01  0.21460084707E+01  0.72461488084E+02  0.69999892906E+02 0.  0.
         12    1    1    2    0    0  0.17386052344E+02  0.66183139904E+01 -0.21460084707E+01  0.18726511916E+02  0.00000000000E+00 0. -1.
         11    1    3    3    0    0 -0.34787833444E-01 -0.63052638564E+01 -0.12537270682E+01  0.64287941571E+01  0.51100000000E-03 0. -1.
        -11    1    3    3    0    0 -0.37880531742E+02  0.57817795746E+01 -0.11426134844E+02  0.39986500445E+02  0.51100000000E-03 0.  1.
         12    1    3    3    0    0  0.20529267232E+02 -0.60948297087E+01  0.14825870383E+02  0.26046193482E+02  0.00000000000E+00 0. -1.
</event>
<event>
 7    1  0.2932741E-013  0.7246150E+02  0.7816164E-02  0.1226708E+00
        -11   -1    0    0    0    0  0.00000000000E+00  0.00000000000E+00  0.45593999997E+02  0.45594000000E+02  0.51100000000E-03 0. -1.
         11   -1    0    0    0    0 -0.00000000000E+00 -0.00000000000E+00 -0.45593999997E+02  0.45594000000E+02  0.51100000000E-03 0.  1.
    9900012    2    1    2    0    0 -0.88259432678E+01  0.16490506964E+02  0.92063432621E+00  0.72461503743E+02  0.69999913305E+02 0.  0.
         12    1    1    2    0    0  0.88259432678E+01 -0.16490506964E+02 -0.92063432621E+00  0.18726496257E+02  0.00000000000E+00 0. -1.
         11    1    3    3    0    0  0.88162488222E+01 -0.86056540019E+01  0.20013789874E+02  0.23501815025E+02  0.51100000000E-03 0. -1.
        -11    1    3    3    0    0 -0.16956993221E+01 -0.59393353140E+01  0.37770021436E+01  0.72399479015E+01  0.51100000000E-03 0.  1.
        -12    1    3    3    0    0 -0.15946492768E+02  0.31035496280E+02 -0.22870157692E+02  0.41719740816E+02  0.00000000000E+00 0.  1.
</event>
<event>
 7    1  0.2932741E-013  0.7246157E+02  0.7816164E-02  0.1226708E+00
        -11   -1    0    0    0    0  0.00000000000E+00  0.00000000000E+00  0.45593999997E+02  0.45594000000E+02  0.51100000000E-03 0. -1.
         11   -1    0    0    0    0 -0.00000000000E+00 -0.00000000000E+00 -0.45593999997E+02  0.45594000000E+02  0.51100000000E-03 0.  1.
    9900012    2    1    2    0    0  0.12592190796E+02  0.73719543884E+01 -0.11737550670E+02  0.72461572784E+02  0.70000003243E+02 0.  0.
         12    1    1    2    0    0 -0.12592190796E+02 -0.73719543884E+01  0.11737550670E+02  0.18726427216E+02  0.00000000000E+00 0. -1.
         11    1    3    3    0    0  0.31724066556E+00  0.52693767672E+01 -0.19765510904E+02  0.20458308696E+02  0.51100000000E-03 0. -1.
        -11    1    3    3    0    0  0.15558317746E+02  0.21380712108E+02 -0.69850021226E+01  0.27349339229E+02  0.51100000000E-03 0.  1.
         12    1    3    3    0    0 -0.32833676153E+01 -0.19278134487E+02  0.15012962357E+02  0.24653924859E+02  0.00000000000E+00 0. -1.
</event>
<event>
 7    1  0.2932741E-013  0.7246160E+02  0.7816164E-02  0.1226708E+00
        -11   -1    0    0    0    0  0.00000000000E+00  0.00000000000E+00  0.45593999997E+02  0.45594000000E+02  0.51100000000E-03 0.  1.
         11   -1    0    0    0    0 -0.00000000000E+00 -0.00000000000E+00 -0.45593999997E+02  0.45594000000E+02  0.51100000000E-03 0. -1.
    9900012    2    1    2    0    0  0.32440186865E+01 -0.12424815252E+02  0.13630051731E+02  0.72461601481E+02  0.70000040627E+02 0.  0.
         12    1    1    2    0    0 -0.32440186865E+01  0.12424815252E+02 -0.13630051731E+02  0.18726398519E+02  0.00000000000E+00 0. -1.
         11    1    3    3    0    0 -0.15394389590E+02  0.62346590457E+01  0.12119355311E+02  0.20560568516E+02  0.51100000000E-03 0. -1.
        -11    1    3    3    0    0  0.75956527170E+01 -0.26356759161E+02  0.16296868612E+02  0.31905495146E+02  0.51100000000E-03 0.  1.
         12    1    3    3    0    0  0.11042755560E+02  0.76972848639E+01 -0.14786172191E+02  0.19995537820E+02  0.00000000000E+00 0. -1.
</event>
<event>
 7    1  0.2932741E-013  0.7246201E+02  0.7816164E-02  0.1226707E+00
        -11   -1    0    0    0    0  0.00000000000E+00  0.00000000000E+00  0.45593999997E+02  0.45594000000E+02  0.51100000000E-03 0.  1.
         11   -1    0    0    0    0 -0.00000000000E+00 -0.00000000000E+00 -0.45593999997E+02  0.45594000000E+02  0.51100000000E-03 0. -1.
    9900012    2    1    2    0    0  0.11621453492E+02  0.47206431822E+01  0.13903956480E+02  0.72462011131E+02  0.70000574270E+02 0.  0.
         12    1    1    2    0    0 -0.11621453492E+02 -0.47206431822E+01 -0.13903956480E+02  0.18725988869E+02  0.00000000000E+00 0. -1.
         11    1    3    3    0    0  0.12241589335E+02 -0.16558174225E+02  0.23547909944E+02  0.31281523398E+02  0.51100000000E-03 0. -1.
        -11    1    3    3    0    0  0.16364170271E+02  0.68264759566E+01 -0.40084951678E+01  0.18178417874E+02  0.51100000000E-03 0.  1.
        -12    1    3    3    0    0 -0.16984306114E+02  0.14452341451E+02 -0.56354582968E+01  0.23002069859E+02  0.00000000000E+00 0.  1.
</event>
<event>
 7    1  0.2932741E-013  0.7246159E+02  0.7816164E-02  0.1226708E+00
        -11   -1    0    0    0    0  0.00000000000E+00  0.00000000000E+00  0.45593999997E+02  0.45594000000E+02  0.51100000000E-03 0.  1.
         11   -1    0    0    0    0 -0.00000000000E+00 -0.00000000000E+00 -0.45593999997E+02  0.45594000000E+02  0.51100000000E-03 0. -1.
    9900012    2    1    2    0    0  0.17424493401E+01  0.18626434304E+02 -0.83568707799E+00  0.72461586636E+02  0.70000021288E+02 0.  0.
         12    1    1    2    0    0 -0.17424493401E+01 -0.18626434304E+02  0.83568707799E+00  0.18726413364E+02  0.00000000000E+00 0. -1.
         11    1    3    3    0    0  0.35639885030E+01 -0.81630939988E+00 -0.23244805101E+02  0.23530604317E+02  0.51100000000E-03 0. -1.
        -11    1    3    3    0    0 -0.15988389755E+02  0.15504314942E+02  0.17197601988E+00  0.22271999568E+02  0.51100000000E-03 0.  1.
        -12    1    3    3    0    0  0.14166850592E+02  0.39384287625E+01  0.22237142003E+02  0.26658982750E+02  0.00000000000E+00 0.  1.
</event>
<event>
 7    1  0.2932741E-013  0.7246098E+02  0.7816164E-02  0.1226710E+00
        -11   -1    0    0    0    0  0.00000000000E+00  0.00000000000E+00  0.45593999997E+02  0.45594000000E+02  0.51100000000E-03 0.  1.
         11   -1    0    0    0    0 -0.00000000000E+00 -0.00000000000E+00 -0.45593999997E+02  0.45594000000E+02  0.51100000000E-03 0. -1.
    9900012    2    1    2    0    0 -0.52486792927E+01 -0.16212037568E+02  0.77667596859E+01  0.72460978014E+02  0.69999228441E+02 0.  0.
         12    1    1    2    0    0  0.52486792927E+01  0.16212037568E+02 -0.77667596859E+01  0.18727021986E+02  0.00000000000E+00 0. -1.
         11    1    3    3    0    0  0.40548452438E+01  0.23201844810E+01 -0.11318969326E+02  0.12245166101E+02  0.51100000000E-03 0. -1.
        -11    1    3    3    0    0 -0.42707953768E+01 -0.15452147088E+02 -0.17165512943E+02  0.23487515357E+02  0.51100000000E-03 0.  1.
        -12    1    3    3    0    0 -0.50327291597E+01 -0.30800749612E+01  0.36251241956E+02  0.36728296556E+02  0.00000000000E+00 0.  1.
</event>
<event>
 7    1  0.2932741E-013  0.7246162E+02  0.7816164E-02  0.1226708E+00
        -11   -1    0    0    0    0  0.00000000000E+00  0.00000000000E+00  0.45593999997E+02  0.45594000000E+02  0.51100000000E-03 0.  1.
         11   -1    0    0    0    0 -0.00000000000E+00 -0.00000000000E+00 -0.45593999997E+02  0.45594000000E+02  0.51100000000E-03 0. -1.
    9900012    2    1    2    0    0  0.12966270424E+02 -0.28158494641E+01  0.13214547836E+02  0.72461616168E+02  0.70000059759E+02 0.  0.
         12    1    1    2    0    0 -0.12966270424E+02  0.28158494641E+01 -0.13214547836E+02  0.18726383832E+02  0.00000000000E+00 0. -1.
         11    1    3    3    0    0 -0.20289020581E+01 -0.18686013478E+02  0.45691854642E+01  0.19343241697E+02  0.51100000000E-03 0. -1.
        -11    1    3    3    0    0  0.30212284564E+02  0.19408225717E+02  0.15039923132E+01  0.35940553101E+02  0.51100000000E-03 0.  1.
         12    1    3    3    0    0 -0.15217112082E+02 -0.35380617030E+01  0.71413700581E+01  0.17177821370E+02  0.00000000000E+00 0. -1.
</event>
<event>
 7    1  0.2932741E-013  0.7246148E+02  0.7816164E-02  0.1226708E+00
        -11   -1    0    0    0    0  0.00000000000E+00  0.00000000000E+00  0.45593999997E+02  0.45594000000E+02  0.51100000000E-03 0.  1.
         11   -1    0    0    0    0 -0.00000000000E+00 -0.00000000000E+00 -0.45593999997E+02  0.45594000000E+02  0.51100000000E-03 0. -1.
    9900012    2    1    2    0    0 -0.39399499574E+00  0.16980741276E+02  0.78855420019E+01  0.72461479261E+02  0.69999881412E+02 0.  0.
         12    1    1    2    0    0  0.39399499574E+00 -0.16980741276E+02 -0.78855420019E+01  0.18726520739E+02  0.00000000000E+00 0. -1.
         11    1    3    3    0    0  0.14853864009E+02 -0.73290936852E+01  0.55840338196E+01  0.17479540160E+02  0.51100000000E-03 0. -1.
        -11    1    3    3    0    0  0.12517482234E+01  0.19844503269E+02  0.21494293805E+02  0.29280981029E+02  0.51100000000E-03 0.  1.
         12    1    3    3    0    0 -0.16499607229E+02  0.44653316923E+01 -0.19192785623E+02  0.25700958071E+02  0.00000000000E+00 0. -1.
</event>
<event>
 7    1  0.2932741E-013  0.7246156E+02  0.7816164E-02  0.1226708E+00
        -11   -1    0    0    0    0  0.00000000000E+00  0.00000000000E+00  0.45593999997E+02  0.45594000000E+02  0.51100000000E-03 0.  1.
         11   -1    0    0    0    0 -0.00000000000E+00 -0.00000000000E+00 -0.45593999997E+02  0.45594000000E+02  0.51100000000E-03 0. -1.
    9900012    2    1    2    0    0  0.32027524056E+01  0.18083995053E+02  0.36593741709E+01  0.72461560954E+02  0.69999987832E+02 0.  0.
         12    1    1    2    0    0 -0.32027524056E+01 -0.18083995053E+02 -0.36593741709E+01  0.18726439046E+02  0.00000000000E+00 0. -1.
         11    1    3    3    0    0 -0.24737500926E+02  0.28138315691E+01  0.84507425629E+01  0.26292140466E+02  0.51100000000E-03 0. -1.
        -11    1    3    3    0    0 -0.73483755234E+01  0.38394120486E+01  0.18269135751E+01  0.84898363461E+01  0.51100000000E-03 0.  1.
        -12    1    3    3    0    0  0.35288628855E+02  0.11430751435E+02 -0.66182819670E+01  0.37679584141E+02  0.00000000000E+00 0.  1.
</event>
<event>
 7    1  0.2932741E-013  0.7246152E+02  0.7816164E-02  0.1226708E+00
        -11   -1    0    0    0    0  0.00000000000E+00  0.00000000000E+00  0.45593999997E+02  0.45594000000E+02  0.51100000000E-03 0. -1.
         11   -1    0    0    0    0 -0.00000000000E+00 -0.00000000000E+00 -0.45593999997E+02  0.45594000000E+02  0.51100000000E-03 0.  1.
    9900012    2    1    2    0    0  0.12325416821E+02 -0.17598004677E+01 -0.13988141776E+02  0.72461523881E+02  0.69999939538E+02 0.  0.
         12    1    1    2    0    0 -0.12325416821E+02  0.17598004677E+01  0.13988141776E+02  0.18726476119E+02  0.00000000000E+00 0. -1.
         11    1    3    3    0    0 -0.69950694745E+01 -0.14313976051E+02 -0.91003996854E+00  0.15957727919E+02  0.51100000000E-03 0. -1.
        -11    1    3    3    0    0 -0.97137530728E+00 -0.61049271974E+01  0.15566555919E+02  0.16749070706E+02  0.51100000000E-03 0.  1.
        -12    1    3    3    0    0  0.20291861602E+02  0.18659102780E+02 -0.28644657727E+02  0.39754725256E+02  0.00000000000E+00 0.  1.
</event>
<event>
 7    1  0.2932741E-013  0.7246155E+02  0.7816164E-02  0.1226708E+00
        -11   -1    0    0    0    0  0.00000000000E+00  0.00000000000E+00  0.45593999997E+02  0.45594000000E+02  0.51100000000E-03 0. -1.
         11   -1    0    0    0    0 -0.00000000000E+00 -0.00000000000E+00 -0.45593999997E+02  0.45594000000E+02  0.51100000000E-03 0.  1.
    9900012    2    1    2    0    0 -0.87084025835E+01 -0.10896146011E+02 -0.12494709205E+02  0.72461547277E+02  0.69999970016E+02 0.  0.
         12    1    1    2    0    0  0.87084025835E+01  0.10896146011E+02  0.12494709205E+02  0.18726452723E+02  0.00000000000E+00 0. -1.
         11    1    3    3    0    0  0.23626596263E+01 -0.19116985810E+02  0.25294945564E+01  0.19427806102E+02  0.51100000000E-03 0. -1.
        -11    1    3    3    0    0  0.16433056520E+02  0.92907941136E+00 -0.18039767038E+02  0.24420109135E+02  0.51100000000E-03 0.  1.
         12    1    3    3    0    0 -0.27504118730E+02  0.72917603874E+01  0.30155632770E+01  0.28613632040E+02  0.00000000000E+00 0. -1.
</event>
<event>
 7    1  0.2932741E-013  0.7246149E+02  0.7816164E-02  0.1226708E+00
        -11   -1    0    0    0    0  0.00000000000E+00  0.00000000000E+00  0.45593999997E+02  0.45594000000E+02  0.51100000000E-03 0.  1.
         11   -1    0    0    0    0 -0.00000000000E+00 -0.00000000000E+00 -0.45593999997E+02  0.45594000000E+02  0.51100000000E-03 0. -1.
    9900012    2    1    2    0    0 -0.10309766253E+02 -0.54062017894E+00  0.15623660717E+02  0.72461486054E+02  0.69999890261E+02 0.  0.
         12    1    1    2    0    0  0.10309766253E+02  0.54062017894E+00 -0.15623660717E+02  0.18726513946E+02  0.00000000000E+00 0. -1.
         11    1    3    3    0    0  0.25598097077E+01  0.97584396523E+01 -0.53672223292E+00  0.10102863020E+02  0.51100000000E-03 0. -1.
        -11    1    3    3    0    0 -0.83483000149E+01  0.23456198180E+02  0.13182234638E+02  0.28171948043E+02  0.51100000000E-03 0.  1.
         12    1    3    3    0    0 -0.45212759457E+01 -0.33755258011E+02  0.29781483115E+01  0.34186674991E+02  0.00000000000E+00 0. -1.
</event>
<event>
 7    1  0.2932741E-013  0.7246154E+02  0.7816164E-02  0.1226708E+00
        -11   -1    0    0    0    0  0.00000000000E+00  0.00000000000E+00  0.45593999997E+02  0.45594000000E+02  0.51100000000E-03 0. -1.
         11   -1    0    0    0    0 -0.00000000000E+00 -0.00000000000E+00 -0.45593999997E+02  0.45594000000E+02  0.51100000000E-03 0.  1.
    9900012    2    1    2    0    0 -0.57208170591E+01 -0.14708729742E+02 -0.10079963072E+02  0.72461544543E+02  0.69999966454E+02 0.  0.
         12    1    1    2    0    0  0.57208170591E+01  0.14708729742E+02  0.10079963072E+02  0.18726455457E+02  0.00000000000E+00 0. -1.
         11    1    3    3    0    0  0.14089449347E+00 -0.30986379518E+01  0.17623505131E+02  0.17894394144E+02  0.51100000000E-03 0. -1.
        -11    1    3    3    0    0 -0.62954579497E+01  0.86805448157E+01  0.80816351633E+01  0.13427489574E+02  0.51100000000E-03 0.  1.
        -12    1    3    3    0    0  0.43374639712E+00 -0.20290636606E+02 -0.35785103366E+02  0.41139660825E+02  0.00000000000E+00 0.  1.
</event>
<event>
 7    1  0.2932741E-013  0.7246157E+02  0.7816164E-02  0.1226708E+00
        -11   -1    0    0    0    0  0.00000000000E+00  0.00000000000E+00  0.45593999997E+02  0.45594000000E+02  0.51100000000E-03 0.  1.
         11   -1    0    0    0    0 -0.00000000000E+00 -0.00000000000E+00 -0.45593999997E+02  0.45594000000E+02  0.51100000000E-03 0. -1.
    9900012    2    1    2    0    0  0.41615309002E+01 -0.17570820952E+02  0.49625699229E+01  0.72461569785E+02  0.69999999337E+02 0.  0.
         12    1    1    2    0    0 -0.41615309002E+01  0.17570820952E+02 -0.49625699229E+01  0.18726430215E+02  0.00000000000E+00 0. -1.
         11    1    3    3    0    0 -0.27518533351E+01 -0.24694896174E+01 -0.26388945613E+02  0.26646716995E+02  0.51100000000E-03 0. -1.
        -11    1    3    3    0    0  0.91117505317E+01  0.18625741078E+01 -0.86333437914E+00  0.93401566673E+01  0.51100000000E-03 0.  1.
        -12    1    3    3    0    0 -0.21983662963E+01 -0.16963905442E+02  0.32214849915E+02  0.36474696123E+02  0.00000000000E+00 0.  1.
</event>
<event>
 7    1  0.2932741E-013  0.7246157E+02  0.7816164E-02  0.1226708E+00
        -11   -1    0    0    0    0  0.00000000000E+00  0.00000000000E+00  0.45593999997E+02  0.45594000000E+02  0.51100000000E-03 0. -1.
         11   -1    0    0    0    0 -0.00000000000E+00 -0.00000000000E+00 -0.45593999997E+02  0.45594000000E+02  0.51100000000E-03 0.  1.
    9900012    2    1    2    0    0  0.19145733057E+01  0.63606226225E+01 -0.17508737571E+02  0.72461574756E+02  0.70000005813E+02 0.  0.
         12    1    1    2    0    0 -0.19145733057E+01 -0.63606226225E+01  0.17508737571E+02  0.18726425244E+02  0.00000000000E+00 0. -1.
         11    1    3    3    0    0 -0.13506943610E+02  0.19260188628E+02 -0.12485413345E+02  0.26632272496E+02  0.51100000000E-03 0. -1.
        -11    1    3    3    0    0 -0.33816638512E+01 -0.19643434456E+02 -0.13558084629E+02  0.24106468565E+02  0.51100000000E-03 0.  1.
        -12    1    3    3    0    0  0.18803180767E+02  0.67438684505E+01  0.85347604027E+01  0.21722833695E+02  0.00000000000E+00 0.  1.
</event>
<event>
 7    1  0.2932741E-013  0.7246165E+02  0.7816164E-02  0.1226708E+00
        -11   -1    0    0    0    0  0.00000000000E+00  0.00000000000E+00  0.45593999997E+02  0.45594000000E+02  0.51100000000E-03 0. -1.
         11   -1    0    0    0    0 -0.00000000000E+00 -0.00000000000E+00 -0.45593999997E+02  0.45594000000E+02  0.51100000000E-03 0.  1.
    9900012    2    1    2    0    0 -0.18011455070E+02 -0.41477541114E+01 -0.30099646938E+01  0.72461647836E+02  0.70000101012E+02 0.  0.
         12    1    1    2    0    0  0.18011455070E+02  0.41477541114E+01  0.30099646938E+01  0.18726352164E+02  0.00000000000E+00 0. -1.
         11    1    3    3    0    0  0.85714923263E+01  0.12078122886E+02  0.15101863683E+02  0.21152253311E+02  0.51100000000E-03 0. -1.
        -11    1    3    3    0    0 -0.13077868194E+02  0.11128053139E+02 -0.36788155398E+01  0.17561260980E+02  0.51100000000E-03 0.  1.
        -12    1    3    3    0    0 -0.13505079203E+02 -0.27353930137E+02 -0.14433012837E+02  0.33748133545E+02  0.00000000000E+00 0.  1.
</event>
<event>
 7    1  0.2932741E-013  0.7246175E+02  0.7816164E-02  0.1226708E+00
        -11   -1    0    0    0    0  0.00000000000E+00  0.00000000000E+00  0.45593999997E+02  0.45594000000E+02  0.51100000000E-03 0. -1.
         11   -1    0    0    0    0 -0.00000000000E+00 -0.00000000000E+00 -0.45593999997E+02  0.45594000000E+02  0.51100000000E-03 0.  1.
    9900012    2    1    2    0    0 -0.16800924433E+02 -0.85957765280E+00 -0.82257209656E+01  0.72461750484E+02  0.70000234730E+02 0.  0.
         12    1    1    2    0    0  0.16800924433E+02  0.85957765280E+00  0.82257209656E+01  0.18726249516E+02  0.00000000000E+00 0. -1.
         11    1    3    3    0    0  0.97388560487E+00  0.39118297397E+01 -0.49302575396E+01  0.63685402371E+01  0.51100000000E-03 0. -1.
        -11    1    3    3    0    0 -0.23341720409E+01 -0.32992543384E+02 -0.66925551478E+01  0.33745319271E+02  0.51100000000E-03 0.  1.
         12    1    3    3    0    0 -0.15440637997E+02  0.28221135991E+02  0.33970917218E+01  0.32347890975E+02  0.00000000000E+00 0. -1.
</event>
<event>
 7    1  0.2932741E-013  0.7246161E+02  0.7816164E-02  0.1226708E+00
        -11   -1    0    0    0    0  0.00000000000E+00  0.00000000000E+00  0.45593999997E+02  0.45594000000E+02  0.51100000000E-03 0.  1.
         11   -1    0    0    0    0 -0.00000000000E+00 -0.00000000000E+00 -0.45593999997E+02  0.45594000000E+02  0.51100000000E-03 0. -1.
    9900012    2    1    2    0    0 -0.61768533133E+01 -0.17483608849E+02  0.26168048239E+01  0.72461607856E+02  0.70000048931E+02 0.  0.
         12    1    1    2    0    0  0.61768533133E+01  0.17483608849E+02 -0.26168048239E+01  0.18726392144E+02  0.00000000000E+00 0. -1.
         11    1    3    3    0    0 -0.12952390563E+02 -0.23306125778E+01 -0.11753199099E+02  0.17644655441E+02  0.51100000000E-03 0. -1.
        -11    1    3    3    0    0 -0.28522032128E+01  0.28531632206E+01  0.29265739580E+02  0.29542496796E+02  0.51100000000E-03 0.  1.
         12    1    3    3    0    0  0.96277404628E+01 -0.18006159492E+02 -0.14895735657E+02  0.25274455619E+02  0.00000000000E+00 0. -1.
</event>
<event>
 7    1  0.2932741E-013  0.7246148E+02  0.7816164E-02  0.1226708E+00
        -11   -1    0    0    0    0  0.00000000000E+00  0.00000000000E+00  0.45593999997E+02  0.45594000000E+02  0.51100000000E-03 0. -1.
         11   -1    0    0    0    0 -0.00000000000E+00 -0.00000000000E+00 -0.45593999997E+02  0.45594000000E+02  0.51100000000E-03 0.  1.
    9900012    2    1    2    0    0 -0.73707465407E+01 -0.48786047358E+01 -0.16509206707E+02  0.72461478838E+02  0.69999880861E+02 0.  0.
         12    1    1    2    0    0  0.73707465407E+01  0.48786047358E+01  0.16509206707E+02  0.18726521162E+02  0.00000000000E+00 0. -1.
         11    1    3    3    0    0 -0.11264408333E+02 -0.93178168313E+01  0.71604032143E+01  0.16278205676E+02  0.51100000000E-03 0. -1.
        -11    1    3    3    0    0 -0.15370676687E+02  0.30984295181E+01 -0.31624334562E+02  0.35298109072E+02  0.51100000000E-03 0.  1.
         12    1    3    3    0    0  0.19264338479E+02  0.13407825775E+01  0.79547246408E+01  0.20885164090E+02  0.00000000000E+00 0. -1.
</event>
<event>
 7    1  0.2932741E-013  0.7246157E+02  0.7816164E-02  0.1226708E+00
        -11   -1    0    0    0    0  0.00000000000E+00  0.00000000000E+00  0.45593999997E+02  0.45594000000E+02  0.51100000000E-03 0. -1.
         11   -1    0    0    0    0 -0.00000000000E+00 -0.00000000000E+00 -0.45593999997E+02  0.45594000000E+02  0.51100000000E-03 0.  1.
    9900012    2    1    2    0    0 -0.32119926606E+01 -0.94665586340E+01 -0.15834981257E+02  0.72461567861E+02  0.69999996831E+02 0.  0.
         12    1    1    2    0    0  0.32119926606E+01  0.94665586340E+01  0.15834981257E+02  0.18726432139E+02  0.00000000000E+00 0. -1.
         11    1    3    3    0    0 -0.99321939226E+01 -0.17715322756E+02 -0.32616241571E+02  0.38422654137E+02  0.51100000000E-03 0. -1.
        -11    1    3    3    0    0  0.11059362042E+02  0.13257784632E+02  0.14369332216E+01  0.17324639086E+02  0.51100000000E-03 0.  1.
        -12    1    3    3    0    0 -0.43391607802E+01 -0.50090205103E+01  0.15344327092E+02  0.16714274638E+02  0.00000000000E+00 0.  1.
</event>
<event>
 7    1  0.2932741E-013  0.7246150E+02  0.7816164E-02  0.1226708E+00
        -11   -1    0    0    0    0  0.00000000000E+00  0.00000000000E+00  0.45593999997E+02  0.45594000000E+02  0.51100000000E-03 0.  1.
         11   -1    0    0    0    0 -0.00000000000E+00 -0.00000000000E+00 -0.45593999997E+02  0.45594000000E+02  0.51100000000E-03 0. -1.
    9900012    2    1    2    0    0 -0.17687306710E+02 -0.38194556081E+01  0.48220940516E+01  0.72461504043E+02  0.69999913695E+02 0.  0.
         12    1    1    2    0    0  0.17687306710E+02  0.38194556081E+01 -0.48220940516E+01  0.18726495957E+02  0.00000000000E+00 0. -1.
         11    1    3    3    0    0 -0.24315159024E+02 -0.98299819919E+01  0.70069527847E+01  0.27146876282E+02  0.51100000000E-03 0. -1.
        -11    1    3    3    0    0  0.18985311875E+02 -0.19237953792E+01  0.13844165459E+02  0.23575495184E+02  0.51100000000E-03 0.  1.
        -12    1    3    3    0    0 -0.12357459561E+02  0.79343217630E+01 -0.16029024192E+02  0.21739132577E+02  0.00000000000E+00 0.  1.
</event>
<event>
 7    1  0.2932741E-013  0.7246164E+02  0.7816164E-02  0.1226708E+00
        -11   -1    0    0    0    0  0.00000000000E+00  0.00000000000E+00  0.45593999997E+02  0.45594000000E+02  0.51100000000E-03 0. -1.
         11   -1    0    0    0    0 -0.00000000000E+00 -0.00000000000E+00 -0.45593999997E+02  0.45594000000E+02  0.51100000000E-03 0.  1.
    9900012    2    1    2    0    0  0.61124689514E+01  0.17550448262E+02  0.23012777136E+01  0.72461644508E+02  0.70000096677E+02 0.  0.
         12    1    1    2    0    0 -0.61124689514E+01 -0.17550448262E+02 -0.23012777136E+01  0.18726355492E+02  0.00000000000E+00 0. -1.
         11    1    3    3    0    0  0.10658928467E+02 -0.13098852151E+02  0.24460387823E+01  0.17063873819E+02  0.51100000000E-03 0. -1.
        -11    1    3    3    0    0  0.17829046853E+02  0.25273287904E+02  0.61617690405E+01  0.31536984496E+02  0.51100000000E-03 0.  1.
         12    1    3    3    0    0 -0.22375506368E+02  0.53760125094E+01 -0.63065301092E+01  0.23860786193E+02  0.00000000000E+00 0. -1.
</event>
<event>
 7    1  0.2932741E-013  0.7246190E+02  0.7816164E-02  0.1226707E+00
        -11   -1    0    0    0    0  0.00000000000E+00  0.00000000000E+00  0.45593999997E+02  0.45594000000E+02  0.51100000000E-03 0. -1.
         11   -1    0    0    0    0 -0.00000000000E+00 -0.00000000000E+00 -0.45593999997E+02  0.45594000000E+02  0.51100000000E-03 0.  1.
    9900012    2    1    2    0    0  0.14889331373E+02 -0.21050565448E+01 -0.11159899068E+02  0.72461900593E+02  0.70000430274E+02 0.  0.
         12    1    1    2    0    0 -0.14889331373E+02  0.21050565448E+01  0.11159899068E+02  0.18726099407E+02  0.00000000000E+00 0. -1.
         11    1    3    3    0    0 -0.76042884995E+01 -0.42394551957E+01  0.79177732556E+01  0.11768148432E+02  0.51100000000E-03 0. -1.
        -11    1    3    3    0    0 -0.13589559728E+02 -0.12441429913E+02 -0.89402899049E+01  0.20479113647E+02  0.51100000000E-03 0.  1.
        -12    1    3    3    0    0  0.36083179601E+02  0.14575828564E+02 -0.10137382419E+02  0.40214638514E+02  0.00000000000E+00 0.  1.
</event>
<event>
 7    1  0.2932741E-013  0.7246157E+02  0.7816164E-02  0.1226708E+00
        -11   -1    0    0    0    0  0.00000000000E+00  0.00000000000E+00  0.45593999997E+02  0.45594000000E+02  0.51100000000E-03 0.  1.
         11   -1    0    0    0    0 -0.00000000000E+00 -0.00000000000E+00 -0.45593999997E+02  0.45594000000E+02  0.51100000000E-03 0. -1.
    9900012    2    1    2    0    0 -0.17907757917E+02 -0.53347427553E+01  0.12377055344E+01  0.72461569778E+02  0.69999999328E+02 0.  0.
         12    1    1    2    0    0  0.17907757917E+02  0.53347427553E+01 -0.12377055344E+01  0.18726430222E+02  0.00000000000E+00 0. -1.
         11    1    3    3    0    0 -0.23697320600E+02  0.69082083021E+00  0.40179230205E+01  0.24045455760E+02  0.51100000000E-03 0. -1.
        -11    1    3    3    0    0 -0.71757165863E+01  0.18708957700E+02  0.17914665104E+01  0.20117787136E+02  0.51100000000E-03 0.  1.
         12    1    3    3    0    0  0.12965279270E+02 -0.24734521285E+02 -0.45716839965E+01  0.28298326882E+02  0.00000000000E+00 0. -1.
</event>
<event>
 7    1  0.2932741E-013  0.7246160E+02  0.7816164E-02  0.1226708E+00
        -11   -1    0    0    0    0  0.00000000000E+00  0.00000000000E+00  0.45593999997E+02  0.45594000000E+02  0.51100000000E-03 0.  1.
         11   -1    0    0    0    0 -0.00000000000E+00 -0.00000000000E+00 -0.45593999997E+02  0.45594000000E+02  0.51100000000E-03 0. -1.
    9900012    2    1    2    0    0  0.12160354347E+01 -0.17827723942E+02 -0.56010281545E+01  0.72461601534E+02  0.70000040695E+02 0.  0.
         12    1    1    2    0    0 -0.12160354347E+01  0.17827723942E+02  0.56010281545E+01  0.18726398466E+02  0.00000000000E+00 0. -1.
         11    1    3    3    0    0  0.89930207674E+01 -0.39854987041E+01 -0.35067123376E+01  0.10442971518E+02  0.51100000000E-03 0. -1.
        -11    1    3    3    0    0  0.17863278079E+02  0.51492332682E+01  0.16697619774E+02  0.24988433592E+02  0.51100000000E-03 0.  1.
         12    1    3    3    0    0 -0.25640263412E+02 -0.18991458506E+02 -0.18791935591E+02  0.37030196425E+02  0.00000000000E+00 0. -1.
</event>
<event>
 7    1  0.2932741E-013  0.7246157E+02  0.7816164E-02  0.1226708E+00
        -11   -1    0    0    0    0  0.00000000000E+00  0.00000000000E+00  0.45593999997E+02  0.45594000000E+02  0.51100000000E-03 0.  1.
         11   -1    0    0    0    0 -0.00000000000E+00 -0.00000000000E+00 -0.45593999997E+02  0.45594000000E+02  0.51100000000E-03 0. -1.
    9900012    2    1    2    0    0  0.17552520756E+02  0.61012101321E+01  0.23158764377E+01  0.72461573923E+02  0.70000004727E+02 0.  0.
         12    1    1    2    0    0 -0.17552520756E+02 -0.61012101321E+01 -0.23158764377E+01  0.18726426077E+02  0.00000000000E+00 0. -1.
         11    1    3    3    0    0  0.32037629624E+01 -0.34101656636E+01 -0.21636641140E+01  0.51550722237E+01  0.51100000000E-03 0. -1.
        -11    1    3    3    0    0 -0.20871060738E+02 -0.86426416742E+01  0.13972719646E+02  0.26561877305E+02  0.51100000000E-03 0.  1.
         12    1    3    3    0    0  0.35219818531E+02  0.18154017470E+02 -0.94931790941E+01  0.40744624394E+02  0.00000000000E+00 0. -1.
</event>
<event>
 7    1  0.2932741E-013  0.7246157E+02  0.7816164E-02  0.1226708E+00
        -11   -1    0    0    0    0  0.00000000000E+00  0.00000000000E+00  0.45593999997E+02  0.45594000000E+02  0.51100000000E-03 0.  1.
         11   -1    0    0    0    0 -0.00000000000E+00 -0.00000000000E+00 -0.45593999997E+02  0.45594000000E+02  0.51100000000E-03 0. -1.
    9900012    2    1    2    0    0  0.97509767402E+01 -0.15961088178E+02 -0.91730940827E+00  0.72461565749E+02  0.69999994079E+02 0.  0.
         12    1    1    2    0    0 -0.97509767402E+01  0.15961088178E+02  0.91730940827E+00  0.18726434251E+02  0.00000000000E+00 0. -1.
         11    1    3    3    0    0 -0.24900542010E+01 -0.94843459178E+01 -0.25537564864E+01  0.10132860399E+02  0.51100000000E-03 0. -1.
        -11    1    3    3    0    0  0.24516152878E+02 -0.25419001641E+02  0.12258661617E+02  0.37382377951E+02  0.51100000000E-03 0.  1.
         12    1    3    3    0    0 -0.12275121937E+02  0.18942259381E+02 -0.10622214539E+02  0.24946327400E+02  0.00000000000E+00 0. -1.
</event>
<event>
 7    1  0.2932741E-013  0.7246157E+02  0.7816164E-02  0.1226708E+00
        -11   -1    0    0    0    0  0.00000000000E+00  0.00000000000E+00  0.45593999997E+02  0.45594000000E+02  0.51100000000E-03 0. -1.
         11   -1    0    0    0    0 -0.00000000000E+00 -0.00000000000E+00 -0.45593999997E+02  0.45594000000E+02  0.51100000000E-03 0.  1.
    9900012    2    1    2    0    0 -0.11359096418E+02 -0.14866727251E+02  0.79402408626E+00  0.72461571488E+02  0.70000001555E+02 0.  0.
         12    1    1    2    0    0  0.11359096418E+02  0.14866727251E+02 -0.79402408626E+00  0.18726428512E+02  0.00000000000E+00 0. -1.
         11    1    3    3    0    0 -0.20980274098E+02 -0.13092162080E+02  0.27140775228E+02  0.36717819780E+02  0.51100000000E-03 0. -1.
        -11    1    3    3    0    0  0.19423896875E+01 -0.11257245162E+02 -0.90383944672E+01  0.14566777995E+02  0.51100000000E-03 0.  1.
        -12    1    3    3    0    0  0.76787879922E+01  0.94826799914E+01 -0.17308356675E+02  0.21176973713E+02  0.00000000000E+00 0.  1.
</event>
<event>
 7    1  0.2932741E-013  0.7246155E+02  0.7816164E-02  0.1226708E+00
        -11   -1    0    0    0    0  0.00000000000E+00  0.00000000000E+00  0.45593999997E+02  0.45594000000E+02  0.51100000000E-03 0.  1.
         11   -1    0    0    0    0 -0.00000000000E+00 -0.00000000000E+00 -0.45593999997E+02  0.45594000000E+02  0.51100000000E-03 0. -1.
    9900012    2    1    2    0    0 -0.64739579523E+01  0.17571093167E+02 -0.15613067755E+00  0.72461552835E+02  0.69999977256E+02 0.  0.
         12    1    1    2    0    0  0.64739579523E+01 -0.17571093167E+02  0.15613067755E+00  0.18726447165E+02  0.00000000000E+00 0. -1.
         11    1    3    3    0    0  0.26428233150E+01 -0.11981167377E+02 -0.17095153877E+02  0.21042271102E+02  0.51100000000E-03 0. -1.
        -11    1    3    3    0    0  0.12843386968E+02  0.14568596057E+02  0.15406405495E+02  0.24790197870E+02  0.51100000000E-03 0.  1.
        -12    1    3    3    0    0 -0.21960168236E+02  0.14983664487E+02  0.15326177046E+01  0.26629083864E+02  0.00000000000E+00 0.  1.
</event>
<event>
 7    1  0.2932741E-013  0.7246156E+02  0.7816164E-02  0.1226708E+00
        -11   -1    0    0    0    0  0.00000000000E+00  0.00000000000E+00  0.45593999997E+02  0.45594000000E+02  0.51100000000E-03 0. -1.
         11   -1    0    0    0    0 -0.00000000000E+00 -0.00000000000E+00 -0.45593999997E+02  0.45594000000E+02  0.51100000000E-03 0.  1.
    9900012    2    1    2    0    0  0.11762735730E+02 -0.96711282281E+01 -0.10898947531E+02  0.72461555321E+02  0.69999980494E+02 0.  0.
         12    1    1    2    0    0 -0.11762735730E+02  0.96711282281E+01  0.10898947531E+02  0.18726444679E+02  0.00000000000E+00 0. -1.
         11    1    3    3    0    0 -0.12441131335E+02  0.64598568737E+01  0.10518765850E+01  0.14057664967E+02  0.51100000000E-03 0. -1.
        -11    1    3    3    0    0  0.22865700220E+01  0.59279750661E+00 -0.26926529771E+02  0.27029942973E+02  0.51100000000E-03 0.  1.
         12    1    3    3    0    0  0.21917297043E+02 -0.16723782608E+02  0.14975705655E+02  0.31373947381E+02  0.00000000000E+00 0. -1.
</event>
<event>
 7    1  0.2932741E-013  0.7246160E+02  0.7816164E-02  0.1226708E+00
        -11   -1    0    0    0    0  0.00000000000E+00  0.00000000000E+00  0.45593999997E+02  0.45594000000E+02  0.51100000000E-03 0. -1.
         11   -1    0    0    0    0 -0.00000000000E+00 -0.00000000000E+00 -0.45593999997E+02  0.45594000000E+02  0.51100000000E-03 0.  1.
    9900012    2    1    2    0    0  0.83247737473E+01  0.13821583889E+02  0.95047380969E+01  0.72461599239E+02  0.70000037706E+02 0.  0.
         12    1    1    2    0    0 -0.83247737473E+01 -0.13821583889E+02 -0.95047380969E+01  0.18726400761E+02  0.00000000000E+00 0. -1.
         11    1    3    3    0    0 -0.84177880135E+01  0.81139670745E+01  0.13492286991E+02  0.17853218904E+02  0.51100000000E-03 0. -1.
        -11    1    3    3    0    0  0.32758751373E+02 -0.70466473318E+01  0.10467190174E+01  0.33524418729E+02  0.51100000000E-03 0.  1.
         12    1    3    3    0    0 -0.16016189612E+02  0.12754264147E+02 -0.50342679119E+01  0.21083961606E+02  0.00000000000E+00 0. -1.
</event>
<event>
 7    1  0.2932741E-013  0.7246153E+02  0.7816164E-02  0.1226708E+00
        -11   -1    0    0    0    0  0.00000000000E+00  0.00000000000E+00  0.45593999997E+02  0.45594000000E+02  0.51100000000E-03 0. -1.
         11   -1    0    0    0    0 -0.00000000000E+00 -0.00000000000E+00 -0.45593999997E+02  0.45594000000E+02  0.51100000000E-03 0.  1.
    9900012    2    1    2    0    0 -0.14872990247E+02 -0.89183148632E+01 -0.70667187560E+01  0.72461529621E+02  0.69999947015E+02 0.  0.
         12    1    1    2    0    0  0.14872990247E+02  0.89183148632E+01  0.70667187560E+01  0.18726470379E+02  0.00000000000E+00 0. -1.
         11    1    3    3    0    0  0.16871544511E+01  0.76329904502E+01  0.24678308229E+02  0.25886829289E+02  0.51100000000E-03 0. -1.
        -11    1    3    3    0    0 -0.89423205981E+01  0.95373941002E+00  0.60316241465E+00  0.90132414647E+01  0.51100000000E-03 0.  1.
        -12    1    3    3    0    0 -0.76178241004E+01 -0.17505044723E+02 -0.32348189399E+02  0.37561458867E+02  0.00000000000E+00 0.  1.
</event>
<event>
 7    1  0.2932741E-013  0.7246160E+02  0.7816164E-02  0.1226708E+00
        -11   -1    0    0    0    0  0.00000000000E+00  0.00000000000E+00  0.45593999997E+02  0.45594000000E+02  0.51100000000E-03 0. -1.
         11   -1    0    0    0    0 -0.00000000000E+00 -0.00000000000E+00 -0.45593999997E+02  0.45594000000E+02  0.51100000000E-03 0.  1.
    9900012    2    1    2    0    0 -0.47541330183E+01 -0.13173913385E+02 -0.12430772253E+02  0.72461604900E+02  0.70000045080E+02 0.  0.
         12    1    1    2    0    0  0.47541330183E+01  0.13173913385E+02  0.12430772253E+02  0.18726395100E+02  0.00000000000E+00 0. -1.
         11    1    3    3    0    0  0.63257914276E+01 -0.74796446960E+01 -0.12805780558E+02  0.16122925849E+02  0.51100000000E-03 0. -1.
        -11    1    3    3    0    0 -0.12132218220E+02  0.32173899381E+01 -0.25787553451E+02  0.28679962173E+02  0.51100000000E-03 0.  1.
         12    1    3    3    0    0  0.10522937744E+01 -0.89116586272E+01  0.26162561757E+02  0.27658716878E+02  0.00000000000E+00 0. -1.
</event>
<event>
 7    1  0.2932741E-013  0.7246156E+02  0.7816164E-02  0.1226708E+00
        -11   -1    0    0    0    0  0.00000000000E+00  0.00000000000E+00  0.45593999997E+02  0.45594000000E+02  0.51100000000E-03 0. -1.
         11   -1    0    0    0    0 -0.00000000000E+00 -0.00000000000E+00 -0.45593999997E+02  0.45594000000E+02  0.51100000000E-03 0.  1.
    9900012    2    1    2    0    0 -0.12204920390E+02  0.37773019971E+01  0.13691287698E+02  0.72461562780E+02  0.69999990212E+02 0.  0.
         12    1    1    2    0    0  0.12204920390E+02 -0.37773019971E+01 -0.13691287698E+02  0.18726437220E+02  0.00000000000E+00 0. -1.
         11    1    3    3    0    0  0.11660700220E+02 -0.23717260548E+01  0.19635170112E+02  0.22959462530E+02  0.51100000000E-03 0. -1.
        -11    1    3    3    0    0 -0.39655832866E+01 -0.34663634081E+01  0.16908954415E+02  0.17710287003E+02  0.51100000000E-03 0.  1.
        -12    1    3    3    0    0 -0.19900037324E+02  0.96153914600E+01 -0.22852836828E+02  0.31791813247E+02  0.00000000000E+00 0.  1.
</event>
<event>
 7    1  0.2932741E-013  0.7246153E+02  0.7816164E-02  0.1226708E+00
        -11   -1    0    0    0    0  0.00000000000E+00  0.00000000000E+00  0.45593999997E+02  0.45594000000E+02  0.51100000000E-03 0.  1.
         11   -1    0    0    0    0 -0.00000000000E+00 -0.00000000000E+00 -0.45593999997E+02  0.45594000000E+02  0.51100000000E-03 0. -1.
    9900012    2    1    2    0    0 -0.12385906284E+02  0.23251325670E+01  0.13851483025E+02  0.72461534825E+02  0.69999953795E+02 0.  0.
         12    1    1    2    0    0  0.12385906284E+02 -0.23251325670E+01 -0.13851483025E+02  0.18726465175E+02  0.00000000000E+00 0. -1.
         11    1    3    3    0    0  0.35647851048E+01  0.10478002677E+02  0.34648726021E+01  0.11597481423E+02  0.51100000000E-03 0. -1.
        -11    1    3    3    0    0 -0.84036449021E+01 -0.74324245737E+01  0.34136873975E+02  0.35933109352E+02  0.51100000000E-03 0.  1.
        -12    1    3    3    0    0 -0.75470464870E+01 -0.72044553653E+00 -0.23750263552E+02  0.24930944050E+02  0.00000000000E+00 0.  1.
</event>
<event>
 7    1  0.2932741E-013  0.7246177E+02  0.7816164E-02  0.1226707E+00
        -11   -1    0    0    0    0  0.00000000000E+00  0.00000000000E+00  0.45593999997E+02  0.45594000000E+02  0.51100000000E-03 0. -1.
         11   -1    0    0    0    0 -0.00000000000E+00 -0.00000000000E+00 -0.45593999997E+02  0.45594000000E+02  0.51100000000E-03 0.  1.
    9900012    2    1    2    0    0 -0.16184121474E+02 -0.41471580575E+01 -0.84585514332E+01  0.72461767059E+02  0.70000256322E+02 0.  0.
         12    1    1    2    0    0  0.16184121474E+02  0.41471580575E+01  0.84585514332E+01  0.18726232941E+02  0.00000000000E+00 0. -1.
         11    1    3    3    0    0 -0.12555440047E+02 -0.10821523071E+02  0.25810496811E+02  0.30674520082E+02  0.51100000000E-03 0. -1.
        -11    1    3    3    0    0  0.12439931222E+01 -0.37281071597E+01  0.15093326802E+01  0.42100341190E+01  0.51100000000E-03 0.  1.
         12    1    3    3    0    0 -0.48726745490E+01  0.10402472174E+02 -0.35778380925E+02  0.37577212858E+02  0.00000000000E+00 0. -1.
</event>
<event>
 7    1  0.2932741E-013  0.7246157E+02  0.7816164E-02  0.1226708E+00
        -11   -1    0    0    0    0  0.00000000000E+00  0.00000000000E+00  0.45593999997E+02  0.45594000000E+02  0.51100000000E-03 0.  1.
         11   -1    0    0    0    0 -0.00000000000E+00 -0.00000000000E+00 -0.45593999997E+02  0.45594000000E+02  0.51100000000E-03 0. -1.
    9900012    2    1    2    0    0  0.27348430337E+01  0.53947352343E+01  0.17722773927E+02  0.72461568136E+02  0.69999997189E+02 0.  0.
         12    1    1    2    0    0 -0.27348430337E+01 -0.53947352343E+01 -0.17722773927E+02  0.18726431864E+02  0.00000000000E+00 0. -1.
         11    1    3    3    0    0  0.29912543113E+01 -0.15538115816E+02  0.29750078325E+02  0.33696406427E+02  0.51100000000E-03 0. -1.
        -11    1    3    3    0    0  0.78123352259E+01 -0.25390597569E+01  0.40846787554E+01  0.91740943383E+01  0.51100000000E-03 0.  1.
        -12    1    3    3    0    0 -0.80687465035E+01  0.23471910807E+02 -0.16111983153E+02  0.29591067372E+02  0.00000000000E+00 0.  1.
</event>
<event>
 7    1  0.2932741E-013  0.7246153E+02  0.7816164E-02  0.1226708E+00
        -11   -1    0    0    0    0  0.00000000000E+00  0.00000000000E+00  0.45593999997E+02  0.45594000000E+02  0.51100000000E-03 0.  1.
         11   -1    0    0    0    0 -0.00000000000E+00 -0.00000000000E+00 -0.45593999997E+02  0.45594000000E+02  0.51100000000E-03 0. -1.
    9900012    2    1    2    0    0 -0.16171716389E+02 -0.40562540230E+01  0.85266199100E+01  0.72461525299E+02  0.69999941385E+02 0.  0.
         12    1    1    2    0    0  0.16171716389E+02  0.40562540230E+01 -0.85266199100E+01  0.18726474701E+02  0.00000000000E+00 0. -1.
         11    1    3    3    0    0 -0.10134199280E+02  0.29826007164E+02  0.22829530332E+01  0.31583295794E+02  0.51100000000E-03 0. -1.
        -11    1    3    3    0    0 -0.28482960979E+00 -0.81874153674E+00 -0.53135035321E+01  0.53837520056E+01  0.51100000000E-03 0.  1.
        -12    1    3    3    0    0 -0.57526874992E+01 -0.33063519650E+02  0.11557170409E+02  0.35494477500E+02  0.00000000000E+00 0.  1.
</event>
<event>
 7    1  0.2932741E-013  0.7246157E+02  0.7816164E-02  0.1226708E+00
        -11   -1    0    0    0    0  0.00000000000E+00  0.00000000000E+00  0.45593999997E+02  0.45594000000E+02  0.51100000000E-03 0. -1.
         11   -1    0    0    0    0 -0.00000000000E+00 -0.00000000000E+00 -0.45593999997E+02  0.45594000000E+02  0.51100000000E-03 0.  1.
    9900012    2    1    2    0    0  0.17166179237E+02 -0.74822318791E+01 -0.13333129220E+00  0.72461567326E+02  0.69999996133E+02 0.  0.
         12    1    1    2    0    0 -0.17166179237E+02  0.74822318791E+01  0.13333129220E+00  0.18726432674E+02  0.00000000000E+00 0. -1.
         11    1    3    3    0    0 -0.33861454912E+01 -0.56939489061E+01 -0.73790076557E+01  0.99164907945E+01  0.51100000000E-03 0. -1.
        -11    1    3    3    0    0  0.37179297986E+02 -0.10669206714E+02 -0.64910585631E+01  0.39220734468E+02  0.51100000000E-03 0.  1.
         12    1    3    3    0    0 -0.16626973259E+02  0.88809237410E+01  0.13736734927E+02  0.23324342063E+02  0.00000000000E+00 0. -1.
</event>
<event>
 7    1  0.2932741E-013  0.7246160E+02  0.7816164E-02  0.1226708E+00
        -11   -1    0    0    0    0  0.00000000000E+00  0.00000000000E+00  0.45593999997E+02  0.45594000000E+02  0.51100000000E-03 0. -1.
         11   -1    0    0    0    0 -0.00000000000E+00 -0.00000000000E+00 -0.45593999997E+02  0.45594000000E+02  0.51100000000E-03 0.  1.
    9900012    2    1    2    0    0 -0.11855159744E+02 -0.14274822247E+02  0.25224396368E+01  0.72461599800E+02  0.70000038437E+02 0.  0.
         12    1    1    2    0    0  0.11855159744E+02  0.14274822247E+02 -0.25224396368E+01  0.18726400200E+02  0.00000000000E+00 0. -1.
         11    1    3    3    0    0  0.58481685535E+00 -0.97568405197E+01 -0.10710298537E+02  0.14499946300E+02  0.51100000000E-03 0. -1.
        -11    1    3    3    0    0  0.12892641930E+02 -0.42145250573E+01 -0.14868728318E+02  0.20126140202E+02  0.51100000000E-03 0.  1.
         12    1    3    3    0    0 -0.25332618529E+02 -0.30345666997E+00  0.28101466492E+02  0.37835513298E+02  0.00000000000E+00 0. -1.
</event>
<event>
 7    1  0.2932741E-013  0.7246153E+02  0.7816164E-02  0.1226708E+00
        -11   -1    0    0    0    0  0.00000000000E+00  0.00000000000E+00  0.45593999997E+02  0.45594000000E+02  0.51100000000E-03 0. -1.
         11   -1    0    0    0    0 -0.00000000000E+00 -0.00000000000E+00 -0.45593999997E+02  0.45594000000E+02  0.51100000000E-03 0.  1.
    9900012    2    1    2    0    0  0.55899629989E+00 -0.39854887789E+01 -0.18288904976E+02  0.72461530955E+02  0.69999948753E+02 0.  0.
         12    1    1    2    0    0 -0.55899629989E+00  0.39854887789E+01  0.18288904976E+02  0.18726469045E+02  0.00000000000E+00 0. -1.
         11    1    3    3    0    0  0.19572581380E+02 -0.14024383843E+02  0.36970934745E+00  0.24081236873E+02  0.51100000000E-03 0. -1.
        -11    1    3    3    0    0  0.72908874479E+01  0.51005683286E+01  0.69864988701E+01  0.11313001537E+02  0.51100000000E-03 0.  1.
        -12    1    3    3    0    0 -0.26304472528E+02  0.49383267354E+01 -0.25645113194E+02  0.37067292545E+02  0.00000000000E+00 0.  1.
</event>
<event>
 7    1  0.2932741E-013  0.7246141E+02  0.7816164E-02  0.1226708E+00
        -11   -1    0    0    0    0  0.00000000000E+00  0.00000000000E+00  0.45593999997E+02  0.45594000000E+02  0.51100000000E-03 0. -1.
         11   -1    0    0    0    0 -0.00000000000E+00 -0.00000000000E+00 -0.45593999997E+02  0.45594000000E+02  0.51100000000E-03 0.  1.
    9900012    2    1    2    0    0  0.64157259442E+01 -0.42902770198E+01 -0.17062159659E+02  0.72461406382E+02  0.69999786474E+02 0.  0.
         12    1    1    2    0    0 -0.64157259442E+01  0.42902770198E+01  0.17062159659E+02  0.18726593618E+02  0.00000000000E+00 0. -1.
         11    1    3    3    0    0 -0.62187683169E+01  0.52560798231E+01 -0.86152583821E+01  0.11854203125E+02  0.51100000000E-03 0. -1.
        -11    1    3    3    0    0 -0.20263023053E+02 -0.87133193538E+01 -0.15491414273E+02  0.26953588886E+02  0.51100000000E-03 0.  1.
         12    1    3    3    0    0  0.32897517314E+02 -0.83303748915E+00  0.70445129961E+01  0.33653614371E+02  0.00000000000E+00 0. -1.
</event>
<event>
 7    1  0.2932741E-013  0.7246120E+02  0.7816164E-02  0.1226709E+00
        -11   -1    0    0    0    0  0.00000000000E+00  0.00000000000E+00  0.45593999997E+02  0.45594000000E+02  0.51100000000E-03 0.  1.
         11   -1    0    0    0    0 -0.00000000000E+00 -0.00000000000E+00 -0.45593999997E+02  0.45594000000E+02  0.51100000000E-03 0. -1.
    9900012    2    1    2    0    0  0.36960369022E+01  0.32240997950E+01  0.18073111328E+02  0.72461204723E+02  0.69999523774E+02 0.  0.
         12    1    1    2    0    0 -0.36960369022E+01 -0.32240997950E+01 -0.18073111328E+02  0.18726795277E+02  0.00000000000E+00 0. -1.
         11    1    3    3    0    0 -0.10818459079E+02  0.15277298957E+02  0.11605069911E+02  0.22025271125E+02  0.51100000000E-03 0. -1.
        -11    1    3    3    0    0  0.10090960331E+02  0.16428801397E+02 -0.41445437111E+01  0.19720807250E+02  0.51100000000E-03 0.  1.
        -12    1    3    3    0    0  0.44235356496E+01 -0.28482000559E+02  0.10612585128E+02  0.30715126348E+02  0.00000000000E+00 0.  1.
</event>
<event>
 7    1  0.2932741E-013  0.7246153E+02  0.7816164E-02  0.1226708E+00
        -11   -1    0    0    0    0  0.00000000000E+00  0.00000000000E+00  0.45593999997E+02  0.45594000000E+02  0.51100000000E-03 0.  1.
         11   -1    0    0    0    0 -0.00000000000E+00 -0.00000000000E+00 -0.45593999997E+02  0.45594000000E+02  0.51100000000E-03 0. -1.
    9900012    2    1    2    0    0  0.16247717665E+02  0.81470014694E+01  0.45076267217E+01  0.72461530474E+02  0.69999948126E+02 0.  0.
         12    1    1    2    0    0 -0.16247717665E+02 -0.81470014694E+01 -0.45076267217E+01  0.18726469526E+02  0.00000000000E+00 0. -1.
         11    1    3    3    0    0 -0.85159771225E+01  0.24010076763E+02 -0.84061720129E+01  0.26826654296E+02  0.51100000000E-03 0. -1.
        -11    1    3    3    0    0 -0.65021937680E+01 -0.10376383406E+00  0.79513038023E+01  0.10271928891E+02  0.51100000000E-03 0.  1.
        -12    1    3    3    0    0  0.31265888555E+02 -0.15759311460E+02  0.49624949323E+01  0.35362947287E+02  0.00000000000E+00 0.  1.
</event>
<event>
 7    1  0.2932741E-013  0.7246157E+02  0.7816164E-02  0.1226708E+00
        -11   -1    0    0    0    0  0.00000000000E+00  0.00000000000E+00  0.45593999997E+02  0.45594000000E+02  0.51100000000E-03 0.  1.
         11   -1    0    0    0    0 -0.00000000000E+00 -0.00000000000E+00 -0.45593999997E+02  0.45594000000E+02  0.51100000000E-03 0. -1.
    9900012    2    1    2    0    0 -0.48576323698E+01  0.28567579997E+01  0.17858376811E+02  0.72461567322E+02  0.69999996128E+02 0.  0.
         12    1    1    2    0    0  0.48576323698E+01 -0.28567579997E+01 -0.17858376811E+02  0.18726432678E+02  0.00000000000E+00 0. -1.
         11    1    3    3    0    0  0.15527623706E+02 -0.99621539146E+01 -0.43097566114E+00  0.18453654079E+02  0.51100000000E-03 0. -1.
        -11    1    3    3    0    0 -0.15342977333E+01 -0.13696757191E+02  0.16395939172E+02  0.21419198134E+02  0.51100000000E-03 0.  1.
        -12    1    3    3    0    0 -0.18850958343E+02  0.26515669106E+02  0.18934133004E+01  0.32588715109E+02  0.00000000000E+00 0.  1.
</event>
<event>
 7    1  0.2932741E-013  0.7246143E+02  0.7816164E-02  0.1226708E+00
        -11   -1    0    0    0    0  0.00000000000E+00  0.00000000000E+00  0.45593999997E+02  0.45594000000E+02  0.51100000000E-03 0.  1.
         11   -1    0    0    0    0 -0.00000000000E+00 -0.00000000000E+00 -0.45593999997E+02  0.45594000000E+02  0.51100000000E-03 0. -1.
    9900012    2    1    2    0    0 -0.17502041934E+02 -0.51416778236E+01 -0.42339122889E+01  0.72461432349E+02  0.69999820301E+02 0.  0.
         12    1    1    2    0    0  0.17502041934E+02  0.51416778236E+01  0.42339122889E+01  0.18726567651E+02  0.00000000000E+00 0. -1.
         11    1    3    3    0    0 -0.52315013088E+01 -0.14957703623E+02 -0.47755680075E+01  0.16550152678E+02  0.51100000000E-03 0. -1.
        -11    1    3    3    0    0 -0.30093648985E+02 -0.30829711955E+01 -0.95267953557E+01  0.31715804430E+02  0.51100000000E-03 0.  1.
         12    1    3    3    0    0  0.17823108360E+02  0.12898996995E+02  0.10068451074E+02  0.24195475241E+02  0.00000000000E+00 0. -1.
</event>
<event>
 7    1  0.2932741E-013  0.7246154E+02  0.7816164E-02  0.1226708E+00
        -11   -1    0    0    0    0  0.00000000000E+00  0.00000000000E+00  0.45593999997E+02  0.45594000000E+02  0.51100000000E-03 0.  1.
         11   -1    0    0    0    0 -0.00000000000E+00 -0.00000000000E+00 -0.45593999997E+02  0.45594000000E+02  0.51100000000E-03 0. -1.
    9900012    2    1    2    0    0 -0.16735706496E+02  0.80578481051E+01  0.23806457730E+01  0.72461541117E+02  0.69999961991E+02 0.  0.
         12    1    1    2    0    0  0.16735706496E+02 -0.80578481051E+01 -0.23806457730E+01  0.18726458883E+02  0.00000000000E+00 0. -1.
         11    1    3    3    0    0 -0.24464474258E+02 -0.10695144551E+01  0.22082519830E+02  0.32974111727E+02  0.51100000000E-03 0. -1.
        -11    1    3    3    0    0  0.44826735879E+01 -0.71129022088E+01  0.49742260783E+01  0.97688620456E+01  0.51100000000E-03 0.  1.
         12    1    3    3    0    0  0.32460941747E+01  0.16240264769E+02 -0.24676100135E+02  0.29718567345E+02  0.00000000000E+00 0. -1.
</event>
<event>
 7    1  0.2932741E-013  0.7246158E+02  0.7816164E-02  0.1226708E+00
        -11   -1    0    0    0    0  0.00000000000E+00  0.00000000000E+00  0.45593999997E+02  0.45594000000E+02  0.51100000000E-03 0. -1.
         11   -1    0    0    0    0 -0.00000000000E+00 -0.00000000000E+00 -0.45593999997E+02  0.45594000000E+02  0.51100000000E-03 0.  1.
    9900012    2    1    2    0    0  0.64721923489E+01 -0.25408591665E+01 -0.17387741798E+02  0.72461580055E+02  0.70000012715E+02 0.  0.
         12    1    1    2    0    0 -0.64721923489E+01  0.25408591665E+01  0.17387741798E+02  0.18726419945E+02  0.00000000000E+00 0. -1.
         11    1    3    3    0    0 -0.26290945405E+01  0.18868848338E+02 -0.70588319316E+01  0.20316807924E+02  0.51100000000E-03 0.  1.
        -11    1    3    3    0    0  0.27318641337E+02 -0.81783686851E+01 -0.43248430601E+01  0.28842644584E+02  0.51100000000E-03 0. -1.
         12    1    3    3    0    0 -0.18217354447E+02 -0.13231338820E+02 -0.60040668065E+01  0.23302127547E+02  0.00000000000E+00 0. -1.
</event>
<event>
 7    1  0.2932741E-013  0.7246148E+02  0.7816164E-02  0.1226708E+00
        -11   -1    0    0    0    0  0.00000000000E+00  0.00000000000E+00  0.45593999997E+02  0.45594000000E+02  0.51100000000E-03 0. -1.
         11   -1    0    0    0    0 -0.00000000000E+00 -0.00000000000E+00 -0.45593999997E+02  0.45594000000E+02  0.51100000000E-03 0.  1.
    9900012    2    1    2    0    0  0.82463387645E+01 -0.13579603593E+02 -0.99133674790E+01  0.72461478926E+02  0.69999880976E+02 0.  0.
         12    1    1    2    0    0 -0.82463387645E+01  0.13579603593E+02  0.99133674790E+01  0.18726521074E+02  0.00000000000E+00 0. -1.
         11    1    3    3    0    0  0.59545292245E+01  0.13652706394E+01  0.40576153397E+01  0.73338001548E+01  0.51100000000E-03 0. -1.
        -11    1    3    3    0    0  0.31288514822E+02 -0.78917151802E+00 -0.56473194855E+01  0.31803870348E+02  0.51100000000E-03 0.  1.
         12    1    3    3    0    0 -0.28996705282E+02 -0.14155702714E+02 -0.83236633333E+01  0.33323808423E+02  0.00000000000E+00 0. -1.
</event>
<event>
 7    1  0.2932741E-013  0.7246152E+02  0.7816164E-02  0.1226708E+00
        -11   -1    0    0    0    0  0.00000000000E+00  0.00000000000E+00  0.45593999997E+02  0.45594000000E+02  0.51100000000E-03 0.  1.
         11   -1    0    0    0    0 -0.00000000000E+00 -0.00000000000E+00 -0.45593999997E+02  0.45594000000E+02  0.51100000000E-03 0. -1.
    9900012    2    1    2    0    0 -0.15433473182E+02  0.42546155577E+01  0.97153062015E+01  0.72461520817E+02  0.69999935546E+02 0.  0.
         12    1    1    2    0    0  0.15433473182E+02 -0.42546155577E+01 -0.97153062015E+01  0.18726479183E+02  0.00000000000E+00 0. -1.
         11    1    3    3    0    0  0.46033170406E+01 -0.26898342470E+02 -0.47381483531E+01  0.27697678702E+02  0.51100000000E-03 0. -1.
        -11    1    3    3    0    0 -0.12900022326E+02  0.29208527832E+01  0.38874325497E+01  0.13786010630E+02  0.51100000000E-03 0.  1.
        -12    1    3    3    0    0 -0.71367678967E+01  0.28232105244E+02  0.10566022005E+02  0.30977831485E+02  0.00000000000E+00 0.  1.
</event>
<event>
 7    1  0.2932741E-013  0.7246148E+02  0.7816164E-02  0.1226708E+00
        -11   -1    0    0    0    0  0.00000000000E+00  0.00000000000E+00  0.45593999997E+02  0.45594000000E+02  0.51100000000E-03 0.  1.
         11   -1    0    0    0    0 -0.00000000000E+00 -0.00000000000E+00 -0.45593999997E+02  0.45594000000E+02  0.51100000000E-03 0. -1.
    9900012    2    1    2    0    0 -0.46323760966E+01 -0.58950704722E+01  0.17160182985E+02  0.72461477519E+02  0.69999879143E+02 0.  0.
         12    1    1    2    0    0  0.46323760966E+01  0.58950704722E+01 -0.17160182985E+02  0.18726522481E+02  0.00000000000E+00 0. -1.
         11    1    3    3    0    0 -0.49334664853E+01  0.16695726449E+02  0.20608030049E+01  0.17530923607E+02  0.51100000000E-03 0. -1.
        -11    1    3    3    0    0 -0.12935896318E+02 -0.29369079507E+02 -0.21400387644E+01  0.32163022414E+02  0.51100000000E-03 0.  1.
         12    1    3    3    0    0  0.13236986706E+02  0.67782825852E+01  0.17239418744E+02  0.22767531498E+02  0.00000000000E+00 0. -1.
</event>
<event>
 7    1  0.2932741E-013  0.7246150E+02  0.7816164E-02  0.1226708E+00
        -11   -1    0    0    0    0  0.00000000000E+00  0.00000000000E+00  0.45593999997E+02  0.45594000000E+02  0.51100000000E-03 0. -1.
         11   -1    0    0    0    0 -0.00000000000E+00 -0.00000000000E+00 -0.45593999997E+02  0.45594000000E+02  0.51100000000E-03 0.  1.
    9900012    2    1    2    0    0  0.99583610058E+01  0.81782462991E+01 -0.13587836647E+02  0.72461495489E+02  0.69999902552E+02 0.  0.
         12    1    1    2    0    0 -0.99583610058E+01 -0.81782462991E+01  0.13587836647E+02  0.18726504511E+02  0.00000000000E+00 0. -1.
         11    1    3    3    0    0 -0.54536781684E+01 -0.80328728885E+01  0.17910085895E+02  0.20372550882E+02  0.51100000000E-03 0. -1.
        -11    1    3    3    0    0  0.13469019758E+02  0.16771088935E+01  0.36074391862E+01  0.14044244559E+02  0.51100000000E-03 0.  1.
        -12    1    3    3    0    0  0.19430194157E+01  0.14534010294E+02 -0.35105361728E+02  0.38044700048E+02  0.00000000000E+00 0.  1.
</event>
<event>
 7    1  0.2932741E-013  0.7246158E+02  0.7816164E-02  0.1226708E+00
        -11   -1    0    0    0    0  0.00000000000E+00  0.00000000000E+00  0.45593999997E+02  0.45594000000E+02  0.51100000000E-03 0. -1.
         11   -1    0    0    0    0 -0.00000000000E+00 -0.00000000000E+00 -0.45593999997E+02  0.45594000000E+02  0.51100000000E-03 0.  1.
    9900012    2    1    2    0    0 -0.75873922224E+01  0.16520312337E+02  0.44932888388E+01  0.72461577890E+02  0.70000009895E+02 0.  0.
         12    1    1    2    0    0  0.75873922224E+01 -0.16520312337E+02 -0.44932888388E+01  0.18726422110E+02  0.00000000000E+00 0. -1.
         11    1    3    3    0    0 -0.80384825023E+01  0.37811594076E+01  0.29103419285E+02  0.30428989167E+02  0.51100000000E-03 0. -1.
        -11    1    3    3    0    0  0.44188663774E+01  0.37934450718E+01  0.69049867216E+01  0.90330198417E+01  0.51100000000E-03 0.  1.
        -12    1    3    3    0    0 -0.39677760975E+01  0.89457078576E+01 -0.31515117168E+02  0.32999568881E+02  0.00000000000E+00 0.  1.
</event>
<event>
 7    1  0.2932741E-013  0.7246150E+02  0.7816164E-02  0.1226708E+00
        -11   -1    0    0    0    0  0.00000000000E+00  0.00000000000E+00  0.45593999997E+02  0.45594000000E+02  0.51100000000E-03 0.  1.
         11   -1    0    0    0    0 -0.00000000000E+00 -0.00000000000E+00 -0.45593999997E+02  0.45594000000E+02  0.51100000000E-03 0. -1.
    9900012    2    1    2    0    0 -0.89275867604E+01  0.15778445749E+02  0.46926069776E+01  0.72461502306E+02  0.69999911433E+02 0.  0.
         12    1    1    2    0    0  0.89275867604E+01 -0.15778445749E+02 -0.46926069776E+01  0.18726497694E+02  0.00000000000E+00 0. -1.
         11    1    3    3    0    0  0.15974458220E+02  0.30783626520E+01  0.23610897988E+01  0.16438807053E+02  0.51100000000E-03 0. -1.
        -11    1    3    3    0    0  0.26605627625E+01 -0.14850681129E+02  0.72568234116E+01  0.16741648978E+02  0.51100000000E-03 0.  1.
        -12    1    3    3    0    0 -0.27562607743E+02  0.27550764226E+02 -0.49253062328E+01  0.39281046275E+02  0.00000000000E+00 0.  1.
</event>
<event>
 7    1  0.2932741E-013  0.7246154E+02  0.7816164E-02  0.1226708E+00
        -11   -1    0    0    0    0  0.00000000000E+00  0.00000000000E+00  0.45593999997E+02  0.45594000000E+02  0.51100000000E-03 0.  1.
         11   -1    0    0    0    0 -0.00000000000E+00 -0.00000000000E+00 -0.45593999997E+02  0.45594000000E+02  0.51100000000E-03 0. -1.
    9900012    2    1    2    0    0  0.12865519349E+02 -0.58270041618E+01  0.12296531757E+02  0.72461541208E+02  0.69999962110E+02 0.  0.
         12    1    1    2    0    0 -0.12865519349E+02  0.58270041618E+01 -0.12296531757E+02  0.18726458792E+02  0.00000000000E+00 0. -1.
         11    1    3    3    0    0  0.60443185297E+01 -0.74774622494E+01 -0.10195249571E+02  0.14013898182E+02  0.51100000000E-03 0. -1.
        -11    1    3    3    0    0 -0.12293447375E+00 -0.23714707356E+02 -0.19491982598E+00  0.23715827033E+02  0.51100000000E-03 0.  1.
        -12    1    3    3    0    0  0.69441352933E+01  0.25365165443E+02  0.22686701154E+02  0.34731815993E+02  0.00000000000E+00 0.  1.
</event>
<event>
 7    1  0.2932741E-013  0.7246163E+02  0.7816164E-02  0.1226708E+00
        -11   -1    0    0    0    0  0.00000000000E+00  0.00000000000E+00  0.45593999997E+02  0.45594000000E+02  0.51100000000E-03 0. -1.
         11   -1    0    0    0    0 -0.00000000000E+00 -0.00000000000E+00 -0.45593999997E+02  0.45594000000E+02  0.51100000000E-03 0.  1.
    9900012    2    1    2    0    0 -0.15089953001E+02 -0.58919816224E+01 -0.93944038163E+01  0.72461629501E+02  0.70000077128E+02 0.  0.
         12    1    1    2    0    0  0.15089953001E+02  0.58919816224E+01  0.93944038163E+01  0.18726370499E+02  0.00000000000E+00 0. -1.
         11    1    3    3    0    0  0.65588131200E+01 -0.12476573968E+01 -0.54136427071E+00  0.66983396493E+01  0.51100000000E-03 0. -1.
        -11    1    3    3    0    0  0.54581653560E+00 -0.28147262053E+02 -0.16381749287E+02  0.32571889517E+02  0.51100000000E-03 0.  1.
        -12    1    3    3    0    0 -0.22194582656E+02  0.23502937827E+02  0.75287097413E+01  0.33191400335E+02  0.00000000000E+00 0.  1.
</event>
<event>
 7    1  0.2932741E-013  0.7246151E+02  0.7816164E-02  0.1226708E+00
        -11   -1    0    0    0    0  0.00000000000E+00  0.00000000000E+00  0.45593999997E+02  0.45594000000E+02  0.51100000000E-03 0.  1.
         11   -1    0    0    0    0 -0.00000000000E+00 -0.00000000000E+00 -0.45593999997E+02  0.45594000000E+02  0.51100000000E-03 0. -1.
    9900012    2    1    2    0    0  0.17606815423E+02  0.63485268452E+01  0.61449313140E+00  0.72461512228E+02  0.69999924358E+02 0.  0.
         12    1    1    2    0    0 -0.17606815423E+02 -0.63485268452E+01 -0.61449313140E+00  0.18726487772E+02  0.00000000000E+00 0. -1.
         11    1    3    3    0    0  0.26526909491E+02 -0.16516598840E+02 -0.16247446428E+02  0.35220086315E+02  0.51100000000E-03 0. -1.
        -11    1    3    3    0    0  0.17246706305E+01  0.87203840277E+00 -0.44294057762E+01  0.48326571936E+01  0.51100000000E-03 0.  1.
        -12    1    3    3    0    0 -0.10644764698E+02  0.21993087282E+02  0.21291345336E+02  0.32408768719E+02  0.00000000000E+00 0.  1.
</event>
<event>
 7    1  0.2932741E-013  0.7246160E+02  0.7816164E-02  0.1226708E+00
        -11   -1    0    0    0    0  0.00000000000E+00  0.00000000000E+00  0.45593999997E+02  0.45594000000E+02  0.51100000000E-03 0.  1.
         11   -1    0    0    0    0 -0.00000000000E+00 -0.00000000000E+00 -0.45593999997E+02  0.45594000000E+02  0.51100000000E-03 0. -1.
    9900012    2    1    2    0    0 -0.33968568014E+01 -0.13721517079E+02  0.12282483194E+02  0.72461599906E+02  0.70000038575E+02 0.  0.
         12    1    1    2    0    0  0.33968568014E+01  0.13721517079E+02 -0.12282483194E+02  0.18726400094E+02  0.00000000000E+00 0. -1.
         11    1    3    3    0    0 -0.18152883686E+02  0.25072097138E+01  0.22400436170E+01  0.18461611044E+02  0.51100000000E-03 0. -1.
        -11    1    3    3    0    0 -0.58835593149E+01  0.20694081992E+00 -0.15926395327E+02  0.16979669110E+02  0.51100000000E-03 0.  1.
        -12    1    3    3    0    0  0.20639586199E+02 -0.16435667613E+02  0.25968834903E+02  0.37020319753E+02  0.00000000000E+00 0.  1.
</event>
<event>
 7    1  0.2932741E-013  0.7246163E+02  0.7816164E-02  0.1226708E+00
        -11   -1    0    0    0    0  0.00000000000E+00  0.00000000000E+00  0.45593999997E+02  0.45594000000E+02  0.51100000000E-03 0. -1.
         11   -1    0    0    0    0 -0.00000000000E+00 -0.00000000000E+00 -0.45593999997E+02  0.45594000000E+02  0.51100000000E-03 0.  1.
    9900012    2    1    2    0    0  0.91514206630E+01  0.56519952261E+01 -0.15329172241E+02  0.72461626304E+02  0.70000072963E+02 0.  0.
         12    1    1    2    0    0 -0.91514206630E+01 -0.56519952261E+01  0.15329172241E+02  0.18726373696E+02  0.00000000000E+00 0. -1.
         11    1    3    3    0    0 -0.23409919104E+01  0.32061292242E+02 -0.18973513713E+02  0.37328285873E+02  0.51100000000E-03 0. -1.
        -11    1    3    3    0    0 -0.13578568134E+01  0.18369958985E+00 -0.43292678168E+01  0.45409339079E+01  0.51100000000E-03 0.  1.
        -12    1    3    3    0    0  0.12850269387E+02 -0.26592996606E+02  0.79736092885E+01  0.30592406523E+02  0.00000000000E+00 0.  1.
</event>
<event>
 7    1  0.2932741E-013  0.7246170E+02  0.7816164E-02  0.1226708E+00
        -11   -1    0    0    0    0  0.00000000000E+00  0.00000000000E+00  0.45593999997E+02  0.45594000000E+02  0.51100000000E-03 0. -1.
         11   -1    0    0    0    0 -0.00000000000E+00 -0.00000000000E+00 -0.45593999997E+02  0.45594000000E+02  0.51100000000E-03 0.  1.
    9900012    2    1    2    0    0 -0.16671869407E+02  0.80439512676E+01  0.28315656553E+01  0.72461704436E+02  0.70000174744E+02 0.  0.
         12    1    1    2    0    0  0.16671869407E+02 -0.80439512676E+01 -0.28315656553E+01  0.18726295564E+02  0.00000000000E+00 0. -1.
         11    1    3    3    0    0 -0.20096260039E+02  0.24498220926E+02  0.13315938085E+02  0.34370579038E+02  0.51100000000E-03 0. -1.
        -11    1    3    3    0    0 -0.10595744433E+02  0.13476174280E+01 -0.11124639675E+02  0.15422174976E+02  0.51100000000E-03 0.  1.
         12    1    3    3    0    0  0.14020135065E+02 -0.17801887086E+02  0.64026724569E+00  0.22668950422E+02  0.00000000000E+00 0. -1.
</event>
<event>
 7    1  0.2932741E-013  0.7246156E+02  0.7816164E-02  0.1226708E+00
        -11   -1    0    0    0    0  0.00000000000E+00  0.00000000000E+00  0.45593999997E+02  0.45594000000E+02  0.51100000000E-03 0.  1.
         11   -1    0    0    0    0 -0.00000000000E+00 -0.00000000000E+00 -0.45593999997E+02  0.45594000000E+02  0.51100000000E-03 0. -1.
    9900012    2    1    2    0    0 -0.48577708405E+01  0.17224758662E+02 -0.55126529688E+01  0.72461559034E+02  0.69999985331E+02 0.  0.
         12    1    1    2    0    0  0.48577708405E+01 -0.17224758662E+02  0.55126529688E+01  0.18726440966E+02  0.00000000000E+00 0. -1.
         11    1    3    3    0    0 -0.27411162766E+02  0.21303798655E+02 -0.16498061721E+02  0.38437087847E+02  0.51100000000E-03 0. -1.
        -11    1    3    3    0    0  0.61639961083E+01  0.74314718500E+01 -0.23832344186E+01  0.99449197300E+01  0.51100000000E-03 0.  1.
        -12    1    3    3    0    0  0.16389395817E+02 -0.11510511843E+02  0.13368643171E+02  0.24079551457E+02  0.00000000000E+00 0.  1.
</event>
<event>
 7    1  0.2932741E-013  0.7246158E+02  0.7816164E-02  0.1226708E+00
        -11   -1    0    0    0    0  0.00000000000E+00  0.00000000000E+00  0.45593999997E+02  0.45594000000E+02  0.51100000000E-03 0.  1.
         11   -1    0    0    0    0 -0.00000000000E+00 -0.00000000000E+00 -0.45593999997E+02  0.45594000000E+02  0.51100000000E-03 0. -1.
    9900012    2    1    2    0    0 -0.39146183730E+01  0.18225614380E+02 -0.17836380525E+01  0.72461584934E+02  0.70000019070E+02 0.  0.
         12    1    1    2    0    0  0.39146183730E+01 -0.18225614380E+02  0.17836380525E+01  0.18726415066E+02  0.00000000000E+00 0. -1.
         11    1    3    3    0    0  0.16271221936E+02 -0.61477382762E+01  0.65619675647E+00  0.17406261622E+02  0.51100000000E-03 0. -1.
        -11    1    3    3    0    0  0.79565717232E+01  0.56217772040E+01 -0.15908447183E+02  0.18654492878E+02  0.51100000000E-03 0.  1.
        -12    1    3    3    0    0 -0.28142412032E+02  0.18751575452E+02  0.13468612374E+02  0.36400830433E+02  0.00000000000E+00 0.  1.
</event>
<event>
 7    1  0.2932741E-013  0.7246161E+02  0.7816164E-02  0.1226708E+00
        -11   -1    0    0    0    0  0.00000000000E+00  0.00000000000E+00  0.45593999997E+02  0.45594000000E+02  0.51100000000E-03 0. -1.
         11   -1    0    0    0    0 -0.00000000000E+00 -0.00000000000E+00 -0.45593999997E+02  0.45594000000E+02  0.51100000000E-03 0.  1.
    9900012    2    1    2    0    0  0.37790179271E+01  0.16164906309E+02 -0.86655857304E+01  0.72461613575E+02  0.70000056382E+02 0.  0.
         12    1    1    2    0    0 -0.37790179271E+01 -0.16164906309E+02  0.86655857304E+01  0.18726386425E+02  0.00000000000E+00 0. -1.
         11    1    3    3    0    0 -0.13077786219E+02  0.65711803692E+00 -0.11167847539E+02  0.17209913289E+02  0.51100000000E-03 0. -1.
        -11    1    3    3    0    0  0.12884264512E+01 -0.67768604362E+00 -0.21980682954E+02  0.22028838473E+02  0.51100000000E-03 0.  1.
         12    1    3    3    0    0  0.15568377695E+02  0.16185474316E+02  0.24482944762E+02  0.33222861814E+02  0.00000000000E+00 0. -1.
</event>
<event>
 7    1  0.2932741E-013  0.7246152E+02  0.7816164E-02  0.1226708E+00
        -11   -1    0    0    0    0  0.00000000000E+00  0.00000000000E+00  0.45593999997E+02  0.45594000000E+02  0.51100000000E-03 0. -1.
         11   -1    0    0    0    0 -0.00000000000E+00 -0.00000000000E+00 -0.45593999997E+02  0.45594000000E+02  0.51100000000E-03 0.  1.
    9900012    2    1    2    0    0 -0.11981590238E+02  0.32420925755E+01 -0.14021815202E+02  0.72461522209E+02  0.69999937360E+02 0.  0.
         12    1    1    2    0    0  0.11981590238E+02 -0.32420925755E+01  0.14021815202E+02  0.18726477791E+02  0.00000000000E+00 0. -1.
         11    1    3    3    0    0 -0.13705128550E+02 -0.24385864851E+01 -0.31553537537E+01  0.14273524799E+02  0.51100000000E-03 0. -1.
        -11    1    3    3    0    0  0.35066540232E-01 -0.23916491856E+02  0.51907833550E+01  0.24473333333E+02  0.51100000000E-03 0.  1.
        -12    1    3    3    0    0  0.16884717713E+01  0.29597170916E+02 -0.16057244803E+02  0.33714664077E+02  0.00000000000E+00 0.  1.
</event>
<event>
 7    1  0.2932741E-013  0.7246156E+02  0.7816164E-02  0.1226708E+00
        -11   -1    0    0    0    0  0.00000000000E+00  0.00000000000E+00  0.45593999997E+02  0.45594000000E+02  0.51100000000E-03 0. -1.
         11   -1    0    0    0    0 -0.00000000000E+00 -0.00000000000E+00 -0.45593999997E+02  0.45594000000E+02  0.51100000000E-03 0.  1.
    9900012    2    1    2    0    0 -0.14460123195E+01 -0.45881478180E+01 -0.18098000283E+02  0.72461557031E+02  0.69999982722E+02 0.  0.
         12    1    1    2    0    0  0.14460123195E+01  0.45881478180E+01  0.18098000283E+02  0.18726442969E+02  0.00000000000E+00 0. -1.
         11    1    3    3    0    0  0.13624089577E+02  0.61015952894E+01  0.19688131703E+02  0.24707646835E+02  0.51100000000E-03 0. -1.
        -11    1    3    3    0    0 -0.48318887765E+01  0.45873341779E+01 -0.11501802733E+01  0.67611906445E+01  0.51100000000E-03 0.  1.
        -12    1    3    3    0    0 -0.10238213120E+02 -0.15277077285E+02 -0.36635951713E+02  0.40992719551E+02  0.00000000000E+00 0.  1.
</event>
<event>
 7    1  0.2932741E-013  0.7246155E+02  0.7816164E-02  0.1226708E+00
        -11   -1    0    0    0    0  0.00000000000E+00  0.00000000000E+00  0.45593999997E+02  0.45594000000E+02  0.51100000000E-03 0. -1.
         11   -1    0    0    0    0 -0.00000000000E+00 -0.00000000000E+00 -0.45593999997E+02  0.45594000000E+02  0.51100000000E-03 0.  1.
    9900012    2    1    2    0    0  0.10844994709E+02 -0.15113346607E+02 -0.21570085430E+01  0.72461552346E+02  0.69999976619E+02 0.  0.
         12    1    1    2    0    0 -0.10844994709E+02  0.15113346607E+02  0.21570085430E+01  0.18726447654E+02  0.00000000000E+00 0. -1.
         11    1    3    3    0    0  0.11522162274E+02  0.61147918667E+01  0.52233538276E+01  0.14051132642E+02  0.51100000000E-03 0. -1.
        -11    1    3    3    0    0  0.22931103755E+02 -0.55788327919E+01  0.94971029874E+01  0.25439218938E+02  0.51100000000E-03 0.  1.
        -12    1    3    3    0    0 -0.23608271320E+02 -0.15649305682E+02 -0.16877465358E+02  0.32971200766E+02  0.00000000000E+00 0.  1.
</event>
<event>
 7    1  0.2932741E-013  0.7246156E+02  0.7816164E-02  0.1226708E+00
        -11   -1    0    0    0    0  0.00000000000E+00  0.00000000000E+00  0.45593999997E+02  0.45594000000E+02  0.51100000000E-03 0. -1.
         11   -1    0    0    0    0 -0.00000000000E+00 -0.00000000000E+00 -0.45593999997E+02  0.45594000000E+02  0.51100000000E-03 0.  1.
    9900012    2    1    2    0    0  0.84867367827E+01  0.94889221673E+01 -0.13733728222E+02  0.72461557839E+02  0.69999983775E+02 0.  0.
         12    1    1    2    0    0 -0.84867367827E+01 -0.94889221673E+01  0.13733728222E+02  0.18726442161E+02  0.00000000000E+00 0. -1.
         11    1    3    3    0    0 -0.40497540232E+01  0.38625592864E+01 -0.13735817948E+02  0.14832146401E+02  0.51100000000E-03 0. -1.
        -11    1    3    3    0    0  0.12123898533E+02 -0.13791892061E+02 -0.21751803829E+02  0.28466579920E+02  0.51100000000E-03 0.  1.
         12    1    3    3    0    0  0.41259227295E+00  0.19418254942E+02  0.21753893555E+02  0.29162831519E+02  0.00000000000E+00 0. -1.
</event>
<event>
 7    1  0.2932741E-013  0.7246155E+02  0.7816164E-02  0.1226708E+00
        -11   -1    0    0    0    0  0.00000000000E+00  0.00000000000E+00  0.45593999997E+02  0.45594000000E+02  0.51100000000E-03 0.  1.
         11   -1    0    0    0    0 -0.00000000000E+00 -0.00000000000E+00 -0.45593999997E+02  0.45594000000E+02  0.51100000000E-03 0. -1.
    9900012    2    1    2    0    0  0.68472450277E+01  0.15429528718E+02  0.81070951325E+01  0.72461545119E+02  0.69999967204E+02 0.  0.
         12    1    1    2    0    0 -0.68472450277E+01 -0.15429528718E+02 -0.81070951325E+01  0.18726454881E+02  0.00000000000E+00 0. -1.
         11    1    3    3    0    0  0.79597846912E+01 -0.15877630927E+02 -0.36268404555E+01  0.18127639343E+02  0.51100000000E-03 0. -1.
        -11    1    3    3    0    0  0.18884897454E+02  0.23107272090E+02  0.13282620678E+02  0.32665170865E+02  0.51100000000E-03 0.  1.
         12    1    3    3    0    0 -0.19997437117E+02  0.81998875546E+01 -0.15486850898E+01  0.21668734912E+02  0.00000000000E+00 0. -1.
</event>
<event>
 7    1  0.2932741E-013  0.7246156E+02  0.7816164E-02  0.1226708E+00
        -11   -1    0    0    0    0  0.00000000000E+00  0.00000000000E+00  0.45593999997E+02  0.45594000000E+02  0.51100000000E-03 0. -1.
         11   -1    0    0    0    0 -0.00000000000E+00 -0.00000000000E+00 -0.45593999997E+02  0.45594000000E+02  0.51100000000E-03 0.  1.
    9900012    2    1    2    0    0  0.33629830212E+01 -0.32715543098E+01 -0.18129167395E+02  0.72461563264E+02  0.69999990841E+02 0.  0.
         12    1    1    2    0    0 -0.33629830212E+01  0.32715543098E+01  0.18129167395E+02  0.18726436736E+02  0.00000000000E+00 0. -1.
         11    1    3    3    0    0 -0.64015458986E+00 -0.18367527371E+02 -0.47715369223E+01  0.18987981053E+02  0.51100000000E-03 0. -1.
        -11    1    3    3    0    0  0.88171546424E+01 -0.57249496261E+01 -0.26414951641E+02  0.28430035784E+02  0.51100000000E-03 0.  1.
        -12    1    3    3    0    0 -0.48140170314E+01  0.20820922687E+02  0.13057321168E+02  0.25043546427E+02  0.00000000000E+00 0.  1.
</event>
<event>
 7    1  0.2932741E-013  0.7246153E+02  0.7816164E-02  0.1226708E+00
        -11   -1    0    0    0    0  0.00000000000E+00  0.00000000000E+00  0.45593999997E+02  0.45594000000E+02  0.51100000000E-03 0. -1.
         11   -1    0    0    0    0 -0.00000000000E+00 -0.00000000000E+00 -0.45593999997E+02  0.45594000000E+02  0.51100000000E-03 0.  1.
    9900012    2    1    2    0    0  0.10275587896E+02 -0.88477275990E+01 -0.12915519202E+02  0.72461531392E+02  0.69999949322E+02 0.  0.
         12    1    1    2    0    0 -0.10275587896E+02  0.88477275990E+01  0.12915519202E+02  0.18726468608E+02  0.00000000000E+00 0. -1.
         11    1    3    3    0    0  0.67353493141E+01  0.11384986161E+02 -0.18946456987E+02  0.23107381351E+02  0.51100000000E-03 0. -1.
        -11    1    3    3    0    0  0.17044181766E+02 -0.95102175399E+01 -0.13171109697E+02  0.23546262986E+02  0.51100000000E-03 0.  1.
         12    1    3    3    0    0 -0.13503943183E+02 -0.10722496220E+02  0.19202047482E+02  0.25807887054E+02  0.00000000000E+00 0. -1.
</event>
<event>
 7    1  0.2932741E-013  0.7246160E+02  0.7816164E-02  0.1226708E+00
        -11   -1    0    0    0    0  0.00000000000E+00  0.00000000000E+00  0.45593999997E+02  0.45594000000E+02  0.51100000000E-03 0. -1.
         11   -1    0    0    0    0 -0.00000000000E+00 -0.00000000000E+00 -0.45593999997E+02  0.45594000000E+02  0.51100000000E-03 0.  1.
    9900012    2    1    2    0    0  0.74919183226E+01  0.16947522280E+02 -0.27075323582E+01  0.72461599303E+02  0.70000037790E+02 0.  0.
         12    1    1    2    0    0 -0.74919183226E+01 -0.16947522280E+02  0.27075323582E+01  0.18726400697E+02  0.00000000000E+00 0. -1.
         11    1    3    3    0    0  0.24419649692E+01 -0.14785527349E+02  0.14075768517E+02  0.20559724500E+02  0.51100000000E-03 0. -1.
        -11    1    3    3    0    0 -0.69570500382E+01 -0.10966531512E+00 -0.16458767106E+02  0.17869067873E+02  0.51100000000E-03 0.  1.
        -12    1    3    3    0    0  0.12007003392E+02  0.31842714944E+02 -0.32453376857E+00  0.34032806931E+02  0.00000000000E+00 0.  1.
</event>
<event>
 7    1  0.2932741E-013  0.7246156E+02  0.7816164E-02  0.1226708E+00
        -11   -1    0    0    0    0  0.00000000000E+00  0.00000000000E+00  0.45593999997E+02  0.45594000000E+02  0.51100000000E-03 0.  1.
         11   -1    0    0    0    0 -0.00000000000E+00 -0.00000000000E+00 -0.45593999997E+02  0.45594000000E+02  0.51100000000E-03 0. -1.
    9900012    2    1    2    0    0  0.97880699766E+01 -0.67010945775E+01  0.14490291948E+02  0.72461560319E+02  0.69999987005E+02 0.  0.
         12    1    1    2    0    0 -0.97880699766E+01  0.67010945775E+01 -0.14490291948E+02  0.18726439681E+02  0.00000000000E+00 0. -1.
         11    1    3    3    0    0 -0.28761932074E+01 -0.23001956459E+02  0.17458692566E+02  0.29020138433E+02  0.51100000000E-03 0. -1.
        -11    1    3    3    0    0  0.10073093982E+02 -0.11497077595E+02 -0.26966111430E+01  0.15521653504E+02  0.51100000000E-03 0.  1.
        -12    1    3    3    0    0  0.25911692019E+01  0.27797939476E+02 -0.27178947504E+00  0.27919768381E+02  0.00000000000E+00 0.  1.
</event>
<event>
 7    1  0.2932741E-013  0.7246156E+02  0.7816164E-02  0.1226708E+00
        -11   -1    0    0    0    0  0.00000000000E+00  0.00000000000E+00  0.45593999997E+02  0.45594000000E+02  0.51100000000E-03 0. -1.
         11   -1    0    0    0    0 -0.00000000000E+00 -0.00000000000E+00 -0.45593999997E+02  0.45594000000E+02  0.51100000000E-03 0.  1.
    9900012    2    1    2    0    0  0.97076455186E+01 -0.11277583942E+02 -0.11369138994E+02  0.72461558732E+02  0.69999984938E+02 0.  0.
         12    1    1    2    0    0 -0.97076455186E+01  0.11277583942E+02  0.11369138994E+02  0.18726441268E+02  0.00000000000E+00 0. -1.
         11    1    3    3    0    0 -0.46629777977E+01  0.10526917708E+02 -0.54907552459E+01  0.12755694878E+02  0.51100000000E-03 0. -1.
        -11    1    3    3    0    0  0.25369521463E+02 -0.78391096241E+01 -0.22922414537E+02  0.35078502640E+02  0.51100000000E-03 0.  1.
         12    1    3    3    0    0 -0.10998898147E+02 -0.13965392026E+02  0.17044030788E+02  0.24627361215E+02  0.00000000000E+00 0. -1.
</event>
<event>
 7    1  0.2932741E-013  0.7246153E+02  0.7816164E-02  0.1226708E+00
        -11   -1    0    0    0    0  0.00000000000E+00  0.00000000000E+00  0.45593999997E+02  0.45594000000E+02  0.51100000000E-03 0.  1.
         11   -1    0    0    0    0 -0.00000000000E+00 -0.00000000000E+00 -0.45593999997E+02  0.45594000000E+02  0.51100000000E-03 0. -1.
    9900012    2    1    2    0    0  0.10024804450E+02 -0.77336811868E+00  0.15798290146E+02  0.72461527453E+02  0.69999944192E+02 0.  0.
         12    1    1    2    0    0 -0.10024804450E+02  0.77336811868E+00 -0.15798290146E+02  0.18726472547E+02  0.00000000000E+00 0. -1.
         11    1    3    3    0    0 -0.14196768949E+02 -0.37023580532E+01  0.82414634651E+01  0.16827876398E+02  0.51100000000E-03 0.  1.
        -11    1    3    3    0    0 -0.59666821789E+01 -0.65483637697E+01 -0.14550067918E+02  0.17034871322E+02  0.51100000000E-03 0. -1.
        -12    1    3    3    0    0  0.30188255578E+02  0.94773537041E+01  0.22106894599E+02  0.38598779733E+02  0.00000000000E+00 0.  1.
</event>
<event>
 7    1  0.2932741E-013  0.7246160E+02  0.7816164E-02  0.1226708E+00
        -11   -1    0    0    0    0  0.00000000000E+00  0.00000000000E+00  0.45593999997E+02  0.45594000000E+02  0.51100000000E-03 0.  1.
         11   -1    0    0    0    0 -0.00000000000E+00 -0.00000000000E+00 -0.45593999997E+02  0.45594000000E+02  0.51100000000E-03 0. -1.
    9900012    2    1    2    0    0 -0.18550172023E+02 -0.25608186496E+01  0.10715216421E+00  0.72461597361E+02  0.70000035259E+02 0.  0.
         12    1    1    2    0    0  0.18550172023E+02  0.25608186496E+01 -0.10715216421E+00  0.18726402639E+02  0.00000000000E+00 0. -1.
         11    1    3    3    0    0 -0.40723282636E+01 -0.38629078145E+01 -0.35332732937E+01  0.66324908367E+01  0.51100000000E-03 0. -1.
        -11    1    3    3    0    0 -0.31679840355E+02 -0.12788114933E+02  0.18725648405E+02  0.38958928077E+02  0.51100000000E-03 0.  1.
         12    1    3    3    0    0  0.17201996596E+02  0.14090204098E+02 -0.15085222947E+02  0.26870178447E+02  0.00000000000E+00 0. -1.
</event>
<event>
 7    1  0.2932741E-013  0.7246159E+02  0.7816164E-02  0.1226708E+00
        -11   -1    0    0    0    0  0.00000000000E+00  0.00000000000E+00  0.45593999997E+02  0.45594000000E+02  0.51100000000E-03 0.  1.
         11   -1    0    0    0    0 -0.00000000000E+00 -0.00000000000E+00 -0.45593999997E+02  0.45594000000E+02  0.51100000000E-03 0. -1.
    9900012    2    1    2    0    0 -0.10305613503E+02 -0.10911912565E+02  0.11198339924E+02  0.72461592908E+02  0.70000029459E+02 0.  0.
         12    1    1    2    0    0  0.10305613503E+02  0.10911912565E+02 -0.11198339924E+02  0.18726407092E+02  0.00000000000E+00 0. -1.
         11    1    3    3    0    0 -0.21486116125E+02 -0.15602723051E+02  0.22182570626E+02  0.34600066367E+02  0.51100000000E-03 0. -1.
        -11    1    3    3    0    0 -0.35296193531E+01  0.11842952355E+02  0.64633051604E+01  0.13945897143E+02  0.51100000000E-03 0.  1.
        -12    1    3    3    0    0  0.14710121976E+02 -0.71521418684E+01 -0.17447535863E+02  0.23915629398E+02  0.00000000000E+00 0.  1.
</event>
<event>
 7    1  0.2932741E-013  0.7246168E+02  0.7816164E-02  0.1226708E+00
        -11   -1    0    0    0    0  0.00000000000E+00  0.00000000000E+00  0.45593999997E+02  0.45594000000E+02  0.51100000000E-03 0. -1.
         11   -1    0    0    0    0 -0.00000000000E+00 -0.00000000000E+00 -0.45593999997E+02  0.45594000000E+02  0.51100000000E-03 0.  1.
    9900012    2    1    2    0    0 -0.14933119131E+02  0.70955698486E+01 -0.87937440626E+01  0.72461679136E+02  0.70000141787E+02 0.  0.
         12    1    1    2    0    0  0.14933119131E+02 -0.70955698486E+01  0.87937440626E+01  0.18726320864E+02  0.00000000000E+00 0. -1.
         11    1    3    3    0    0 -0.24866972914E+02  0.59199016374E+01 -0.65429754783E+01  0.26386021028E+02  0.51100000000E-03 0. -1.
        -11    1    3    3    0    0  0.66203062512E+01  0.22420194211E+02  0.39261645751E+01  0.23704605709E+02  0.51100000000E-03 0.  1.
         12    1    3    3    0    0  0.33135475323E+01 -0.21244526000E+02 -0.61769331594E+01  0.22371052399E+02  0.00000000000E+00 0. -1.
</event>
<event>
 7    1  0.2932741E-013  0.7246150E+02  0.7816164E-02  0.1226708E+00
        -11   -1    0    0    0    0  0.00000000000E+00  0.00000000000E+00  0.45593999997E+02  0.45594000000E+02  0.51100000000E-03 0.  1.
         11   -1    0    0    0    0 -0.00000000000E+00 -0.00000000000E+00 -0.45593999997E+02  0.45594000000E+02  0.51100000000E-03 0. -1.
    9900012    2    1    2    0    0  0.95003017579E+01 -0.45670778457E+01  0.15477977868E+02  0.72461501864E+02  0.69999910857E+02 0.  0.
         12    1    1    2    0    0 -0.95003017579E+01  0.45670778457E+01 -0.15477977868E+02  0.18726498136E+02  0.00000000000E+00 0. -1.
         11    1    3    3    0    0 -0.17984823851E+01  0.51896822778E+01  0.10459602905E+02  0.11814001618E+02  0.51100000000E-03 0. -1.
        -11    1    3    3    0    0 -0.21113843725E+02  0.15431813996E+01  0.13730878471E+02  0.25233169233E+02  0.51100000000E-03 0.  1.
         12    1    3    3    0    0  0.32412627868E+02 -0.11299941523E+02 -0.87125035077E+01  0.35414331013E+02  0.00000000000E+00 0. -1.
</event>
<event>
 7    1  0.2932741E-013  0.7246180E+02  0.7816164E-02  0.1226707E+00
        -11   -1    0    0    0    0  0.00000000000E+00  0.00000000000E+00  0.45593999997E+02  0.45594000000E+02  0.51100000000E-03 0.  1.
         11   -1    0    0    0    0 -0.00000000000E+00 -0.00000000000E+00 -0.45593999997E+02  0.45594000000E+02  0.51100000000E-03 0. -1.
    9900012    2    1    2    0    0  0.15205241820E+01  0.13561347293E+02  0.12823744876E+02  0.72461799989E+02  0.70000299220E+02 0.  0.
         12    1    1    2    0    0 -0.15205241820E+01 -0.13561347293E+02 -0.12823744876E+02  0.18726200011E+02  0.00000000000E+00 0. -1.
         11    1    3    3    0    0 -0.42862876398E+01  0.54147835622E+01  0.37525792557E+01  0.78596433817E+01  0.51100000000E-03 0. -1.
        -11    1    3    3    0    0  0.70474416882E+01  0.13256060415E+02  0.35032433797E+02  0.38113790025E+02  0.51100000000E-03 0.  1.
         12    1    3    3    0    0 -0.12406298665E+01 -0.51094966841E+01 -0.25961268177E+02  0.26488366582E+02  0.00000000000E+00 0. -1.
</event>
<event>
 7    1  0.2932741E-013  0.7246159E+02  0.7816164E-02  0.1226708E+00
        -11   -1    0    0    0    0  0.00000000000E+00  0.00000000000E+00  0.45593999997E+02  0.45594000000E+02  0.51100000000E-03 0.  1.
         11   -1    0    0    0    0 -0.00000000000E+00 -0.00000000000E+00 -0.45593999997E+02  0.45594000000E+02  0.51100000000E-03 0. -1.
    9900012    2    1    2    0    0 -0.77529530859E+00 -0.10601768879E+01  0.18680297427E+02  0.72461586307E+02  0.70000020860E+02 0.  0.
         12    1    1    2    0    0  0.77529530859E+00  0.10601768879E+01 -0.18680297427E+02  0.18726413693E+02  0.00000000000E+00 0. -1.
         11    1    3    3    0    0  0.75878472079E+01 -0.32738197460E+02  0.75683436369E+00  0.33614547397E+02  0.51100000000E-03 0. -1.
        -11    1    3    3    0    0 -0.35712463043E+01  0.14012282675E+02  0.20228752349E+01  0.14601023608E+02  0.51100000000E-03 0.  1.
        -12    1    3    3    0    0 -0.47918962122E+01  0.17665737897E+02  0.15900587828E+02  0.24246015302E+02  0.00000000000E+00 0.  1.
</event>
<event>
 7    1  0.2932741E-013  0.7246153E+02  0.7816164E-02  0.1226708E+00
        -11   -1    0    0    0    0  0.00000000000E+00  0.00000000000E+00  0.45593999997E+02  0.45594000000E+02  0.51100000000E-03 0. -1.
         11   -1    0    0    0    0 -0.00000000000E+00 -0.00000000000E+00 -0.45593999997E+02  0.45594000000E+02  0.51100000000E-03 0.  1.
    9900012    2    1    2    0    0  0.14287259843E+02  0.52652787354E+01 -0.10900992502E+02  0.72461532327E+02  0.69999950540E+02 0.  0.
         12    1    1    2    0    0 -0.14287259843E+02 -0.52652787354E+01  0.10900992502E+02  0.18726467673E+02  0.00000000000E+00 0. -1.
         11    1    3    3    0    0 -0.97951579480E+01 -0.15868572111E+01 -0.54923392293E+01  0.11341473692E+02  0.51100000000E-03 0. -1.
        -11    1    3    3    0    0  0.48312535382E+00  0.54677549930E+01 -0.27933173980E+02  0.28467384208E+02  0.51100000000E-03 0.  1.
        -12    1    3    3    0    0  0.23599292437E+02  0.13843809535E+01  0.22524520707E+02  0.32652674427E+02  0.00000000000E+00 0.  1.
</event>
<event>
 7    1  0.2932741E-013  0.7246150E+02  0.7816164E-02  0.1226708E+00
        -11   -1    0    0    0    0  0.00000000000E+00  0.00000000000E+00  0.45593999997E+02  0.45594000000E+02  0.51100000000E-03 0. -1.
         11   -1    0    0    0    0 -0.00000000000E+00 -0.00000000000E+00 -0.45593999997E+02  0.45594000000E+02  0.51100000000E-03 0.  1.
    9900012    2    1    2    0    0 -0.12834255027E+02  0.62049415135E+01 -0.12143406566E+02  0.72461502080E+02  0.69999911139E+02 0.  0.
         12    1    1    2    0    0  0.12834255027E+02 -0.62049415135E+01  0.12143406566E+02  0.18726497920E+02  0.00000000000E+00 0. -1.
         11    1    3    3    0    0 -0.13631619232E+01  0.22063113467E+01 -0.11413711708E+02  0.11704650162E+02  0.51100000000E-03 0. -1.
        -11    1    3    3    0    0 -0.18096018092E+02  0.25879369522E+02 -0.13755787451E+02  0.34444583410E+02  0.51100000000E-03 0.  1.
         12    1    3    3    0    0  0.66249249877E+01 -0.21880739356E+02  0.13026092592E+02  0.26312268509E+02  0.00000000000E+00 0. -1.
</event>
<event>
 7    1  0.2932741E-013  0.7246157E+02  0.7816164E-02  0.1226708E+00
        -11   -1    0    0    0    0  0.00000000000E+00  0.00000000000E+00  0.45593999997E+02  0.45594000000E+02  0.51100000000E-03 0. -1.
         11   -1    0    0    0    0 -0.00000000000E+00 -0.00000000000E+00 -0.45593999997E+02  0.45594000000E+02  0.51100000000E-03 0.  1.
    9900012    2    1    2    0    0  0.43690147414E+01  0.13775427810E+02 -0.11909172763E+02  0.72461572229E+02  0.70000002520E+02 0.  0.
         12    1    1    2    0    0 -0.43690147414E+01 -0.13775427810E+02  0.11909172763E+02  0.18726427771E+02  0.00000000000E+00 0. -1.
         11    1    3    3    0    0 -0.96424684532E+01  0.42623615579E+01  0.18343843740E+02  0.21157540674E+02  0.51100000000E-03 0. -1.
        -11    1    3    3    0    0  0.16468453428E+01 -0.34969304823E+01  0.80911742298E+01  0.89670353551E+01  0.51100000000E-03 0.  1.
        -12    1    3    3    0    0  0.12364637852E+02  0.13009996735E+02 -0.38344190733E+02  0.42336996200E+02  0.00000000000E+00 0.  1.
</event>
<event>
 7    1  0.2932741E-013  0.7246086E+02  0.7816164E-02  0.1226710E+00
        -11   -1    0    0    0    0  0.00000000000E+00  0.00000000000E+00  0.45593999997E+02  0.45594000000E+02  0.51100000000E-03 0. -1.
         11   -1    0    0    0    0 -0.00000000000E+00 -0.00000000000E+00 -0.45593999997E+02  0.45594000000E+02  0.51100000000E-03 0.  1.
    9900012    2    1    2    0    0 -0.12321911947E+02 -0.21797557602E+01 -0.13932868674E+02  0.72460862507E+02  0.69999077970E+02 0.  0.
         12    1    1    2    0    0  0.12321911947E+02  0.21797557602E+01  0.13932868674E+02  0.18727137493E+02  0.00000000000E+00 0. -1.
         11    1    3    3    0    0 -0.56039626903E+01 -0.20535317140E+01 -0.68951979293E+01  0.91194925890E+01  0.51100000000E-03 0. -1.
        -11    1    3    3    0    0 -0.11033776758E+01 -0.12226885036E+02 -0.32420311575E+02  0.34666853951E+02  0.51100000000E-03 0.  1.
         12    1    3    3    0    0 -0.56145715804E+01  0.12100660990E+02  0.25382640830E+02  0.28674515967E+02  0.00000000000E+00 0. -1.
</event>
<event>
 7    1  0.2932741E-013  0.7246157E+02  0.7816164E-02  0.1226708E+00
        -11   -1    0    0    0    0  0.00000000000E+00  0.00000000000E+00  0.45593999997E+02  0.45594000000E+02  0.51100000000E-03 0.  1.
         11   -1    0    0    0    0 -0.00000000000E+00 -0.00000000000E+00 -0.45593999997E+02  0.45594000000E+02  0.51100000000E-03 0. -1.
    9900012    2    1    2    0    0  0.17842108194E+02 -0.27775684422E+01 -0.49622061568E+01  0.72461569449E+02  0.69999998898E+02 0.  0.
         12    1    1    2    0    0 -0.17842108194E+02  0.27775684422E+01  0.49622061568E+01  0.18726430551E+02  0.00000000000E+00 0. -1.
         11    1    3    3    0    0  0.15755960308E+02  0.23226744634E+02 -0.16322739737E+02  0.32467888510E+02  0.51100000000E-03 0. -1.
        -11    1    3    3    0    0  0.99495841765E+01 -0.95831548529E+01 -0.57924395979E+01  0.14979433867E+02  0.51100000000E-03 0.  1.
        -12    1    3    3    0    0 -0.78634362909E+01 -0.16421158224E+02  0.17152973178E+02  0.25014247071E+02  0.00000000000E+00 0.  1.
</event>
<event>
 7    1  0.2932741E-013  0.7246158E+02  0.7816164E-02  0.1226708E+00
        -11   -1    0    0    0    0  0.00000000000E+00  0.00000000000E+00  0.45593999997E+02  0.45594000000E+02  0.51100000000E-03 0. -1.
         11   -1    0    0    0    0 -0.00000000000E+00 -0.00000000000E+00 -0.45593999997E+02  0.45594000000E+02  0.51100000000E-03 0.  1.
    9900012    2    1    2    0    0 -0.40451644302E+01  0.16100234811E+02 -0.86659122363E+01  0.72461576126E+02  0.70000007596E+02 0.  0.
         12    1    1    2    0    0  0.40451644302E+01 -0.16100234811E+02  0.86659122363E+01  0.18726423874E+02  0.00000000000E+00 0. -1.
         11    1    3    3    0    0  0.16902811714E+02  0.10043198874E+01  0.65098969491E+01  0.18140905733E+02  0.51100000000E-03 0. -1.
        -11    1    3    3    0    0  0.70312190633E+01  0.28662326683E+01 -0.21791958187E+02  0.23076888289E+02  0.51100000000E-03 0.  1.
         12    1    3    3    0    0 -0.27979195207E+02  0.12229682255E+02  0.66161490018E+01  0.31243782103E+02  0.00000000000E+00 0. -1.
</event>
<event>
 7    1  0.2932741E-013  0.7246156E+02  0.7816164E-02  0.1226708E+00
        -11   -1    0    0    0    0  0.00000000000E+00  0.00000000000E+00  0.45593999997E+02  0.45594000000E+02  0.51100000000E-03 0.  1.
         11   -1    0    0    0    0 -0.00000000000E+00 -0.00000000000E+00 -0.45593999997E+02  0.45594000000E+02  0.51100000000E-03 0. -1.
    9900012    2    1    2    0    0 -0.18643932048E+02 -0.16911962899E+01 -0.47262270840E+00  0.72461555615E+02  0.69999980877E+02 0.  0.
         12    1    1    2    0    0  0.18643932048E+02  0.16911962899E+01  0.47262270840E+00  0.18726444385E+02  0.00000000000E+00 0. -1.
         11    1    3    3    0    0 -0.25039159777E+02  0.90698716408E+01 -0.21351604978E+02  0.34133753520E+02  0.51100000000E-03 0. -1.
        -11    1    3    3    0    0 -0.90978657733E+01 -0.74872457462E+01 -0.41661032496E+00  0.11789977732E+02  0.51100000000E-03 0.  1.
        -12    1    3    3    0    0  0.15493093503E+02 -0.32738221845E+01  0.21295592595E+02  0.26537824364E+02  0.00000000000E+00 0.  1.
</event>
<event>
 7    1  0.2932741E-013  0.7246163E+02  0.7816164E-02  0.1226708E+00
        -11   -1    0    0    0    0  0.00000000000E+00  0.00000000000E+00  0.45593999997E+02  0.45594000000E+02  0.51100000000E-03 0. -1.
         11   -1    0    0    0    0 -0.00000000000E+00 -0.00000000000E+00 -0.45593999997E+02  0.45594000000E+02  0.51100000000E-03 0.  1.
    9900012    2    1    2    0    0 -0.81644663119E+01 -0.13152616819E+02 -0.10536946144E+02  0.72461626261E+02  0.70000072907E+02 0.  0.
         12    1    1    2    0    0  0.81644663119E+01  0.13152616819E+02  0.10536946144E+02  0.18726373739E+02  0.00000000000E+00 0. -1.
         11    1    3    3    0    0  0.80824416797E+01  0.17901555714E+02 -0.86277121082E+01  0.21452947979E+02  0.51100000000E-03 0. -1.
        -11    1    3    3    0    0  0.20232031256E+00  0.71720958501E+01 -0.57805102095E+01  0.92138043682E+01  0.51100000000E-03 0.  1.
         12    1    3    3    0    0 -0.16449228304E+02 -0.38226268384E+02  0.38712761738E+01  0.41794873915E+02  0.00000000000E+00 0. -1.
</event>
<event>
 7    1  0.2932741E-013  0.7246153E+02  0.7816164E-02  0.1226708E+00
        -11   -1    0    0    0    0  0.00000000000E+00  0.00000000000E+00  0.45593999997E+02  0.45594000000E+02  0.51100000000E-03 0.  1.
         11   -1    0    0    0    0 -0.00000000000E+00 -0.00000000000E+00 -0.45593999997E+02  0.45594000000E+02  0.51100000000E-03 0. -1.
    9900012    2    1    2    0    0 -0.10092687215E+02  0.15493543272E+02  0.29611425837E+01  0.72461532534E+02  0.69999950810E+02 0.  0.
         12    1    1    2    0    0  0.10092687215E+02 -0.15493543272E+02 -0.29611425837E+01  0.18726467466E+02  0.00000000000E+00 0. -1.
         11    1    3    3    0    0  0.11616712215E+02 -0.43702836508E+01 -0.10090109845E+02  0.15995552470E+02  0.51100000000E-03 0. -1.
        -11    1    3    3    0    0  0.52391992769E+01 -0.17711825108E+01  0.20398508752E+02  0.21134934495E+02  0.51100000000E-03 0.  1.
        -12    1    3    3    0    0 -0.26948598708E+02  0.21635009434E+02 -0.73472563230E+01  0.35331045569E+02  0.00000000000E+00 0.  1.
</event>
<event>
 7    1  0.2932741E-013  0.7246160E+02  0.7816164E-02  0.1226708E+00
        -11   -1    0    0    0    0  0.00000000000E+00  0.00000000000E+00  0.45593999997E+02  0.45594000000E+02  0.51100000000E-03 0. -1.
         11   -1    0    0    0    0 -0.00000000000E+00 -0.00000000000E+00 -0.45593999997E+02  0.45594000000E+02  0.51100000000E-03 0.  1.
    9900012    2    1    2    0    0 -0.13794653552E+02  0.67888008361E+01 -0.10691008861E+02  0.72461602752E+02  0.70000042282E+02 0.  0.
         12    1    1    2    0    0  0.13794653552E+02 -0.67888008361E+01  0.10691008861E+02  0.18726397248E+02  0.00000000000E+00 0. -1.
         11    1    3    3    0    0 -0.27341110006E+02 -0.52389207529E+00 -0.29485737432E+01  0.27504633185E+02  0.51100000000E-03 0. -1.
        -11    1    3    3    0    0 -0.60795711442E+01 -0.13565247461E+02  0.12682349806E+01  0.14919301063E+02  0.51100000000E-03 0.  1.
         12    1    3    3    0    0  0.19626027598E+02  0.20877940373E+02 -0.90106700987E+01  0.30037668504E+02  0.00000000000E+00 0. -1.
</event>
<event>
 7    1  0.2932741E-013  0.7246150E+02  0.7816164E-02  0.1226708E+00
        -11   -1    0    0    0    0  0.00000000000E+00  0.00000000000E+00  0.45593999997E+02  0.45594000000E+02  0.51100000000E-03 0.  1.
         11   -1    0    0    0    0 -0.00000000000E+00 -0.00000000000E+00 -0.45593999997E+02  0.45594000000E+02  0.51100000000E-03 0. -1.
    9900012    2    1    2    0    0  0.92234888605E+01 -0.15761592597E+02  0.41450053421E+01  0.72461504940E+02  0.69999914864E+02 0.  0.
         12    1    1    2    0    0 -0.92234888605E+01  0.15761592597E+02 -0.41450053421E+01  0.18726495060E+02  0.00000000000E+00 0. -1.
         11    1    3    3    0    0  0.16593762581E+02 -0.16260966863E+02 -0.32636117822E+01  0.23461098909E+02  0.51100000000E-03 0. -1.
        -11    1    3    3    0    0  0.82411328214E+01 -0.19448818492E+02  0.10308891497E+02  0.23504171015E+02  0.51100000000E-03 0.  1.
        -12    1    3    3    0    0 -0.15611406542E+02  0.19948192759E+02 -0.29002743725E+01  0.25496235016E+02  0.00000000000E+00 0.  1.
</event>
<event>
 7    1  0.2932741E-013  0.7246158E+02  0.7816164E-02  0.1226708E+00
        -11   -1    0    0    0    0  0.00000000000E+00  0.00000000000E+00  0.45593999997E+02  0.45594000000E+02  0.51100000000E-03 0.  1.
         11   -1    0    0    0    0 -0.00000000000E+00 -0.00000000000E+00 -0.45593999997E+02  0.45594000000E+02  0.51100000000E-03 0. -1.
    9900012    2    1    2    0    0 -0.16076141532E+02 -0.88721378024E+01  0.36771816316E+01  0.72461579614E+02  0.70000012140E+02 0.  0.
         12    1    1    2    0    0  0.16076141532E+02  0.88721378024E+01 -0.36771816316E+01  0.18726420386E+02  0.00000000000E+00 0. -1.
         11    1    3    3    0    0  0.17284965944E+02 -0.68131578851E+01  0.66340090869E+01  0.19728133335E+02  0.51100000000E-03 0. -1.
        -11    1    3    3    0    0 -0.13953922033E+02  0.15154952794E+02  0.10917607597E+02  0.23314774076E+02  0.51100000000E-03 0.  1.
        -12    1    3    3    0    0 -0.19407185442E+02 -0.17213932711E+02 -0.13874435053E+02  0.29418672203E+02  0.00000000000E+00 0.  1.
</event>
<event>
 7    1  0.2932741E-013  0.7246157E+02  0.7816164E-02  0.1226708E+00
        -11   -1    0    0    0    0  0.00000000000E+00  0.00000000000E+00  0.45593999997E+02  0.45594000000E+02  0.51100000000E-03 0. -1.
         11   -1    0    0    0    0 -0.00000000000E+00 -0.00000000000E+00 -0.45593999997E+02  0.45594000000E+02  0.51100000000E-03 0.  1.
    9900012    2    1    2    0    0 -0.15025798112E+02  0.98564942096E+01 -0.52682216152E+01  0.72461568253E+02  0.69999997340E+02 0.  0.
         12    1    1    2    0    0  0.15025798112E+02 -0.98564942096E+01  0.52682216152E+01  0.18726431747E+02  0.00000000000E+00 0. -1.
         11    1    3    3    0    0 -0.17616975976E+01 -0.16824815091E+01  0.27552480004E+01  0.36777322169E+01  0.51100000000E-03 0. -1.
        -11    1    3    3    0    0  0.79823990987E+01 -0.24860368464E+02 -0.17015828273E+01  0.26165855613E+02  0.51100000000E-03 0.  1.
         12    1    3    3    0    0 -0.21246499613E+02  0.36399344183E+02 -0.63218867883E+01  0.42617980423E+02  0.00000000000E+00 0. -1.
</event>
<event>
 7    1  0.2932741E-013  0.7246156E+02  0.7816164E-02  0.1226708E+00
        -11   -1    0    0    0    0  0.00000000000E+00  0.00000000000E+00  0.45593999997E+02  0.45594000000E+02  0.51100000000E-03 0. -1.
         11   -1    0    0    0    0 -0.00000000000E+00 -0.00000000000E+00 -0.45593999997E+02  0.45594000000E+02  0.51100000000E-03 0.  1.
    9900012    2    1    2    0    0 -0.41187737713E+01  0.12899908218E+02 -0.12934741849E+02  0.72461562108E+02  0.69999989336E+02 0.  0.
         12    1    1    2    0    0  0.41187737713E+01 -0.12899908218E+02  0.12934741849E+02  0.18726437892E+02  0.00000000000E+00 0. -1.
         11    1    3    3    0    0 -0.55365959015E+01  0.21937161703E+02 -0.13082589458E+02  0.26135169885E+02  0.51100000000E-03 0. -1.
        -11    1    3    3    0    0  0.13735402737E+02  0.14338848023E+02  0.10989858018E+01  0.19886468290E+02  0.51100000000E-03 0.  1.
        -12    1    3    3    0    0 -0.12317580607E+02 -0.23376101508E+02 -0.95113819224E+00  0.26439923933E+02  0.00000000000E+00 0.  1.
</event>
<event>
 7    1  0.2932741E-013  0.7246081E+02  0.7816164E-02  0.1226710E+00
        -11   -1    0    0    0    0  0.00000000000E+00  0.00000000000E+00  0.45593999997E+02  0.45594000000E+02  0.51100000000E-03 0. -1.
         11   -1    0    0    0    0 -0.00000000000E+00 -0.00000000000E+00 -0.45593999997E+02  0.45594000000E+02  0.51100000000E-03 0.  1.
    9900012    2    1    2    0    0  0.13084079094E+01 -0.14566042227E+02  0.11697262177E+02  0.72460814951E+02  0.69999016018E+02 0.  0.
         12    1    1    2    0    0 -0.13084079094E+01  0.14566042227E+02 -0.11697262177E+02  0.18727185049E+02  0.00000000000E+00 0. -1.
         11    1    3    3    0    0 -0.23968600642E+02  0.22085822721E+01  0.84288073467E+01  0.25503263437E+02  0.51100000000E-03 0. -1.
        -11    1    3    3    0    0  0.21471456789E+02  0.46299124061E+01  0.10090868277E+02  0.24171991403E+02  0.51100000000E-03 0.  1.
        -12    1    3    3    0    0  0.38055517619E+01 -0.21404536905E+02 -0.68224134468E+01  0.22785560111E+02  0.00000000000E+00 0.  1.
</event>
<event>
 7    1  0.2932741E-013  0.7246159E+02  0.7816164E-02  0.1226708E+00
        -11   -1    0    0    0    0  0.00000000000E+00  0.00000000000E+00  0.45593999997E+02  0.45594000000E+02  0.51100000000E-03 0.  1.
         11   -1    0    0    0    0 -0.00000000000E+00 -0.00000000000E+00 -0.45593999997E+02  0.45594000000E+02  0.51100000000E-03 0. -1.
    9900012    2    1    2    0    0 -0.15822300066E+02  0.89533844722E+01 -0.44911179424E+01  0.72461590487E+02  0.70000026304E+02 0.  0.
         12    1    1    2    0    0  0.15822300066E+02 -0.89533844722E+01  0.44911179424E+01  0.18726409513E+02  0.00000000000E+00 0. -1.
         11    1    3    3    0    0 -0.13134453341E+02  0.86446412757E+01  0.14568560027E+02  0.21435639223E+02  0.51100000000E-03 0. -1.
        -11    1    3    3    0    0  0.20554254176E+02  0.90943386506E+01 -0.95532047804E+01  0.24422286586E+02  0.51100000000E-03 0.  1.
         12    1    3    3    0    0 -0.23242100901E+02 -0.87855954541E+01 -0.95064731893E+01  0.26603664678E+02  0.00000000000E+00 0. -1.
</event>
<event>
 7    1  0.2932741E-013  0.7246161E+02  0.7816164E-02  0.1226708E+00
        -11   -1    0    0    0    0  0.00000000000E+00  0.00000000000E+00  0.45593999997E+02  0.45594000000E+02  0.51100000000E-03 0. -1.
         11   -1    0    0    0    0 -0.00000000000E+00 -0.00000000000E+00 -0.45593999997E+02  0.45594000000E+02  0.51100000000E-03 0.  1.
    9900012    2    1    2    0    0 -0.76261433846E+01 -0.92098698744E+01 -0.14411727540E+02  0.72461610687E+02  0.70000052619E+02 0.  0.
         12    1    1    2    0    0  0.76261433846E+01  0.92098698744E+01  0.14411727540E+02  0.18726389313E+02  0.00000000000E+00 0. -1.
         11    1    3    3    0    0  0.11620788027E+02 -0.76989602785E+00  0.92271979745E+00  0.11682759364E+02  0.51100000000E-03 0. -1.
        -11    1    3    3    0    0 -0.35254768400E+01 -0.22393653562E+02 -0.28162655531E+02  0.36153006425E+02  0.51100000000E-03 0.  1.
         12    1    3    3    0    0 -0.15721454572E+02  0.13953679715E+02  0.12828208193E+02  0.24625844897E+02  0.00000000000E+00 0. -1.
</event>
<event>
 7    1  0.2932741E-013  0.7246160E+02  0.7816164E-02  0.1226708E+00
        -11   -1    0    0    0    0  0.00000000000E+00  0.00000000000E+00  0.45593999997E+02  0.45594000000E+02  0.51100000000E-03 0. -1.
         11   -1    0    0    0    0 -0.00000000000E+00 -0.00000000000E+00 -0.45593999997E+02  0.45594000000E+02  0.51100000000E-03 0.  1.
    9900012    2    1    2    0    0  0.68266557125E+01 -0.11610629618E+02 -0.13010306121E+02  0.72461601155E+02  0.70000040201E+02 0.  0.
         12    1    1    2    0    0 -0.68266557125E+01  0.11610629618E+02  0.13010306121E+02  0.18726398845E+02  0.00000000000E+00 0. -1.
         11    1    3    3    0    0 -0.26481961318E+00  0.94114865131E+01 -0.94664419506E+01  0.13351394357E+02  0.51100000000E-03 0. -1.
        -11    1    3    3    0    0  0.30524525938E+02 -0.99010248286E+01  0.33695287484E+01  0.32266557000E+02  0.51100000000E-03 0.  1.
         12    1    3    3    0    0 -0.23433050613E+02 -0.11121091303E+02 -0.69133929187E+01  0.26843649797E+02  0.00000000000E+00 0. -1.
</event>
<event>
 7    1  0.2932741E-013  0.7246152E+02  0.7816164E-02  0.1226708E+00
        -11   -1    0    0    0    0  0.00000000000E+00  0.00000000000E+00  0.45593999997E+02  0.45594000000E+02  0.51100000000E-03 0.  1.
         11   -1    0    0    0    0 -0.00000000000E+00 -0.00000000000E+00 -0.45593999997E+02  0.45594000000E+02  0.51100000000E-03 0. -1.
    9900012    2    1    2    0    0  0.14801504464E+02  0.35978039773E+01  0.10892757858E+02  0.72461524047E+02  0.69999939754E+02 0.  0.
         12    1    1    2    0    0 -0.14801504464E+02 -0.35978039773E+01 -0.10892757858E+02  0.18726475953E+02  0.00000000000E+00 0. -1.
         11    1    3    3    0    0  0.80925165122E+01  0.14179145492E+00  0.14189325335E+01  0.82171952705E+01  0.51100000000E-03 0. -1.
        -11    1    3    3    0    0  0.27112119991E+02 -0.16213081796E+02 -0.56961859719E+01  0.32099495427E+02  0.51100000000E-03 0.  1.
         12    1    3    3    0    0 -0.20403132039E+02  0.19669094319E+02  0.15170011297E+02  0.32144833350E+02  0.00000000000E+00 0. -1.
</event>
<event>
 7    1  0.2932741E-013  0.7246210E+02  0.7816164E-02  0.1226707E+00
        -11   -1    0    0    0    0  0.00000000000E+00  0.00000000000E+00  0.45593999997E+02  0.45594000000E+02  0.51100000000E-03 0.  1.
         11   -1    0    0    0    0 -0.00000000000E+00 -0.00000000000E+00 -0.45593999997E+02  0.45594000000E+02  0.51100000000E-03 0. -1.
    9900012    2    1    2    0    0 -0.53492177464E+01  0.56694341783E+01  0.17026530058E+02  0.72462099749E+02  0.70000689709E+02 0.  0.
         12    1    1    2    0    0  0.53492177464E+01 -0.56694341783E+01 -0.17026530058E+02  0.18725900251E+02  0.00000000000E+00 0. -1.
         11    1    3    3    0    0 -0.11973279652E+02 -0.70890992275E+01 -0.26194928925E+01  0.14158972306E+02  0.51100000000E-03 0. -1.
        -11    1    3    3    0    0  0.70321512796E+01  0.10397697835E+01 -0.17745372287E+02  0.19116236834E+02  0.51100000000E-03 0.  1.
        -12    1    3    3    0    0 -0.40808937369E+00  0.11718763622E+02  0.37391395238E+02  0.39186890609E+02  0.00000000000E+00 0.  1.
</event>
<event>
 7    1  0.2932741E-013  0.7246156E+02  0.7816164E-02  0.1226708E+00
        -11   -1    0    0    0    0  0.00000000000E+00  0.00000000000E+00  0.45593999997E+02  0.45594000000E+02  0.51100000000E-03 0.  1.
         11   -1    0    0    0    0 -0.00000000000E+00 -0.00000000000E+00 -0.45593999997E+02  0.45594000000E+02  0.51100000000E-03 0. -1.
    9900012    2    1    2    0    0  0.53859399011E+01  0.17851133619E+02  0.17344616039E+01  0.72461556741E+02  0.69999982344E+02 0.  0.
         12    1    1    2    0    0 -0.53859399011E+01 -0.17851133619E+02 -0.17344616039E+01  0.18726443259E+02  0.00000000000E+00 0. -1.
         11    1    3    3    0    0 -0.10468533470E+02 -0.12326658116E+02 -0.79381754577E+00  0.16191566938E+02  0.51100000000E-03 0. -1.
        -11    1    3    3    0    0 -0.76638792427E+01  0.16690558423E+02  0.17441144950E+02  0.25327915883E+02  0.51100000000E-03 0.  1.
         12    1    3    3    0    0  0.23518352614E+02  0.13487233312E+02 -0.14912865801E+02  0.30942073920E+02  0.00000000000E+00 0. -1.
</event>
<event>
 7    1  0.2932741E-013  0.7246159E+02  0.7816164E-02  0.1226708E+00
        -11   -1    0    0    0    0  0.00000000000E+00  0.00000000000E+00  0.45593999997E+02  0.45594000000E+02  0.51100000000E-03 0.  1.
         11   -1    0    0    0    0 -0.00000000000E+00 -0.00000000000E+00 -0.45593999997E+02  0.45594000000E+02  0.51100000000E-03 0. -1.
    9900012    2    1    2    0    0  0.27355926964E+01 -0.16636380118E+02  0.81502104233E+01  0.72461587082E+02  0.70000021869E+02 0.  0.
         12    1    1    2    0    0 -0.27355926964E+01  0.16636380118E+02 -0.81502104233E+01  0.18726412918E+02  0.00000000000E+00 0. -1.
         11    1    3    3    0    0 -0.71250325644E+00 -0.11981182286E+02 -0.55445340546E+01  0.13221128848E+02  0.51100000000E-03 0. -1.
        -11    1    3    3    0    0 -0.22461479252E+02 -0.17593586634E+02  0.47059475227E+01  0.28917093270E+02  0.51100000000E-03 0.  1.
        -12    1    3    3    0    0  0.25909575205E+02  0.12938388802E+02  0.89887969551E+01  0.30323364965E+02  0.00000000000E+00 0.  1.
</event>
<event>
 7    1  0.2932741E-013  0.7246111E+02  0.7816164E-02  0.1226709E+00
        -11   -1    0    0    0    0  0.00000000000E+00  0.00000000000E+00  0.45593999997E+02  0.45594000000E+02  0.51100000000E-03 0.  1.
         11   -1    0    0    0    0 -0.00000000000E+00 -0.00000000000E+00 -0.45593999997E+02  0.45594000000E+02  0.51100000000E-03 0. -1.
    9900012    2    1    2    0    0  0.94903156192E+01 -0.13681062575E+02  0.85708185513E+01  0.72461107722E+02  0.69999397411E+02 0.  0.
         12    1    1    2    0    0 -0.94903156192E+01  0.13681062575E+02 -0.85708185513E+01  0.18726892278E+02  0.00000000000E+00 0. -1.
         11    1    3    3    0    0 -0.67723503266E+01 -0.72697563738E+01 -0.16070269292E+02  0.18893587326E+02  0.51100000000E-03 0. -1.
        -11    1    3    3    0    0 -0.11376680885E+02 -0.14777297515E+02  0.86479404540E+01  0.20556854433E+02  0.51100000000E-03 0.  1.
        -12    1    3    3    0    0  0.27639346831E+02  0.83659913139E+01  0.15993147389E+02  0.33010665963E+02  0.00000000000E+00 0.  1.
</event>
<event>
 7    1  0.2932741E-013  0.7246154E+02  0.7816164E-02  0.1226708E+00
        -11   -1    0    0    0    0  0.00000000000E+00  0.00000000000E+00  0.45593999997E+02  0.45594000000E+02  0.51100000000E-03 0.  1.
         11   -1    0    0    0    0 -0.00000000000E+00 -0.00000000000E+00 -0.45593999997E+02  0.45594000000E+02  0.51100000000E-03 0. -1.
    9900012    2    1    2    0    0 -0.12100937376E+02  0.14248977075E+02  0.11018549934E+01  0.72461544983E+02  0.69999967028E+02 0.  0.
         12    1    1    2    0    0  0.12100937376E+02 -0.14248977075E+02 -0.11018549934E+01  0.18726455017E+02  0.00000000000E+00 0. -1.
         11    1    3    3    0    0 -0.15043455264E+02  0.84954536664E+01 -0.28080968283E+02  0.32969972085E+02  0.51100000000E-03 0. -1.
        -11    1    3    3    0    0 -0.68187575534E+00 -0.78855162999E+01  0.10065521842E+01  0.79786884525E+01  0.51100000000E-03 0.  1.
        -12    1    3    3    0    0  0.36243936430E+01  0.13639039708E+02  0.28176271092E+02  0.31512884446E+02  0.00000000000E+00 0.  1.
</event>
<event>
 7    1  0.2932741E-013  0.7246157E+02  0.7816164E-02  0.1226708E+00
        -11   -1    0    0    0    0  0.00000000000E+00  0.00000000000E+00  0.45593999997E+02  0.45594000000E+02  0.51100000000E-03 0. -1.
         11   -1    0    0    0    0 -0.00000000000E+00 -0.00000000000E+00 -0.45593999997E+02  0.45594000000E+02  0.51100000000E-03 0.  1.
    9900012    2    1    2    0    0 -0.89643534628E+01 -0.16409378009E+02  0.10255497358E+01  0.72461572900E+02  0.70000003395E+02 0.  0.
         12    1    1    2    0    0  0.89643534628E+01  0.16409378009E+02 -0.10255497358E+01  0.18726427100E+02  0.00000000000E+00 0. -1.
         11    1    3    3    0    0  0.12090714983E+02  0.11164123527E+02  0.45096448608E+00  0.16462879825E+02  0.51100000000E-03 0. -1.
        -11    1    3    3    0    0 -0.26280990820E+02 -0.38311848470E+01  0.11991780568E+02  0.29140543188E+02  0.51100000000E-03 0.  1.
        -12    1    3    3    0    0  0.52259223750E+01 -0.23742316689E+02 -0.11417195318E+02  0.26858149887E+02  0.00000000000E+00 0.  1.
</event>
<event>
 7    1  0.2932741E-013  0.7246159E+02  0.7816164E-02  0.1226708E+00
        -11   -1    0    0    0    0  0.00000000000E+00  0.00000000000E+00  0.45593999997E+02  0.45594000000E+02  0.51100000000E-03 0.  1.
         11   -1    0    0    0    0 -0.00000000000E+00 -0.00000000000E+00 -0.45593999997E+02  0.45594000000E+02  0.51100000000E-03 0. -1.
    9900012    2    1    2    0    0 -0.57996078819E+01  0.14597583986E+02  0.10195762443E+02  0.72461588662E+02  0.70000023927E+02 0.  0.
         12    1    1    2    0    0  0.57996078819E+01 -0.14597583986E+02 -0.10195762443E+02  0.18726411338E+02  0.00000000000E+00 0. -1.
         11    1    3    3    0    0 -0.15243764672E+02  0.25169232238E+01  0.10777041482E-02  0.15450154217E+02  0.51100000000E-03 0. -1.
        -11    1    3    3    0    0  0.89149658077E+01 -0.15772162779E+02  0.20454419748E+02  0.27324366810E+02  0.51100000000E-03 0.  1.
         12    1    3    3    0    0  0.52919098285E+00  0.27852823541E+02 -0.10259735010E+02  0.29687067635E+02  0.00000000000E+00 0. -1.
</event>
<event>
 7    1  0.2932741E-013  0.7246152E+02  0.7816164E-02  0.1226708E+00
        -11   -1    0    0    0    0  0.00000000000E+00  0.00000000000E+00  0.45593999997E+02  0.45594000000E+02  0.51100000000E-03 0. -1.
         11   -1    0    0    0    0 -0.00000000000E+00 -0.00000000000E+00 -0.45593999997E+02  0.45594000000E+02  0.51100000000E-03 0.  1.
    9900012    2    1    2    0    0  0.90158349194E+01  0.10274426742E+02 -0.12799686175E+02  0.72461519008E+02  0.69999933190E+02 0.  0.
         12    1    1    2    0    0 -0.90158349194E+01 -0.10274426742E+02  0.12799686175E+02  0.18726480992E+02  0.00000000000E+00 0. -1.
         11    1    3    3    0    0 -0.15261441365E+02 -0.19672367233E+02  0.68509571971E+00  0.24907488462E+02  0.51100000000E-03 0. -1.
        -11    1    3    3    0    0  0.14181773481E+02  0.56192066321E+00 -0.69514980918E+01  0.15803853324E+02  0.51100000000E-03 0.  1.
        -12    1    3    3    0    0  0.10095502803E+02  0.29384873311E+02 -0.65332838024E+01  0.31750177222E+02  0.00000000000E+00 0.  1.
</event>
<event>
 7    1  0.2932741E-013  0.7246136E+02  0.7816164E-02  0.1226709E+00
        -11   -1    0    0    0    0  0.00000000000E+00  0.00000000000E+00  0.45593999997E+02  0.45594000000E+02  0.51100000000E-03 0.  1.
         11   -1    0    0    0    0 -0.00000000000E+00 -0.00000000000E+00 -0.45593999997E+02  0.45594000000E+02  0.51100000000E-03 0. -1.
    9900012    2    1    2    0    0 -0.10415153164E+02  0.12713886234E+02 -0.89760107958E+01  0.72461358859E+02  0.69999724566E+02 0.  0.
         12    1    1    2    0    0  0.10415153164E+02 -0.12713886234E+02  0.89760107958E+01  0.18726641141E+02  0.00000000000E+00 0. -1.
         11    1    3    3    0    0  0.16353008359E+02 -0.33034801058E+01 -0.28806915205E+02  0.33289220884E+02  0.51100000000E-03 0. -1.
        -11    1    3    3    0    0 -0.53008367156E+01 -0.18872101931E+01  0.50015636947E+01  0.75283512041E+01  0.51100000000E-03 0.  1.
        -12    1    3    3    0    0 -0.21467324807E+02  0.17904576533E+02  0.14829340714E+02  0.31643786771E+02  0.00000000000E+00 0.  1.
</event>
<event>
 7    1  0.2932741E-013  0.7246159E+02  0.7816164E-02  0.1226708E+00
        -11   -1    0    0    0    0  0.00000000000E+00  0.00000000000E+00  0.45593999997E+02  0.45594000000E+02  0.51100000000E-03 0.  1.
         11   -1    0    0    0    0 -0.00000000000E+00 -0.00000000000E+00 -0.45593999997E+02  0.45594000000E+02  0.51100000000E-03 0. -1.
    9900012    2    1    2    0    0  0.20404941730E+01 -0.10218278023E+02  0.15559615304E+02  0.72461589489E+02  0.70000025004E+02 0.  0.
         12    1    1    2    0    0 -0.20404941730E+01  0.10218278023E+02 -0.15559615304E+02  0.18726410511E+02  0.00000000000E+00 0. -1.
         11    1    3    3    0    0  0.15182014584E+02 -0.12359499205E+02  0.53172610452E+01  0.20286055622E+02  0.51100000000E-03 0. -1.
        -11    1    3    3    0    0  0.16597161184E+02  0.16338215194E+01 -0.66684714590E+01  0.17961170452E+02  0.51100000000E-03 0.  1.
        -12    1    3    3    0    0 -0.29738681595E+02  0.50739966290E+00  0.16910825718E+02  0.34214363415E+02  0.00000000000E+00 0.  1.
</event>
<event>
 7    1  0.2932741E-013  0.7246142E+02  0.7816164E-02  0.1226708E+00
        -11   -1    0    0    0    0  0.00000000000E+00  0.00000000000E+00  0.45593999997E+02  0.45594000000E+02  0.51100000000E-03 0.  1.
         11   -1    0    0    0    0 -0.00000000000E+00 -0.00000000000E+00 -0.45593999997E+02  0.45594000000E+02  0.51100000000E-03 0. -1.
    9900012    2    1    2    0    0 -0.13961989664E+02 -0.56047950228E+01  0.11150509314E+02  0.72461421547E+02  0.69999806228E+02 0.  0.
         12    1    1    2    0    0  0.13961989664E+02  0.56047950228E+01 -0.11150509314E+02  0.18726578453E+02  0.00000000000E+00 0. -1.
         11    1    3    3    0    0 -0.10919867894E+02 -0.85068350179E+01  0.83355185052E+01  0.16158298978E+02  0.51100000000E-03 0. -1.
        -11    1    3    3    0    0 -0.14234342371E+02 -0.39704455136E+01  0.25856357429E+02  0.29781406281E+02  0.51100000000E-03 0.  1.
         12    1    3    3    0    0  0.11192220602E+02  0.68724855087E+01 -0.23041366621E+02  0.26521716287E+02  0.00000000000E+00 0. -1.
</event>
<event>
 7    1  0.2932741E-013  0.7246157E+02  0.7816164E-02  0.1226708E+00
        -11   -1    0    0    0    0  0.00000000000E+00  0.00000000000E+00  0.45593999997E+02  0.45594000000E+02  0.51100000000E-03 0.  1.
         11   -1    0    0    0    0 -0.00000000000E+00 -0.00000000000E+00 -0.45593999997E+02  0.45594000000E+02  0.51100000000E-03 0. -1.
    9900012    2    1    2    0    0 -0.76703127866E+01  0.16368083868E+02  0.48919797558E+01  0.72461565911E+02  0.69999994290E+02 0.  0.
         12    1    1    2    0    0  0.76703127866E+01 -0.16368083868E+02 -0.48919797558E+01  0.18726434089E+02  0.00000000000E+00 0. -1.
         11    1    3    3    0    0  0.28329973900E+01  0.13016417143E+02  0.45073535375E+01  0.14063044678E+02  0.51100000000E-03 0.  1.
        -11    1    3    3    0    0 -0.24422844769E+02  0.23098170863E+02  0.44185459690E+01  0.33904636742E+02  0.51100000000E-03 0. -1.
         12    1    3    3    0    0  0.13919534593E+02 -0.19746504138E+02 -0.40339197506E+01  0.24493884492E+02  0.00000000000E+00 0. -1.
</event>
<event>
 7    1  0.2932741E-013  0.7246152E+02  0.7816164E-02  0.1226708E+00
        -11   -1    0    0    0    0  0.00000000000E+00  0.00000000000E+00  0.45593999997E+02  0.45594000000E+02  0.51100000000E-03 0. -1.
         11   -1    0    0    0    0 -0.00000000000E+00 -0.00000000000E+00 -0.45593999997E+02  0.45594000000E+02  0.51100000000E-03 0.  1.
    9900012    2    1    2    0    0  0.16709060774E+02  0.69183514453E+01  0.48605166106E+01  0.72461523545E+02  0.69999939101E+02 0.  0.
         12    1    1    2    0    0 -0.16709060774E+02 -0.69183514453E+01 -0.48605166106E+01  0.18726476455E+02  0.00000000000E+00 0. -1.
         11    1    3    3    0    0 -0.60938988228E+01  0.28667142523E+01  0.11158296344E+02  0.13033082177E+02  0.51100000000E-03 0. -1.
        -11    1    3    3    0    0  0.41515487892E+01  0.79098270074E+01  0.22892654374E+02  0.24573854911E+02  0.51100000000E-03 0.  1.
        -12    1    3    3    0    0  0.18651410808E+02 -0.38581898144E+01 -0.29190434107E+02  0.34854586458E+02  0.00000000000E+00 0.  1.
</event>
<event>
 7    1  0.2932741E-013  0.7246204E+02  0.7816164E-02  0.1226707E+00
        -11   -1    0    0    0    0  0.00000000000E+00  0.00000000000E+00  0.45593999997E+02  0.45594000000E+02  0.51100000000E-03 0. -1.
         11   -1    0    0    0    0 -0.00000000000E+00 -0.00000000000E+00 -0.45593999997E+02  0.45594000000E+02  0.51100000000E-03 0.  1.
    9900012    2    1    2    0    0 -0.11520837667E+01  0.81250837692E+01 -0.16832029742E+02  0.72462041854E+02  0.70000614291E+02 0.  0.
         12    1    1    2    0    0  0.11520837667E+01 -0.81250837692E+01  0.16832029742E+02  0.18725958146E+02  0.00000000000E+00 0. -1.
         11    1    3    3    0    0 -0.59268634465E+01  0.95058955010E+01  0.73112183203E+01  0.13376982962E+02  0.51100000000E-03 0. -1.
        -11    1    3    3    0    0 -0.18552640882E+02  0.16265791145E+02 -0.11392082767E+02  0.27176386723E+02  0.51100000000E-03 0.  1.
         12    1    3    3    0    0  0.23327420561E+02 -0.17646602877E+02 -0.12751165296E+02  0.31908672169E+02  0.00000000000E+00 0. -1.
</event>
<event>
 7    1  0.2932741E-013  0.7246160E+02  0.7816164E-02  0.1226708E+00
        -11   -1    0    0    0    0  0.00000000000E+00  0.00000000000E+00  0.45593999997E+02  0.45594000000E+02  0.51100000000E-03 0.  1.
         11   -1    0    0    0    0 -0.00000000000E+00 -0.00000000000E+00 -0.45593999997E+02  0.45594000000E+02  0.51100000000E-03 0. -1.
    9900012    2    1    2    0    0 -0.93841277978E+01 -0.15850309299E+02 -0.33740070816E+01  0.72461599300E+02  0.70000037785E+02 0.  0.
         12    1    1    2    0    0  0.93841277978E+01  0.15850309299E+02  0.33740070816E+01  0.18726400700E+02  0.00000000000E+00 0. -1.
         11    1    3    3    0    0 -0.92464805266E+01 -0.17104089424E+02 -0.24294895504E+02  0.31117346046E+02  0.51100000000E-03 0. -1.
        -11    1    3    3    0    0 -0.17406292912E+02  0.40811043273E+01  0.79696200786E+01  0.19574199599E+02  0.51100000000E-03 0.  1.
        -12    1    3    3    0    0  0.17268645641E+02 -0.28273242021E+01  0.12951268344E+02  0.21770053655E+02  0.00000000000E+00 0.  1.
</event>
<event>
 7    1  0.2932741E-013  0.7246148E+02  0.7816164E-02  0.1226708E+00
        -11   -1    0    0    0    0  0.00000000000E+00  0.00000000000E+00  0.45593999997E+02  0.45594000000E+02  0.51100000000E-03 0.  1.
         11   -1    0    0    0    0 -0.00000000000E+00 -0.00000000000E+00 -0.45593999997E+02  0.45594000000E+02  0.51100000000E-03 0. -1.
    9900012    2    1    2    0    0 -0.31106849622E+01 -0.61033448737E+01  0.17428575678E+02  0.72461483246E+02  0.69999886604E+02 0.  0.
         12    1    1    2    0    0  0.31106849622E+01  0.61033448737E+01 -0.17428575678E+02  0.18726516754E+02  0.00000000000E+00 0. -1.
         11    1    3    3    0    0 -0.83724622442E+01 -0.62036856394E+01 -0.12398593036E+01  0.10493859676E+02  0.51100000000E-03 0. -1.
        -11    1    3    3    0    0  0.30506773616E+02 -0.87189838725E+01  0.56557762229E+01  0.32228430324E+02  0.51100000000E-03 0.  1.
         12    1    3    3    0    0 -0.25244996334E+02  0.88193246381E+01  0.13012658758E+02  0.29739193246E+02  0.00000000000E+00 0. -1.
</event>
<event>
 7    1  0.2932741E-013  0.7246152E+02  0.7816164E-02  0.1226708E+00
        -11   -1    0    0    0    0  0.00000000000E+00  0.00000000000E+00  0.45593999997E+02  0.45594000000E+02  0.51100000000E-03 0.  1.
         11   -1    0    0    0    0 -0.00000000000E+00 -0.00000000000E+00 -0.45593999997E+02  0.45594000000E+02  0.51100000000E-03 0. -1.
    9900012    2    1    2    0    0  0.74812401904E+01 -0.15668919964E+02 -0.70140563982E+01  0.72461521560E+02  0.69999936514E+02 0.  0.
         12    1    1    2    0    0 -0.74812401904E+01  0.15668919964E+02  0.70140563982E+01  0.18726478440E+02  0.00000000000E+00 0. -1.
         11    1    3    3    0    0 -0.21843063154E+01  0.13883768329E+02  0.49793610882E+01  0.14910541714E+02  0.51100000000E-03 0. -1.
        -11    1    3    3    0    0  0.27982094913E+02 -0.16755121568E+02 -0.95544725351E+00  0.32628892323E+02  0.51100000000E-03 0.  1.
        -12    1    3    3    0    0 -0.18316548407E+02 -0.12797566725E+02 -0.11037970233E+02  0.24922087523E+02  0.00000000000E+00 0.  1.
</event>
<event>
 7    1  0.2932741E-013  0.7246157E+02  0.7816164E-02  0.1226708E+00
        -11   -1    0    0    0    0  0.00000000000E+00  0.00000000000E+00  0.45593999997E+02  0.45594000000E+02  0.51100000000E-03 0. -1.
         11   -1    0    0    0    0 -0.00000000000E+00 -0.00000000000E+00 -0.45593999997E+02  0.45594000000E+02  0.51100000000E-03 0.  1.
    9900012    2    1    2    0    0  0.11311889236E+02 -0.11268725794E+02 -0.97844948042E+01  0.72461565270E+02  0.69999993455E+02 0.  0.
         12    1    1    2    0    0 -0.11311889236E+02  0.11268725794E+02  0.97844948042E+01  0.18726434730E+02  0.00000000000E+00 0. -1.
         11    1    3    3    0    0 -0.46620817362E-01  0.61222773777E+01  0.15098968624E+02  0.16293044760E+02  0.51100000000E-03 0. -1.
        -11    1    3    3    0    0 -0.11473327803E+02  0.85252575482E+01 -0.13147584340E+01  0.14354297515E+02  0.51100000000E-03 0.  1.
        -12    1    3    3    0    0  0.22831837857E+02 -0.25916260720E+02 -0.23568704994E+02  0.41814222995E+02  0.00000000000E+00 0.  1.
</event>
<event>
 7    1  0.2932741E-013  0.7246152E+02  0.7816164E-02  0.1226708E+00
        -11   -1    0    0    0    0  0.00000000000E+00  0.00000000000E+00  0.45593999997E+02  0.45594000000E+02  0.51100000000E-03 0.  1.
         11   -1    0    0    0    0 -0.00000000000E+00 -0.00000000000E+00 -0.45593999997E+02  0.45594000000E+02  0.51100000000E-03 0. -1.
    9900012    2    1    2    0    0  0.33968468520E+01  0.83442140808E+01  0.16416955465E+02  0.72461523986E+02  0.69999939675E+02 0.  0.
         12    1    1    2    0    0 -0.33968468520E+01 -0.83442140808E+01 -0.16416955465E+02  0.18726476014E+02  0.00000000000E+00 0. -1.
         11    1    3    3    0    0  0.12967242007E+02 -0.20501382290E+01 -0.66990808347E+00  0.13145387371E+02  0.51100000000E-03 0. -1.
        -11    1    3    3    0    0  0.37659715592E+00  0.32023305992E+02  0.43592865105E+01  0.32320849791E+02  0.51100000000E-03 0.  1.
        -12    1    3    3    0    0 -0.99469923112E+01 -0.21628953682E+02  0.12727577038E+02  0.26995286824E+02  0.00000000000E+00 0.  1.
</event>
<event>
 7    1  0.2932741E-013  0.7246158E+02  0.7816164E-02  0.1226708E+00
        -11   -1    0    0    0    0  0.00000000000E+00  0.00000000000E+00  0.45593999997E+02  0.45594000000E+02  0.51100000000E-03 0.  1.
         11   -1    0    0    0    0 -0.00000000000E+00 -0.00000000000E+00 -0.45593999997E+02  0.45594000000E+02  0.51100000000E-03 0. -1.
    9900012    2    1    2    0    0 -0.72126967313E+01  0.16211613842E+02  0.59866145088E+01  0.72461575601E+02  0.70000006913E+02 0.  0.
         12    1    1    2    0    0  0.72126967313E+01 -0.16211613842E+02 -0.59866145088E+01  0.18726424399E+02  0.00000000000E+00 0. -1.
         11    1    3    3    0    0  0.13831149485E+02 -0.12111791132E+02 -0.97528590226E+00  0.18410523169E+02  0.51100000000E-03 0. -1.
        -11    1    3    3    0    0 -0.37551655968E+01  0.55858776018E+01  0.21123071045E+02  0.22169515734E+02  0.51100000000E-03 0.  1.
         12    1    3    3    0    0 -0.17288680619E+02  0.22737527372E+02 -0.14161170634E+02  0.31881536699E+02  0.00000000000E+00 0. -1.
</event>
<event>
 7    1  0.2932741E-013  0.7246154E+02  0.7816164E-02  0.1226708E+00
        -11   -1    0    0    0    0  0.00000000000E+00  0.00000000000E+00  0.45593999997E+02  0.45594000000E+02  0.51100000000E-03 0.  1.
         11   -1    0    0    0    0 -0.00000000000E+00 -0.00000000000E+00 -0.45593999997E+02  0.45594000000E+02  0.51100000000E-03 0. -1.
    9900012    2    1    2    0    0  0.66852280555E+01  0.14808668307E+02  0.93108282998E+01  0.72461535977E+02  0.69999955295E+02 0.  0.
         12    1    1    2    0    0 -0.66852280555E+01 -0.14808668307E+02 -0.93108282998E+01  0.18726464023E+02  0.00000000000E+00 0. -1.
         11    1    3    3    0    0  0.18160559068E+02  0.30059787578E+01 -0.28608603632E+01  0.18628642898E+02  0.51100000000E-03 0. -1.
        -11    1    3    3    0    0  0.55939841131E+01  0.24911757503E+02 -0.53421974980E+01  0.26085003250E+02  0.51100000000E-03 0.  1.
        -12    1    3    3    0    0 -0.17069315126E+02 -0.13109067954E+02  0.17513886161E+02  0.27747889829E+02  0.00000000000E+00 0.  1.
</event>
<event>
 7    1  0.2932741E-013  0.7246147E+02  0.7816164E-02  0.1226708E+00
        -11   -1    0    0    0    0  0.00000000000E+00  0.00000000000E+00  0.45593999997E+02  0.45594000000E+02  0.51100000000E-03 0.  1.
         11   -1    0    0    0    0 -0.00000000000E+00 -0.00000000000E+00 -0.45593999997E+02  0.45594000000E+02  0.51100000000E-03 0. -1.
    9900012    2    1    2    0    0  0.16587349444E+02  0.74288405376E+01  0.45116519842E+01  0.72461472374E+02  0.69999872440E+02 0.  0.
         12    1    1    2    0    0 -0.16587349444E+02 -0.74288405376E+01 -0.45116519842E+01  0.18726527626E+02  0.00000000000E+00 0. -1.
         11    1    3    3    0    0  0.23358564980E+01  0.28260237889E+02 -0.58065198278E+00  0.28362553272E+02  0.51100000000E-03 0. -1.
        -11    1    3    3    0    0  0.17270308329E+02  0.39179323683E+01  0.71133526543E+01  0.19084379216E+02  0.51100000000E-03 0.  1.
         12    1    3    3    0    0 -0.30188153828E+01 -0.24749329720E+02 -0.20210486873E+01  0.25014539886E+02  0.00000000000E+00 0. -1.
</event>
<event>
 7    1  0.2932741E-013  0.7246171E+02  0.7816164E-02  0.1226708E+00
        -11   -1    0    0    0    0  0.00000000000E+00  0.00000000000E+00  0.45593999997E+02  0.45594000000E+02  0.51100000000E-03 0.  1.
         11   -1    0    0    0    0 -0.00000000000E+00 -0.00000000000E+00 -0.45593999997E+02  0.45594000000E+02  0.51100000000E-03 0. -1.
    9900012    2    1    2    0    0  0.51297227140E+01 -0.17755328085E+02 -0.30179946397E+01  0.72461707731E+02  0.70000179036E+02 0.  0.
         12    1    1    2    0    0 -0.51297227140E+01  0.17755328085E+02  0.30179946397E+01  0.18726292269E+02  0.00000000000E+00 0. -1.
         11    1    3    3    0    0 -0.44463453459E+01 -0.24786836731E+02 -0.93273927513E+01  0.26854376140E+02  0.51100000000E-03 0. -1.
        -11    1    3    3    0    0 -0.37610107711E+01 -0.87065903160E+01  0.19106685072E+02  0.21331088384E+02  0.51100000000E-03 0.  1.
        -12    1    3    3    0    0  0.13337078831E+02  0.15738098962E+02 -0.12797286960E+02  0.24276243207E+02  0.00000000000E+00 0.  1.
</event>
<event>
 7    1  0.2932741E-013  0.7246158E+02  0.7816164E-02  0.1226708E+00
        -11   -1    0    0    0    0  0.00000000000E+00  0.00000000000E+00  0.45593999997E+02  0.45594000000E+02  0.51100000000E-03 0.  1.
         11   -1    0    0    0    0 -0.00000000000E+00 -0.00000000000E+00 -0.45593999997E+02  0.45594000000E+02  0.51100000000E-03 0. -1.
    9900012    2    1    2    0    0 -0.16655157363E+02  0.40117812047E+01  0.75624169171E+01  0.72461580031E+02  0.70000012684E+02 0.  0.
         12    1    1    2    0    0  0.16655157363E+02 -0.40117812047E+01 -0.75624169171E+01  0.18726419969E+02  0.00000000000E+00 0. -1.
         11    1    3    3    0    0 -0.60052449819E+01  0.14483544069E+02  0.23678825503E+02  0.28399344949E+02  0.51100000000E-03 0. -1.
        -11    1    3    3    0    0  0.10357975797E+02  0.21711632097E+01  0.49989691138E+01  0.11704328463E+02  0.51100000000E-03 0.  1.
        -12    1    3    3    0    0 -0.21007888178E+02 -0.12642926074E+02 -0.21115377699E+02  0.32357906620E+02  0.00000000000E+00 0.  1.
</event>
<event>
 7    1  0.3265000E-013  0.7246157E+02  0.7816164E-02  0.1226708E+00
        -11   -1    0    0    0    0  0.00000000000E+00  0.00000000000E+00  0.45593999997E+02  0.45594000000E+02  0.51100000000E-03 0. -1.
         11   -1    0    0    0    0 -0.00000000000E+00 -0.00000000000E+00 -0.45593999997E+02  0.45594000000E+02  0.51100000000E-03 0.  1.
    9900012    2    1    2    0    0 -0.43252620315E+01  0.89756390926E+01 -0.15855888252E+02  0.72461569987E+02  0.69999999600E+02 0.  0.
         12    1    1    2    0    0  0.43252620315E+01 -0.89756390926E+01  0.15855888252E+02  0.18726430013E+02  0.00000000000E+00 0. -1.
         11    1    3    3    0    0 -0.47511494105E+01 -0.93389156368E+01  0.15268964086E+02  0.18518370082E+02  0.51100000000E-03 0. -1.
        -11    1    3    3    0    0  0.16804469427E+02  0.52788576408E+01 -0.15121361969E+01  0.17678888168E+02  0.51100000000E-03 0.  1.
        -12    1    3    3    0    0 -0.16378582049E+02  0.13035697089E+02 -0.29612716141E+02  0.36264311737E+02  0.00000000000E+00 0.  1.
</event>
<event>
 7    1  0.2932741E-013  0.7246150E+02  0.7816164E-02  0.1226708E+00
        -11   -1    0    0    0    0  0.00000000000E+00  0.00000000000E+00  0.45593999997E+02  0.45594000000E+02  0.51100000000E-03 0.  1.
         11   -1    0    0    0    0 -0.00000000000E+00 -0.00000000000E+00 -0.45593999997E+02  0.45594000000E+02  0.51100000000E-03 0. -1.
    9900012    2    1    2    0    0  0.97392940983E+01 -0.13776741431E+02  0.81258501320E+01  0.72461497541E+02  0.69999905225E+02 0.  0.
         12    1    1    2    0    0 -0.97392940983E+01  0.13776741431E+02 -0.81258501320E+01  0.18726502459E+02  0.00000000000E+00 0. -1.
         11    1    3    3    0    0 -0.10595690291E+02 -0.52800077083E+01 -0.67082615578E+01  0.13606906612E+02  0.51100000000E-03 0. -1.
        -11    1    3    3    0    0  0.50495387038E+01  0.17623370003E+02  0.21097125168E+02  0.27949413268E+02  0.51100000000E-03 0.  1.
         12    1    3    3    0    0  0.15285445686E+02 -0.26120103726E+02 -0.62630134786E+01  0.30905177661E+02  0.00000000000E+00 0. -1.
</event>
<event>
 7    1  0.2932741E-013  0.7246146E+02  0.7816164E-02  0.1226708E+00
        -11   -1    0    0    0    0  0.00000000000E+00  0.00000000000E+00  0.45593999997E+02  0.45594000000E+02  0.51100000000E-03 0. -1.
         11   -1    0    0    0    0 -0.00000000000E+00 -0.00000000000E+00 -0.45593999997E+02  0.45594000000E+02  0.51100000000E-03 0.  1.
    9900012    2    1    2    0    0  0.67556265152E+01  0.16080078660E+02 -0.68173160210E+01  0.72461462225E+02  0.69999859219E+02 0.  0.
         12    1    1    2    0    0 -0.67556265152E+01 -0.16080078660E+02  0.68173160210E+01  0.18726537775E+02  0.00000000000E+00 0. -1.
         11    1    3    3    0    0  0.27328096445E+01 -0.68521719406E+01  0.17892146354E+02  0.19353279057E+02  0.51100000000E-03 0. -1.
        -11    1    3    3    0    0 -0.90522856209E+01  0.69151790341E+01  0.83440925070E+01  0.14120462318E+02  0.51100000000E-03 0.  1.
        -12    1    3    3    0    0  0.13075102492E+02  0.16017071566E+02 -0.33053554882E+02  0.38987720850E+02  0.00000000000E+00 0.  1.
</event>
<event>
 7    1  0.2932741E-013  0.7246155E+02  0.7816164E-02  0.1226708E+00
        -11   -1    0    0    0    0  0.00000000000E+00  0.00000000000E+00  0.45593999997E+02  0.45594000000E+02  0.51100000000E-03 0.  1.
         11   -1    0    0    0    0 -0.00000000000E+00 -0.00000000000E+00 -0.45593999997E+02  0.45594000000E+02  0.51100000000E-03 0. -1.
    9900012    2    1    2    0    0  0.53217627240E+01 -0.11103463669E+02  0.14109278664E+02  0.72461553238E+02  0.69999977781E+02 0.  0.
         12    1    1    2    0    0 -0.53217627240E+01  0.11103463669E+02 -0.14109278664E+02  0.18726446762E+02  0.00000000000E+00 0. -1.
         11    1    3    3    0    0  0.12367510194E+02 -0.86966471935E+01 -0.62320943996E+01  0.16353164271E+02  0.51100000000E-03 0. -1.
        -11    1    3    3    0    0  0.20138034221E+02  0.52304504509E+01  0.18450975474E+02  0.27808928969E+02  0.51100000000E-03 0.  1.
         12    1    3    3    0    0 -0.27183781691E+02 -0.76372669262E+01  0.18903975893E+01  0.28299459998E+02  0.00000000000E+00 0. -1.
</event>
<event>
 7    1  0.2932741E-013  0.7246205E+02  0.7816164E-02  0.1226707E+00
        -11   -1    0    0    0    0  0.00000000000E+00  0.00000000000E+00  0.45593999997E+02  0.45594000000E+02  0.51100000000E-03 0.  1.
         11   -1    0    0    0    0 -0.00000000000E+00 -0.00000000000E+00 -0.45593999997E+02  0.45594000000E+02  0.51100000000E-03 0. -1.
    9900012    2    1    2    0    0 -0.10237864252E+02  0.79572451060E+01  0.13510350019E+02  0.72462050845E+02  0.70000626003E+02 0.  0.
         12    1    1    2    0    0  0.10237864252E+02 -0.79572451060E+01 -0.13510350019E+02  0.18725949155E+02  0.00000000000E+00 0. -1.
         11    1    3    3    0    0  0.46606918404E+01 -0.31328875651E+01  0.17186800706E+02  0.18081016335E+02  0.51100000000E-03 0. -1.
        -11    1    3    3    0    0  0.14406052235E+02 -0.86484875512E+01  0.58415359232E+01  0.17789160186E+02  0.51100000000E-03 0.  1.
         12    1    3    3    0    0 -0.29304608327E+02  0.19738620222E+02 -0.95179866097E+01  0.36591874324E+02  0.00000000000E+00 0. -1.
</event>
<event>
 7    1  0.2932741E-013  0.7246161E+02  0.7816164E-02  0.1226708E+00
        -11   -1    0    0    0    0  0.00000000000E+00  0.00000000000E+00  0.45593999997E+02  0.45594000000E+02  0.51100000000E-03 0.  1.
         11   -1    0    0    0    0 -0.00000000000E+00 -0.00000000000E+00 -0.45593999997E+02  0.45594000000E+02  0.51100000000E-03 0. -1.
    9900012    2    1    2    0    0 -0.31643416139E+01  0.17391305888E+02 -0.61812014556E+01  0.72461606066E+02  0.70000046599E+02 0.  0.
         12    1    1    2    0    0  0.31643416139E+01 -0.17391305888E+02  0.61812014556E+01  0.18726393934E+02  0.00000000000E+00 0. -1.
         11    1    3    3    0    0 -0.94908319410E+01  0.52112383338E+01 -0.69528512763E+01  0.12867596397E+02  0.51100000000E-03 0. -1.
        -11    1    3    3    0    0 -0.24338172500E+02  0.37319334034E+01  0.98452836103E+01  0.26517985919E+02  0.51100000000E-03 0.  1.
         12    1    3    3    0    0  0.30664662827E+02  0.84481341511E+01 -0.90736337897E+01  0.33076023750E+02  0.00000000000E+00 0. -1.
</event>
<event>
 7    1  0.2932741E-013  0.7246158E+02  0.7816164E-02  0.1226708E+00
        -11   -1    0    0    0    0  0.00000000000E+00  0.00000000000E+00  0.45593999997E+02  0.45594000000E+02  0.51100000000E-03 0.  1.
         11   -1    0    0    0    0 -0.00000000000E+00 -0.00000000000E+00 -0.45593999997E+02  0.45594000000E+02  0.51100000000E-03 0. -1.
    9900012    2    1    2    0    0  0.70324089418E+01 -0.34472838425E+01  0.17010004620E+02  0.72461580199E+02  0.70000012902E+02 0.  0.
         12    1    1    2    0    0 -0.70324089418E+01  0.34472838425E+01 -0.17010004620E+02  0.18726419801E+02  0.00000000000E+00 0. -1.
         11    1    3    3    0    0  0.25931086464E+02 -0.11166389747E+02  0.10176528150E+01  0.28251462311E+02  0.51100000000E-03 0. -1.
        -11    1    3    3    0    0 -0.96064729065E+01 -0.91295197670E+01 -0.63744306314E+01  0.14705979023E+02  0.51100000000E-03 0.  1.
        -12    1    3    3    0    0 -0.92922046154E+01  0.16848625672E+02  0.22366782436E+02  0.29504138865E+02  0.00000000000E+00 0.  1.
</event>
<event>
 7    1  0.2932741E-013  0.7246157E+02  0.7816164E-02  0.1226708E+00
        -11   -1    0    0    0    0  0.00000000000E+00  0.00000000000E+00  0.45593999997E+02  0.45594000000E+02  0.51100000000E-03 0.  1.
         11   -1    0    0    0    0 -0.00000000000E+00 -0.00000000000E+00 -0.45593999997E+02  0.45594000000E+02  0.51100000000E-03 0. -1.
    9900012    2    1    2    0    0 -0.16289612053E+02  0.88907247114E+01 -0.25065178833E+01  0.72461572721E+02  0.70000003161E+02 0.  0.
         12    1    1    2    0    0  0.16289612053E+02 -0.88907247114E+01  0.25065178833E+01  0.18726427279E+02  0.00000000000E+00 0. -1.
         11    1    3    3    0    0 -0.20027547940E+01 -0.10919094125E+02 -0.29323921201E+01  0.11482010585E+02  0.51100000000E-03 0. -1.
        -11    1    3    3    0    0 -0.31195032715E+02 -0.17618017367E+01  0.85481609901E+01  0.32392978684E+02  0.51100000000E-03 0.  1.
         12    1    3    3    0    0  0.16908175456E+02  0.21571620573E+02 -0.81222867533E+01  0.28586583452E+02  0.00000000000E+00 0. -1.
</event>
<event>
 7    1  0.2932741E-013  0.7246151E+02  0.7816164E-02  0.1226708E+00
        -11   -1    0    0    0    0  0.00000000000E+00  0.00000000000E+00  0.45593999997E+02  0.45594000000E+02  0.51100000000E-03 0.  1.
         11   -1    0    0    0    0 -0.00000000000E+00 -0.00000000000E+00 -0.45593999997E+02  0.45594000000E+02  0.51100000000E-03 0. -1.
    9900012    2    1    2    0    0  0.13682298861E+02 -0.63175457625E+01  0.11115963088E+02  0.72461512824E+02  0.69999925134E+02 0.  0.
         12    1    1    2    0    0 -0.13682298861E+02  0.63175457625E+01 -0.11115963088E+02  0.18726487176E+02  0.00000000000E+00 0. -1.
         11    1    3    3    0    0  0.16864838603E+02 -0.20971024187E+00 -0.24947533179E+02  0.30113886688E+02  0.51100000000E-03 0. -1.
        -11    1    3    3    0    0 -0.63610181341E+01 -0.17920373374E+00  0.75978243431E+00  0.64087389781E+01  0.51100000000E-03 0.  1.
        -12    1    3    3    0    0  0.31784783924E+01 -0.59286317869E+01  0.35303713833E+02  0.35938887158E+02  0.00000000000E+00 0.  1.
</event>
<event>
 7    1  0.2932741E-013  0.7246142E+02  0.7816164E-02  0.1226708E+00
        -11   -1    0    0    0    0  0.00000000000E+00  0.00000000000E+00  0.45593999997E+02  0.45594000000E+02  0.51100000000E-03 0. -1.
         11   -1    0    0    0    0 -0.00000000000E+00 -0.00000000000E+00 -0.45593999997E+02  0.45594000000E+02  0.51100000000E-03 0.  1.
    9900012    2    1    2    0    0  0.13564875561E+02 -0.53813218121E+01 -0.11735433461E+02  0.72461418039E+02  0.69999801658E+02 0.  0.
         12    1    1    2    0    0 -0.13564875561E+02  0.53813218121E+01  0.11735433461E+02  0.18726581961E+02  0.00000000000E+00 0. -1.
         11    1    3    3    0    0  0.23016165778E+01 -0.67958649666E+01  0.74544562694E+01  0.10346503663E+02  0.51100000000E-03 0. -1.
        -11    1    3    3    0    0  0.27928173519E+02  0.13692470109E+02  0.36187493900E+01  0.31313925994E+02  0.51100000000E-03 0.  1.
         12    1    3    3    0    0 -0.16664914535E+02 -0.12277926954E+02 -0.22808639120E+02  0.30800988381E+02  0.00000000000E+00 0. -1.
</event>
<event>
 7    1  0.2932741E-013  0.7246156E+02  0.7816164E-02  0.1226708E+00
        -11   -1    0    0    0    0  0.00000000000E+00  0.00000000000E+00  0.45593999997E+02  0.45594000000E+02  0.51100000000E-03 0.  1.
         11   -1    0    0    0    0 -0.00000000000E+00 -0.00000000000E+00 -0.45593999997E+02  0.45594000000E+02  0.51100000000E-03 0. -1.
    9900012    2    1    2    0    0 -0.11846464501E+01  0.17357325892E+02  0.69281477515E+01  0.72461564659E+02  0.69999992659E+02 0.  0.
         12    1    1    2    0    0  0.11846464501E+01 -0.17357325892E+02 -0.69281477515E+01  0.18726435341E+02  0.00000000000E+00 0. -1.
         11    1    3    3    0    0 -0.18318730068E+00 -0.10270537543E+01 -0.20961443993E+02  0.20987389822E+02  0.51100000000E-03 0. -1.
        -11    1    3    3    0    0 -0.10032128110E+02  0.36104841620E+01 -0.68399537137E+01  0.12667444784E+02  0.51100000000E-03 0.  1.
        -12    1    3    3    0    0  0.90306689604E+01  0.14773895484E+02  0.34729545458E+02  0.38806730053E+02  0.00000000000E+00 0.  1.
</event>
<event>
 7    1  0.2932741E-013  0.7246120E+02  0.7816164E-02  0.1226709E+00
        -11   -1    0    0    0    0  0.00000000000E+00  0.00000000000E+00  0.45593999997E+02  0.45594000000E+02  0.51100000000E-03 0.  1.
         11   -1    0    0    0    0 -0.00000000000E+00 -0.00000000000E+00 -0.45593999997E+02  0.45594000000E+02  0.51100000000E-03 0. -1.
    9900012    2    1    2    0    0 -0.86945926270E+01 -0.63466787334E+01  0.15323727533E+02  0.72461203761E+02  0.69999522520E+02 0.  0.
         12    1    1    2    0    0  0.86945926270E+01  0.63466787334E+01 -0.15323727533E+02  0.18726796239E+02  0.00000000000E+00 0. -1.
         11    1    3    3    0    0  0.17208057501E+02 -0.30342587093E+01 -0.10280823218E+02  0.20273610808E+02  0.51100000000E-03 0. -1.
        -11    1    3    3    0    0  0.39626556301E+01  0.11100219732E+02  0.33573773903E+01  0.12255182616E+02  0.51100000000E-03 0.  1.
        -12    1    3    3    0    0 -0.29865305758E+02 -0.14412639756E+02  0.22247173360E+02  0.39932410337E+02  0.00000000000E+00 0.  1.
</event>
<event>
 7    1  0.2932741E-013  0.7246158E+02  0.7816164E-02  0.1226708E+00
        -11   -1    0    0    0    0  0.00000000000E+00  0.00000000000E+00  0.45593999997E+02  0.45594000000E+02  0.51100000000E-03 0. -1.
         11   -1    0    0    0    0 -0.00000000000E+00 -0.00000000000E+00 -0.45593999997E+02  0.45594000000E+02  0.51100000000E-03 0.  1.
    9900012    2    1    2    0    0  0.10854241810E+02 -0.13207899756E+02 -0.76430111105E+01  0.72461580159E+02  0.70000012850E+02 0.  0.
         12    1    1    2    0    0 -0.10854241810E+02  0.13207899756E+02  0.76430111105E+01  0.18726419841E+02  0.00000000000E+00 0. -1.
         11    1    3    3    0    0  0.64678833907E+01 -0.32240409289E+02  0.44859743465E+01  0.33187369175E+02  0.51100000000E-03 0. -1.
        -11    1    3    3    0    0 -0.11758707330E+02  0.13892817870E+00 -0.33197633381E+00  0.11764213006E+02  0.51100000000E-03 0.  1.
         12    1    3    3    0    0  0.16145065749E+02  0.18893581355E+02 -0.11797009123E+02  0.27509997977E+02  0.00000000000E+00 0. -1.
</event>
<event>
 7    1  0.2932741E-013  0.7246156E+02  0.7816164E-02  0.1226708E+00
        -11   -1    0    0    0    0  0.00000000000E+00  0.00000000000E+00  0.45593999997E+02  0.45594000000E+02  0.51100000000E-03 0.  1.
         11   -1    0    0    0    0 -0.00000000000E+00 -0.00000000000E+00 -0.45593999997E+02  0.45594000000E+02  0.51100000000E-03 0. -1.
    9900012    2    1    2    0    0 -0.89877871269E+01  0.16426652355E+02  0.25361830846E+00  0.72461560208E+02  0.69999986861E+02 0.  0.
         12    1    1    2    0    0  0.89877871269E+01 -0.16426652355E+02 -0.25361830846E+00  0.18726439792E+02  0.00000000000E+00 0. -1.
         11    1    3    3    0    0 -0.74923745170E+01  0.44892888194E+01 -0.11111210540E+02  0.14133237065E+02  0.51100000000E-03 0. -1.
        -11    1    3    3    0    0 -0.14883503733E+02 -0.94263357082E+01 -0.14046627231E+02  0.22531804745E+02  0.51100000000E-03 0.  1.
        -12    1    3    3    0    0  0.13388091124E+02  0.21363699244E+02  0.25411456079E+02  0.35796518398E+02  0.00000000000E+00 0.  1.
</event>
<event>
 7    1  0.2932741E-013  0.7246157E+02  0.7816164E-02  0.1226708E+00
        -11   -1    0    0    0    0  0.00000000000E+00  0.00000000000E+00  0.45593999997E+02  0.45594000000E+02  0.51100000000E-03 0. -1.
         11   -1    0    0    0    0 -0.00000000000E+00 -0.00000000000E+00 -0.45593999997E+02  0.45594000000E+02  0.51100000000E-03 0.  1.
    9900012    2    1    2    0    0  0.55203310261E+01 -0.15854995588E+02 -0.82960300897E+01  0.72461573353E+02  0.70000003984E+02 0.  0.
         12    1    1    2    0    0 -0.55203310261E+01  0.15854995588E+02  0.82960300897E+01  0.18726426647E+02  0.00000000000E+00 0. -1.
         11    1    3    3    0    0  0.42724212832E+01  0.22161970947E+01  0.55277633659E+01  0.73294802868E+01  0.51100000000E-03 0. -1.
        -11    1    3    3    0    0 -0.26261010451E+02  0.57327584113E+01 -0.23247118771E+01  0.26979797525E+02  0.51100000000E-03 0.  1.
        -12    1    3    3    0    0  0.27508920194E+02 -0.23803951094E+02 -0.11499081579E+02  0.38152295541E+02  0.00000000000E+00 0.  1.
</event>
<event>
 7    1  0.2932741E-013  0.7246156E+02  0.7816164E-02  0.1226708E+00
        -11   -1    0    0    0    0  0.00000000000E+00  0.00000000000E+00  0.45593999997E+02  0.45594000000E+02  0.51100000000E-03 0.  1.
         11   -1    0    0    0    0 -0.00000000000E+00 -0.00000000000E+00 -0.45593999997E+02  0.45594000000E+02  0.51100000000E-03 0. -1.
    9900012    2    1    2    0    0 -0.14128418387E+01  0.13444776106E+02  0.12958443734E+02  0.72461564391E+02  0.69999992310E+02 0.  0.
         12    1    1    2    0    0  0.14128418387E+01 -0.13444776106E+02 -0.12958443734E+02  0.18726435609E+02  0.00000000000E+00 0. -1.
         11    1    3    3    0    0 -0.15137316172E+02  0.14367700033E+02  0.12776212767E+02  0.24470405760E+02  0.51100000000E-03 0. -1.
        -11    1    3    3    0    0  0.99538383584E+01  0.97674359274E+01  0.20459541809E+02  0.24760342364E+02  0.51100000000E-03 0.  1.
        -12    1    3    3    0    0  0.37706359750E+01 -0.10690359854E+02 -0.20277310842E+02  0.23230816268E+02  0.00000000000E+00 0.  1.
</event>
<event>
 7    1  0.2932741E-013  0.7246164E+02  0.7816164E-02  0.1226708E+00
        -11   -1    0    0    0    0  0.00000000000E+00  0.00000000000E+00  0.45593999997E+02  0.45594000000E+02  0.51100000000E-03 0. -1.
         11   -1    0    0    0    0 -0.00000000000E+00 -0.00000000000E+00 -0.45593999997E+02  0.45594000000E+02  0.51100000000E-03 0.  1.
    9900012    2    1    2    0    0  0.86238212258E+01  0.15272440290E+02 -0.65619337432E+01  0.72461636247E+02  0.70000085916E+02 0.  0.
         12    1    1    2    0    0 -0.86238212258E+01 -0.15272440290E+02  0.65619337432E+01  0.18726363753E+02  0.00000000000E+00 0. -1.
         11    1    3    3    0    0  0.69756013298E+01  0.11604348729E+02  0.19956292230E+02  0.24115835527E+02  0.51100000000E-03 0. -1.
        -11    1    3    3    0    0 -0.75482811850E+01  0.56869677789E+01  0.81142238613E+01  0.12456274744E+02  0.51100000000E-03 0.  1.
        -12    1    3    3    0    0  0.91965010811E+01 -0.20188762177E+01 -0.34632449834E+02  0.35889525977E+02  0.00000000000E+00 0.  1.
</event>
<event>
 7    1  0.3163011E-013  0.7246157E+02  0.7816164E-02  0.1226708E+00
        -11   -1    0    0    0    0  0.00000000000E+00  0.00000000000E+00  0.45593999997E+02  0.45594000000E+02  0.51100000000E-03 0. -1.
         11   -1    0    0    0    0 -0.00000000000E+00 -0.00000000000E+00 -0.45593999997E+02  0.45594000000E+02  0.51100000000E-03 0.  1.
    9900012    2    1    2    0    0 -0.10082482806E+02  0.57021020539E+01 -0.14714237160E+02  0.72461569412E+02  0.69999998850E+02 0.  0.
         12    1    1    2    0    0  0.10082482806E+02 -0.57021020539E+01  0.14714237160E+02  0.18726430588E+02  0.00000000000E+00 0. -1.
         11    1    3    3    0    0 -0.10773363187E+02 -0.16631497085E+02  0.13935303953E+02  0.24225291457E+02  0.51100000000E-03 0. -1.
        -11    1    3    3    0    0 -0.12365008983E+02  0.40393644353E+01 -0.20599553333E+02  0.24362912592E+02  0.51100000000E-03 0.  1.
        -12    1    3    3    0    0  0.13055889364E+02  0.18294234704E+02 -0.80499877808E+01  0.23873365363E+02  0.00000000000E+00 0.  1.
</event>
<event>
 7    1  0.2932741E-013  0.7246157E+02  0.7816164E-02  0.1226708E+00
        -11   -1    0    0    0    0  0.00000000000E+00  0.00000000000E+00  0.45593999997E+02  0.45594000000E+02  0.51100000000E-03 0.  1.
         11   -1    0    0    0    0 -0.00000000000E+00 -0.00000000000E+00 -0.45593999997E+02  0.45594000000E+02  0.51100000000E-03 0. -1.
    9900012    2    1    2    0    0  0.15943867075E+02 -0.96550915922E+01  0.18031662780E+01  0.72461572162E+02  0.70000002433E+02 0.  0.
         12    1    1    2    0    0 -0.15943867075E+02  0.96550915922E+01 -0.18031662780E+01  0.18726427838E+02  0.00000000000E+00 0. -1.
         11    1    3    3    0    0 -0.27930506522E+01  0.83694534766E+01  0.85604518415E+01  0.12293503139E+02  0.51100000000E-03 0. -1.
        -11    1    3    3    0    0  0.13840691849E+02  0.10350347259E+02  0.15934209476E+02  0.23507306761E+02  0.51100000000E-03 0.  1.
         12    1    3    3    0    0  0.48962258778E+01 -0.28374892328E+02 -0.22691495040E+02  0.36660762262E+02  0.00000000000E+00 0. -1.
</event>
<event>
 7    1  0.2932741E-013  0.7246157E+02  0.7816164E-02  0.1226708E+00
        -11   -1    0    0    0    0  0.00000000000E+00  0.00000000000E+00  0.45593999997E+02  0.45594000000E+02  0.51100000000E-03 0.  1.
         11   -1    0    0    0    0 -0.00000000000E+00 -0.00000000000E+00 -0.45593999997E+02  0.45594000000E+02  0.51100000000E-03 0. -1.
    9900012    2    1    2    0    0  0.95342078390E+01  0.21929166060E+01  0.15967752031E+02  0.72461571956E+02  0.70000002165E+02 0.  0.
         12    1    1    2    0    0 -0.95342078390E+01 -0.21929166060E+01 -0.15967752031E+02  0.18726428044E+02  0.00000000000E+00 0. -1.
         11    1    3    3    0    0  0.91256002223E+01 -0.10077613267E+02  0.18612443533E+02  0.23049033019E+02  0.51100000000E-03 0. -1.
        -11    1    3    3    0    0  0.14315836835E+01 -0.45424686213E+00  0.21791256933E+02  0.21842954266E+02  0.51100000000E-03 0.  1.
        -12    1    3    3    0    0 -0.10229760668E+01  0.12724776735E+02 -0.24435948435E+02  0.27569584671E+02  0.00000000000E+00 0.  1.
</event>
<event>
 7    1  0.2932741E-013  0.7246126E+02  0.7816164E-02  0.1226709E+00
        -11   -1    0    0    0    0  0.00000000000E+00  0.00000000000E+00  0.45593999997E+02  0.45594000000E+02  0.51100000000E-03 0. -1.
         11   -1    0    0    0    0 -0.00000000000E+00 -0.00000000000E+00 -0.45593999997E+02  0.45594000000E+02  0.51100000000E-03 0.  1.
    9900012    2    1    2    0    0  0.14134111739E+02  0.97644167585E+01 -0.74547932657E+01  0.72461257306E+02  0.69999592273E+02 0.  0.
         12    1    1    2    0    0 -0.14134111739E+02 -0.97644167585E+01  0.74547932657E+01  0.18726742694E+02  0.00000000000E+00 0. -1.
         11    1    3    3    0    0  0.88992741221E+01  0.36196004497E+01  0.13311635205E+02  0.16416400928E+02  0.51100000000E-03 0. -1.
        -11    1    3    3    0    0  0.15287029256E+02  0.25635957483E+02 -0.91001421345E+01  0.31204297247E+02  0.51100000000E-03 0.  1.
         12    1    3    3    0    0 -0.10052191639E+02 -0.19491141175E+02 -0.11666286337E+02  0.24840559131E+02  0.00000000000E+00 0. -1.
</event>
<event>
 7    1  0.2932741E-013  0.7246152E+02  0.7816164E-02  0.1226708E+00
        -11   -1    0    0    0    0  0.00000000000E+00  0.00000000000E+00  0.45593999997E+02  0.45594000000E+02  0.51100000000E-03 0.  1.
         11   -1    0    0    0    0 -0.00000000000E+00 -0.00000000000E+00 -0.45593999997E+02  0.45594000000E+02  0.51100000000E-03 0. -1.
    9900012    2    1    2    0    0 -0.18473941841E+02  0.30604109355E+01 -0.16811353906E+00  0.72461523973E+02  0.69999939658E+02 0.  0.
         12    1    1    2    0    0  0.18473941841E+02 -0.30604109355E+01  0.16811353906E+00  0.18726476027E+02  0.00000000000E+00 0. -1.
         11    1    3    3    0    0  0.14786002240E+02  0.50364093231E+01 -0.14308494491E+02  0.21183113462E+02  0.51100000000E-03 0. -1.
        -11    1    3    3    0    0 -0.67955215042E+00 -0.12228383777E+02  0.11857362900E+02  0.17046765562E+02  0.51100000000E-03 0.  1.
        -12    1    3    3    0    0 -0.32580391930E+02  0.10252385389E+02  0.22830180523E+01  0.34231644949E+02  0.00000000000E+00 0.  1.
</event>
<event>
 7    1  0.2932741E-013  0.7246201E+02  0.7816164E-02  0.1226707E+00
        -11   -1    0    0    0    0  0.00000000000E+00  0.00000000000E+00  0.45593999997E+02  0.45594000000E+02  0.51100000000E-03 0. -1.
         11   -1    0    0    0    0 -0.00000000000E+00 -0.00000000000E+00 -0.45593999997E+02  0.45594000000E+02  0.51100000000E-03 0.  1.
    9900012    2    1    2    0    0  0.10200857497E+01  0.16268146575E+02 -0.92178858293E+01  0.72462013054E+02  0.70000576775E+02 0.  0.
         12    1    1    2    0    0 -0.10200857497E+01 -0.16268146575E+02  0.92178858293E+01  0.18725986946E+02  0.00000000000E+00 0. -1.
         11    1    3    3    0    0  0.61002806757E+00  0.18280821953E+02  0.22880768855E+01  0.18433553147E+02  0.51100000000E-03 0. -1.
        -11    1    3    3    0    0 -0.11082862475E+02  0.87953393829E+01  0.16591235886E+02  0.21804975211E+02  0.51100000000E-03 0.  1.
        -12    1    3    3    0    0  0.11492920157E+02 -0.10808014761E+02 -0.28097198600E+02  0.32223484696E+02  0.00000000000E+00 0.  1.
</event>
<event>
 7    1  0.2932741E-013  0.7246158E+02  0.7816164E-02  0.1226708E+00
        -11   -1    0    0    0    0  0.00000000000E+00  0.00000000000E+00  0.45593999997E+02  0.45594000000E+02  0.51100000000E-03 0.  1.
         11   -1    0    0    0    0 -0.00000000000E+00 -0.00000000000E+00 -0.45593999997E+02  0.45594000000E+02  0.51100000000E-03 0. -1.
    9900012    2    1    2    0    0  0.80823174401E-01 -0.10607917928E+02  0.15431926211E+02  0.72461580115E+02  0.70000012793E+02 0.  0.
         12    1    1    2    0    0 -0.80823174401E-01  0.10607917928E+02 -0.15431926211E+02  0.18726419885E+02  0.00000000000E+00 0. -1.
         11    1    3    3    0    0  0.76054451442E+01 -0.87093733686E+01 -0.15024251385E+02  0.18958483860E+02  0.51100000000E-03 0. -1.
        -11    1    3    3    0    0 -0.78271150579E+01 -0.14181980511E+02 -0.41991945453E+01  0.16733963560E+02  0.51100000000E-03 0.  1.
        -12    1    3    3    0    0  0.30249308814E+00  0.12283435952E+02  0.34655372142E+02  0.36769132695E+02  0.00000000000E+00 0.  1.
</event>
<event>
 7    1  0.3429872E-013  0.7246156E+02  0.7816164E-02  0.1226708E+00
        -11   -1    0    0    0    0  0.00000000000E+00  0.00000000000E+00  0.45593999997E+02  0.45594000000E+02  0.51100000000E-03 0. -1.
         11   -1    0    0    0    0 -0.00000000000E+00 -0.00000000000E+00 -0.45593999997E+02  0.45594000000E+02  0.51100000000E-03 0.  1.
    9900012    2    1    2    0    0  0.71658191866E+01 -0.65690218162E+00 -0.17288701660E+02  0.72461556393E+02  0.69999981890E+02 0.  0.
         12    1    1    2    0    0 -0.71658191866E+01  0.65690218162E+00  0.17288701660E+02  0.18726443607E+02  0.00000000000E+00 0. -1.
         11    1    3    3    0    0  0.58826566053E+01  0.11294792983E+02  0.18898757838E+02  0.22789055385E+02  0.51100000000E-03 0. -1.
        -11    1    3    3    0    0  0.21678475508E+01 -0.12226212999E+02  0.10151646104E+01  0.12458346871E+02  0.51100000000E-03 0.  1.
        -12    1    3    3    0    0 -0.88468496947E+00  0.27451783504E+00 -0.37202624109E+02  0.37214154137E+02  0.00000000000E+00 0.  1.
</event>
<event>
 7    1  0.2932741E-013  0.7246156E+02  0.7816164E-02  0.1226708E+00
        -11   -1    0    0    0    0  0.00000000000E+00  0.00000000000E+00  0.45593999997E+02  0.45594000000E+02  0.51100000000E-03 0. -1.
         11   -1    0    0    0    0 -0.00000000000E+00 -0.00000000000E+00 -0.45593999997E+02  0.45594000000E+02  0.51100000000E-03 0.  1.
    9900012    2    1    2    0    0  0.10250967162E+02 -0.14571025107E+02  0.57691035956E+01  0.72461557286E+02  0.69999983054E+02 0.  0.
         12    1    1    2    0    0 -0.10250967162E+02  0.14571025107E+02 -0.57691035956E+01  0.18726442714E+02  0.00000000000E+00 0. -1.
         11    1    3    3    0    0  0.21964905297E+02 -0.26858483867E+01  0.19708550619E+02  0.29632715266E+02  0.51100000000E-03 0. -1.
        -11    1    3    3    0    0  0.30004005981E+01 -0.18362811778E+02 -0.18375915582E+02  0.26150899294E+02  0.51100000000E-03 0.  1.
        -12    1    3    3    0    0 -0.14714338733E+02  0.64776350575E+01  0.44364685591E+01  0.16677942726E+02  0.00000000000E+00 0.  1.
</event>
<event>
 7    1  0.2932741E-013  0.7246154E+02  0.7816164E-02  0.1226708E+00
        -11   -1    0    0    0    0  0.00000000000E+00  0.00000000000E+00  0.45593999997E+02  0.45594000000E+02  0.51100000000E-03 0. -1.
         11   -1    0    0    0    0 -0.00000000000E+00 -0.00000000000E+00 -0.45593999997E+02  0.45594000000E+02  0.51100000000E-03 0.  1.
    9900012    2    1    2    0    0  0.70979469603E+01 -0.13532523982E+02 -0.10824524095E+02  0.72461538021E+02  0.69999957957E+02 0.  0.
         12    1    1    2    0    0 -0.70979469603E+01  0.13532523982E+02  0.10824524095E+02  0.18726461979E+02  0.00000000000E+00 0. -1.
         11    1    3    3    0    0 -0.92040194443E+01 -0.98751012463E+01  0.32810218076E+01  0.13892325324E+02  0.51100000000E-03 0. -1.
        -11    1    3    3    0    0  0.69858244897E+01 -0.68188352648E+01  0.20439253876E+02  0.22650857764E+02  0.51100000000E-03 0.  1.
        -12    1    3    3    0    0  0.93161419149E+01  0.31614125286E+01 -0.34544799778E+02  0.35918354933E+02  0.00000000000E+00 0.  1.
</event>
<event>
 7    1  0.2932741E-013  0.7246151E+02  0.7816164E-02  0.1226708E+00
        -11   -1    0    0    0    0  0.00000000000E+00  0.00000000000E+00  0.45593999997E+02  0.45594000000E+02  0.51100000000E-03 0. -1.
         11   -1    0    0    0    0 -0.00000000000E+00 -0.00000000000E+00 -0.45593999997E+02  0.45594000000E+02  0.51100000000E-03 0.  1.
    9900012    2    1    2    0    0 -0.14975103505E+02 -0.10910921175E+02 -0.27165140664E+01  0.72461511420E+02  0.69999923305E+02 0.  0.
         12    1    1    2    0    0  0.14975103505E+02  0.10910921175E+02  0.27165140664E+01  0.18726488580E+02  0.00000000000E+00 0. -1.
         11    1    3    3    0    0 -0.13298839972E+02 -0.19449354099E+02 -0.71776437366E+01  0.24630369249E+02  0.51100000000E-03 0. -1.
        -11    1    3    3    0    0  0.18117819608E+02  0.87905437215E+00 -0.11321095484E+02  0.21382126348E+02  0.51100000000E-03 0.  1.
         12    1    3    3    0    0 -0.19794083141E+02  0.76593785516E+01  0.15782225154E+02  0.26449015823E+02  0.00000000000E+00 0. -1.
</event>
<event>
 7    1  0.2932741E-013  0.7246150E+02  0.7816164E-02  0.1226708E+00
        -11   -1    0    0    0    0  0.00000000000E+00  0.00000000000E+00  0.45593999997E+02  0.45594000000E+02  0.51100000000E-03 0.  1.
         11   -1    0    0    0    0 -0.00000000000E+00 -0.00000000000E+00 -0.45593999997E+02  0.45594000000E+02  0.51100000000E-03 0. -1.
    9900012    2    1    2    0    0  0.71911464456E+01  0.10494933749E+02  0.13741376765E+02  0.72461503878E+02  0.69999913481E+02 0.  0.
         12    1    1    2    0    0 -0.71911464456E+01 -0.10494933749E+02 -0.13741376765E+02  0.18726496122E+02  0.00000000000E+00 0. -1.
         11    1    3    3    0    0  0.25463544831E+02  0.23321185682E+02 -0.38366646682E+00  0.34531391764E+02  0.51100000000E-03 0. -1.
        -11    1    3    3    0    0  0.29907490984E+00  0.57877151003E+01  0.96520194773E+01  0.11258266835E+02  0.51100000000E-03 0.  1.
         12    1    3    3    0    0 -0.18571473295E+02 -0.18613967034E+02  0.44730237550E+01  0.26671845279E+02  0.00000000000E+00 0. -1.
</event>
<event>
 7    1  0.2932741E-013  0.7246148E+02  0.7816164E-02  0.1226708E+00
        -11   -1    0    0    0    0  0.00000000000E+00  0.00000000000E+00  0.45593999997E+02  0.45594000000E+02  0.51100000000E-03 0.  1.
         11   -1    0    0    0    0 -0.00000000000E+00 -0.00000000000E+00 -0.45593999997E+02  0.45594000000E+02  0.51100000000E-03 0. -1.
    9900012    2    1    2    0    0  0.65465372763E+01 -0.68069672653E+01  0.16170670543E+02  0.72461480316E+02  0.69999882786E+02 0.  0.
         12    1    1    2    0    0 -0.65465372763E+01  0.68069672653E+01 -0.16170670543E+02  0.18726519684E+02  0.00000000000E+00 0. -1.
         11    1    3    3    0    0  0.62029045829E+01 -0.19549942743E+02 -0.13924733210E+02  0.24790612774E+02  0.51100000000E-03 0. -1.
        -11    1    3    3    0    0 -0.13732596386E+01 -0.10564086881E+02  0.15279707168E+01  0.10761991843E+02  0.51100000000E-03 0.  1.
        -12    1    3    3    0    0  0.17168923320E+01  0.23307062358E+02  0.28567433036E+02  0.36908875698E+02  0.00000000000E+00 0.  1.
</event>
<event>
 7    1  0.2932741E-013  0.7246156E+02  0.7816164E-02  0.1226708E+00
        -11   -1    0    0    0    0  0.00000000000E+00  0.00000000000E+00  0.45593999997E+02  0.45594000000E+02  0.51100000000E-03 0. -1.
         11   -1    0    0    0    0 -0.00000000000E+00 -0.00000000000E+00 -0.45593999997E+02  0.45594000000E+02  0.51100000000E-03 0.  1.
    9900012    2    1    2    0    0 -0.51567636095E+00  0.12871218134E+02 -0.13592110598E+02  0.72461557495E+02  0.69999983327E+02 0.  0.
         12    1    1    2    0    0  0.51567636095E+00 -0.12871218134E+02  0.13592110598E+02  0.18726442505E+02  0.00000000000E+00 0. -1.
         11    1    3    3    0    0  0.26035462390E+02  0.17345084398E+02  0.11968283791E+02  0.33495329104E+02  0.51100000000E-03 0. -1.
        -11    1    3    3    0    0  0.30741324153E+00  0.12201601352E+01  0.25081648939E+00  0.12830443598E+01  0.51100000000E-03 0.  1.
        -12    1    3    3    0    0 -0.26858551992E+02 -0.56940263990E+01 -0.25811210879E+02  0.37683184032E+02  0.00000000000E+00 0.  1.
</event>
<event>
 7    1  0.2932741E-013  0.7246146E+02  0.7816164E-02  0.1226708E+00
        -11   -1    0    0    0    0  0.00000000000E+00  0.00000000000E+00  0.45593999997E+02  0.45594000000E+02  0.51100000000E-03 0.  1.
         11   -1    0    0    0    0 -0.00000000000E+00 -0.00000000000E+00 -0.45593999997E+02  0.45594000000E+02  0.51100000000E-03 0. -1.
    9900012    2    1    2    0    0 -0.33730754732E+01  0.18196860269E+02  0.28600478982E+01  0.72461461725E+02  0.69999858568E+02 0.  0.
         12    1    1    2    0    0  0.33730754732E+01 -0.18196860269E+02 -0.28600478982E+01  0.18726538275E+02  0.00000000000E+00 0. -1.
         11    1    3    3    0    0 -0.31593009110E+01 -0.64723758984E+00  0.10078399309E+02  0.10581787734E+02  0.51100000000E-03 0. -1.
        -11    1    3    3    0    0 -0.21404969049E+02  0.64830917807E+01  0.16471287567E+02  0.27776005714E+02  0.51100000000E-03 0.  1.
         12    1    3    3    0    0  0.21191194487E+02  0.12361006078E+02 -0.23689638979E+02  0.34103668277E+02  0.00000000000E+00 0. -1.
</event>
<event>
 7    1  0.2932741E-013  0.7246153E+02  0.7816164E-02  0.1226708E+00
        -11   -1    0    0    0    0  0.00000000000E+00  0.00000000000E+00  0.45593999997E+02  0.45594000000E+02  0.51100000000E-03 0.  1.
         11   -1    0    0    0    0 -0.00000000000E+00 -0.00000000000E+00 -0.45593999997E+02  0.45594000000E+02  0.51100000000E-03 0. -1.
    9900012    2    1    2    0    0 -0.18876442103E+01  0.18362649205E+02  0.31512993154E+01  0.72461527458E+02  0.69999944198E+02 0.  0.
         12    1    1    2    0    0  0.18876442103E+01 -0.18362649205E+02 -0.31512993154E+01  0.18726472542E+02  0.00000000000E+00 0. -1.
         11    1    3    3    0    0  0.78424158809E+01 -0.17379658544E+02  0.81199376006E+01  0.20724126154E+02  0.51100000000E-03 0. -1.
        -11    1    3    3    0    0  0.12967662444E+02  0.10463046696E+02  0.27756486103E+01  0.16892005236E+02  0.51100000000E-03 0.  1.
        -12    1    3    3    0    0 -0.22697722535E+02  0.25279261053E+02 -0.77442868955E+01  0.34845396068E+02  0.00000000000E+00 0.  1.
</event>
<event>
 7    1  0.2932741E-013  0.7246156E+02  0.7816164E-02  0.1226708E+00
        -11   -1    0    0    0    0  0.00000000000E+00  0.00000000000E+00  0.45593999997E+02  0.45594000000E+02  0.51100000000E-03 0.  1.
         11   -1    0    0    0    0 -0.00000000000E+00 -0.00000000000E+00 -0.45593999997E+02  0.45594000000E+02  0.51100000000E-03 0. -1.
    9900012    2    1    2    0    0  0.54628639241E+01  0.17127026051E+02 -0.52442162902E+01  0.72461555914E+02  0.69999981267E+02 0.  0.
         12    1    1    2    0    0 -0.54628639241E+01 -0.17127026051E+02  0.52442162902E+01  0.18726444086E+02  0.00000000000E+00 0. -1.
         11    1    3    3    0    0  0.48713462554E+01 -0.54827532212E+01  0.50227004343E+01  0.88892135275E+01  0.51100000000E-03 0. -1.
        -11    1    3    3    0    0 -0.23244756741E+02  0.17203210902E+02  0.11229848816E+02  0.31022228901E+02  0.51100000000E-03 0.  1.
         12    1    3    3    0    0  0.23836274409E+02  0.54065683698E+01 -0.21496765541E+02  0.32550113486E+02  0.00000000000E+00 0. -1.
</event>
<event>
 7    1  0.2932741E-013  0.7246158E+02  0.7816164E-02  0.1226708E+00
        -11   -1    0    0    0    0  0.00000000000E+00  0.00000000000E+00  0.45593999997E+02  0.45594000000E+02  0.51100000000E-03 0.  1.
         11   -1    0    0    0    0 -0.00000000000E+00 -0.00000000000E+00 -0.45593999997E+02  0.45594000000E+02  0.51100000000E-03 0. -1.
    9900012    2    1    2    0    0 -0.12564026832E+02 -0.11898983119E+02  0.71580814881E+01  0.72461582828E+02  0.70000016328E+02 0.  0.
         12    1    1    2    0    0  0.12564026832E+02  0.11898983119E+02 -0.71580814881E+01  0.18726417172E+02  0.00000000000E+00 0. -1.
         11    1    3    3    0    0  0.19290052626E+02 -0.10841440163E+02 -0.10854928579E+02  0.24646955792E+02  0.51100000000E-03 0. -1.
        -11    1    3    3    0    0  0.36543774206E+01  0.68777282862E+01  0.18685231318E+01  0.80093070653E+01  0.51100000000E-03 0.  1.
        -12    1    3    3    0    0 -0.35508456878E+02 -0.79352712424E+01  0.16144486935E+02  0.39805319971E+02  0.00000000000E+00 0.  1.
</event>
<event>
 7    1  0.2932741E-013  0.7246157E+02  0.7816164E-02  0.1226708E+00
        -11   -1    0    0    0    0  0.00000000000E+00  0.00000000000E+00  0.45593999997E+02  0.45594000000E+02  0.51100000000E-03 0. -1.
         11   -1    0    0    0    0 -0.00000000000E+00 -0.00000000000E+00 -0.45593999997E+02  0.45594000000E+02  0.51100000000E-03 0.  1.
    9900012    2    1    2    0    0  0.22098541786E+00  0.23415396156E+01 -0.18578144052E+02  0.72461572718E+02  0.70000003157E+02 0.  0.
         12    1    1    2    0    0 -0.22098541786E+00 -0.23415396156E+01  0.18578144052E+02  0.18726427282E+02  0.00000000000E+00 0. -1.
         11    1    3    3    0    0 -0.84383684725E+01  0.18867205348E+02  0.11480446322E+01  0.20700133016E+02  0.51100000000E-03 0. -1.
        -11    1    3    3    0    0  0.21186770646E+02 -0.24839587420E+01  0.37660311471E+01  0.21661770295E+02  0.51100000000E-03 0.  1.
         12    1    3    3    0    0 -0.12527416756E+02 -0.14041706991E+02 -0.23492219832E+02  0.30099669407E+02  0.00000000000E+00 0. -1.
</event>
<event>
 7    1  0.2932741E-013  0.7246160E+02  0.7816164E-02  0.1226708E+00
        -11   -1    0    0    0    0  0.00000000000E+00  0.00000000000E+00  0.45593999997E+02  0.45594000000E+02  0.51100000000E-03 0. -1.
         11   -1    0    0    0    0 -0.00000000000E+00 -0.00000000000E+00 -0.45593999997E+02  0.45594000000E+02  0.51100000000E-03 0.  1.
    9900012    2    1    2    0    0 -0.16531168501E+02 -0.85353433455E+01 -0.21322450352E+01  0.72461599200E+02  0.70000037655E+02 0.  0.
         12    1    1    2    0    0  0.16531168501E+02  0.85353433455E+01  0.21322450352E+01  0.18726400800E+02  0.00000000000E+00 0. -1.
         11    1    3    3    0    0  0.79664631947E-01 -0.48942409254E+01 -0.11177759151E+01  0.50208927440E+01  0.51100000000E-03 0. -1.
        -11    1    3    3    0    0 -0.36152336592E+02 -0.19262900752E+02  0.61352590363E+01  0.41420914888E+02  0.51100000000E-03 0.  1.
        -12    1    3    3    0    0  0.19541503459E+02  0.15621798332E+02 -0.71497281564E+01  0.26019791568E+02  0.00000000000E+00 0.  1.
</event>
<event>
 7    1  0.2932741E-013  0.7246156E+02  0.7816164E-02  0.1226708E+00
        -11   -1    0    0    0    0  0.00000000000E+00  0.00000000000E+00  0.45593999997E+02  0.45594000000E+02  0.51100000000E-03 0.  1.
         11   -1    0    0    0    0 -0.00000000000E+00 -0.00000000000E+00 -0.45593999997E+02  0.45594000000E+02  0.51100000000E-03 0. -1.
    9900012    2    1    2    0    0 -0.17600369542E+02 -0.55487156108E+01 -0.31808999248E+01  0.72461564747E+02  0.69999992774E+02 0.  0.
         12    1    1    2    0    0  0.17600369542E+02  0.55487156108E+01  0.31808999248E+01  0.18726435253E+02  0.00000000000E+00 0. -1.
         11    1    3    3    0    0  0.56743782158E+01 -0.40320550036E-01 -0.16067722668E+02  0.17040302400E+02  0.51100000000E-03 0. -1.
        -11    1    3    3    0    0 -0.37330685799E+02 -0.51164109696E+01  0.21710728506E+01  0.37742169002E+02  0.51100000000E-03 0.  1.
         12    1    3    3    0    0  0.14055938041E+02 -0.39198409116E+00  0.10715749893E+02  0.17679093345E+02  0.00000000000E+00 0. -1.
</event>
<event>
 7    1  0.2932741E-013  0.7246166E+02  0.7816164E-02  0.1226708E+00
        -11   -1    0    0    0    0  0.00000000000E+00  0.00000000000E+00  0.45593999997E+02  0.45594000000E+02  0.51100000000E-03 0.  1.
         11   -1    0    0    0    0 -0.00000000000E+00 -0.00000000000E+00 -0.45593999997E+02  0.45594000000E+02  0.51100000000E-03 0. -1.
    9900012    2    1    2    0    0  0.75502685875E+01 -0.17027394865E+02  0.19331541606E+01  0.72461659817E+02  0.70000116620E+02 0.  0.
         12    1    1    2    0    0 -0.75502685875E+01  0.17027394865E+02 -0.19331541606E+01  0.18726340183E+02  0.00000000000E+00 0. -1.
         11    1    3    3    0    0  0.67916594405E+01  0.46361623889E+01  0.67762663435E+01  0.10655441120E+02  0.51100000000E-03 0. -1.
        -11    1    3    3    0    0  0.46138275262E+01  0.19254954821E+02  0.28149719985E+01  0.19999118911E+02  0.51100000000E-03 0.  1.
         12    1    3    3    0    0 -0.38552183791E+01 -0.40918512075E+02 -0.76580841813E+01  0.41807099786E+02  0.00000000000E+00 0. -1.
</event>
<event>
 7    1  0.2932741E-013  0.7246156E+02  0.7816164E-02  0.1226708E+00
        -11   -1    0    0    0    0  0.00000000000E+00  0.00000000000E+00  0.45593999997E+02  0.45594000000E+02  0.51100000000E-03 0.  1.
         11   -1    0    0    0    0 -0.00000000000E+00 -0.00000000000E+00 -0.45593999997E+02  0.45594000000E+02  0.51100000000E-03 0. -1.
    9900012    2    1    2    0    0 -0.16371544287E+02 -0.82537991770E+01  0.38113993710E+01  0.72461563383E+02  0.69999990997E+02 0.  0.
         12    1    1    2    0    0  0.16371544287E+02  0.82537991770E+01 -0.38113993710E+01  0.18726436617E+02  0.00000000000E+00 0. -1.
         11    1    3    3    0    0 -0.31821982755E+02 -0.16760977509E+02 -0.34584810791E+01  0.36132119300E+02  0.51100000000E-03 0. -1.
        -11    1    3    3    0    0 -0.25386850775E+01 -0.75908205897E+01 -0.48071277606E+01  0.93366994551E+01  0.51100000000E-03 0.  1.
        -12    1    3    3    0    0  0.17989123545E+02  0.16097998922E+02  0.12077008211E+02  0.26992744628E+02  0.00000000000E+00 0.  1.
</event>
<event>
 7    1  0.2932741E-013  0.7246150E+02  0.7816164E-02  0.1226708E+00
        -11   -1    0    0    0    0  0.00000000000E+00  0.00000000000E+00  0.45593999997E+02  0.45594000000E+02  0.51100000000E-03 0.  1.
         11   -1    0    0    0    0 -0.00000000000E+00 -0.00000000000E+00 -0.45593999997E+02  0.45594000000E+02  0.51100000000E-03 0. -1.
    9900012    2    1    2    0    0  0.11837033501E+02 -0.78239362816E+00  0.14489803181E+02  0.72461497440E+02  0.69999905093E+02 0.  0.
         12    1    1    2    0    0 -0.11837033501E+02  0.78239362816E+00 -0.14489803181E+02  0.18726502560E+02  0.00000000000E+00 0. -1.
         11    1    3    3    0    0  0.86630665652E+01 -0.10119529443E+01  0.15097992345E+01  0.88516814823E+01  0.51100000000E-03 0. -1.
        -11    1    3    3    0    0  0.10650740324E+02  0.21012843369E+02  0.28230773410E+02  0.36768932858E+02  0.51100000000E-03 0.  1.
        -12    1    3    3    0    0 -0.74767733875E+01 -0.20783284053E+02 -0.15250769464E+02  0.26840883099E+02  0.00000000000E+00 0.  1.
</event>
<event>
 7    1  0.2932741E-013  0.7246160E+02  0.7816164E-02  0.1226708E+00
        -11   -1    0    0    0    0  0.00000000000E+00  0.00000000000E+00  0.45593999997E+02  0.45594000000E+02  0.51100000000E-03 0. -1.
         11   -1    0    0    0    0 -0.00000000000E+00 -0.00000000000E+00 -0.45593999997E+02  0.45594000000E+02  0.51100000000E-03 0.  1.
    9900012    2    1    2    0    0 -0.16229619043E+00 -0.64450814306E+01 -0.17581598692E+02  0.72461600792E+02  0.70000039729E+02 0.  0.
         12    1    1    2    0    0  0.16229619043E+00  0.64450814306E+01  0.17581598692E+02  0.18726399208E+02  0.00000000000E+00 0. -1.
         11    1    3    3    0    0  0.50720614542E+01 -0.35315487625E+01 -0.32789890586E+01  0.69963857501E+01  0.51100000000E-03 0. -1.
        -11    1    3    3    0    0  0.26113622022E+02  0.73284732843E+01 -0.17583874446E+02  0.32323681978E+02  0.51100000000E-03 0.  1.
         12    1    3    3    0    0 -0.31347979667E+02 -0.10242005952E+02  0.32812648121E+01  0.33141533065E+02  0.00000000000E+00 0. -1.
</event>
<event>
 7    1  0.2932741E-013  0.7246158E+02  0.7816164E-02  0.1226708E+00
        -11   -1    0    0    0    0  0.00000000000E+00  0.00000000000E+00  0.45593999997E+02  0.45594000000E+02  0.51100000000E-03 0. -1.
         11   -1    0    0    0    0 -0.00000000000E+00 -0.00000000000E+00 -0.45593999997E+02  0.45594000000E+02  0.51100000000E-03 0.  1.
    9900012    2    1    2    0    0 -0.62321801639E+01  0.54789018151E+01 -0.16787503494E+02  0.72461582610E+02  0.70000016044E+02 0.  0.
         12    1    1    2    0    0  0.62321801639E+01 -0.54789018151E+01  0.16787503494E+02  0.18726417390E+02  0.00000000000E+00 0. -1.
         11    1    3    3    0    0 -0.27391122404E+01 -0.22412331451E+02 -0.27292891098E+02  0.35421988110E+02  0.51100000000E-03 0. -1.
        -11    1    3    3    0    0 -0.26417127176E+01  0.19125948518E+01 -0.55866044194E+01  0.64689113728E+01  0.51100000000E-03 0.  1.
        -12    1    3    3    0    0 -0.85135520593E+00  0.25978638414E+02  0.16091992023E+02  0.30570683127E+02  0.00000000000E+00 0.  1.
</event>
<event>
 7    1  0.2932741E-013  0.7246158E+02  0.7816164E-02  0.1226708E+00
        -11   -1    0    0    0    0  0.00000000000E+00  0.00000000000E+00  0.45593999997E+02  0.45594000000E+02  0.51100000000E-03 0.  1.
         11   -1    0    0    0    0 -0.00000000000E+00 -0.00000000000E+00 -0.45593999997E+02  0.45594000000E+02  0.51100000000E-03 0. -1.
    9900012    2    1    2    0    0  0.13389893788E+02  0.12250843669E+02  0.46158808919E+01  0.72461580624E+02  0.70000013456E+02 0.  0.
         12    1    1    2    0    0 -0.13389893788E+02 -0.12250843669E+02 -0.46158808919E+01  0.18726419376E+02  0.00000000000E+00 0. -1.
         11    1    3    3    0    0  0.15787381746E+02  0.22588560410E+02 -0.88408627764E+01  0.28942103219E+02  0.51100000000E-03 0. -1.
        -11    1    3    3    0    0  0.16164413611E+02 -0.84967359268E+01 -0.31666907865E+01  0.18534042182E+02  0.51100000000E-03 0.  1.
         12    1    3    3    0    0 -0.18561901570E+02 -0.18409808146E+01  0.16623434455E+02  0.24985435224E+02  0.00000000000E+00 0. -1.
</event>
<event>
 7    1  0.2932741E-013  0.7246160E+02  0.7816164E-02  0.1226708E+00
        -11   -1    0    0    0    0  0.00000000000E+00  0.00000000000E+00  0.45593999997E+02  0.45594000000E+02  0.51100000000E-03 0.  1.
         11   -1    0    0    0    0 -0.00000000000E+00 -0.00000000000E+00 -0.45593999997E+02  0.45594000000E+02  0.51100000000E-03 0. -1.
    9900012    2    1    2    0    0 -0.15199302734E+02  0.10937418720E+02 -0.17894241656E+00  0.72461602796E+02  0.70000042340E+02 0.  0.
         12    1    1    2    0    0  0.15199302734E+02 -0.10937418720E+02  0.17894241656E+00  0.18726397204E+02  0.00000000000E+00 0. -1.
         11    1    3    3    0    0  0.89822131382E+01 -0.86102757229E+01  0.12405145977E+02  0.17569992825E+02  0.51100000000E-03 0. -1.
        -11    1    3    3    0    0  0.18583768476E+01  0.11973992118E+02  0.12885214306E+02  0.17687815007E+02  0.51100000000E-03 0.  1.
         12    1    3    3    0    0 -0.26039892719E+02  0.75737023246E+01 -0.25469302700E+02  0.37203794964E+02  0.00000000000E+00 0. -1.
</event>
<event>
 7    1  0.2932741E-013  0.7246157E+02  0.7816164E-02  0.1226708E+00
        -11   -1    0    0    0    0  0.00000000000E+00  0.00000000000E+00  0.45593999997E+02  0.45594000000E+02  0.51100000000E-03 0. -1.
         11   -1    0    0    0    0 -0.00000000000E+00 -0.00000000000E+00 -0.45593999997E+02  0.45594000000E+02  0.51100000000E-03 0.  1.
    9900012    2    1    2    0    0 -0.17720366562E+02 -0.60512201006E+01  0.22448243293E+00  0.72461573535E+02  0.70000004222E+02 0.  0.
         12    1    1    2    0    0  0.17720366562E+02  0.60512201006E+01 -0.22448243293E+00  0.18726426465E+02  0.00000000000E+00 0. -1.
         11    1    3    3    0    0 -0.11115865721E+02  0.33860161970E+01  0.23933940528E+02  0.26605658907E+02  0.51100000000E-03 0. -1.
        -11    1    3    3    0    0 -0.63200529923E+01  0.13914653422E+02 -0.55004175116E+01  0.16242390302E+02  0.51100000000E-03 0.  1.
        -12    1    3    3    0    0 -0.28444784870E+00 -0.23351889719E+02 -0.18209040583E+02  0.29613524326E+02  0.00000000000E+00 0.  1.
</event>
<event>
 7    1  0.2932741E-013  0.7246173E+02  0.7816164E-02  0.1226708E+00
        -11   -1    0    0    0    0  0.00000000000E+00  0.00000000000E+00  0.45593999997E+02  0.45594000000E+02  0.51100000000E-03 0.  1.
         11   -1    0    0    0    0 -0.00000000000E+00 -0.00000000000E+00 -0.45593999997E+02  0.45594000000E+02  0.51100000000E-03 0. -1.
    9900012    2    1    2    0    0 -0.13126466237E+01 -0.17621949638E+02  0.61981527312E+01  0.72461728415E+02  0.70000205981E+02 0.  0.
         12    1    1    2    0    0  0.13126466237E+01  0.17621949638E+02 -0.61981527312E+01  0.18726271585E+02  0.00000000000E+00 0. -1.
         11    1    3    3    0    0 -0.89219405201E+01  0.14415404039E+02 -0.38866464058E+01  0.17392840964E+02  0.51100000000E-03 0. -1.
        -11    1    3    3    0    0 -0.15382247641E+02 -0.12672986629E+01  0.32705596925E+00  0.15437828677E+02  0.51100000000E-03 0.  1.
        -12    1    3    3    0    0  0.22991541538E+02 -0.30770055013E+02  0.97577431677E+01  0.39631058774E+02  0.00000000000E+00 0.  1.
</event>
<event>
 7    1  0.2932741E-013  0.7246151E+02  0.7816164E-02  0.1226708E+00
        -11   -1    0    0    0    0  0.00000000000E+00  0.00000000000E+00  0.45593999997E+02  0.45594000000E+02  0.51100000000E-03 0. -1.
         11   -1    0    0    0    0 -0.00000000000E+00 -0.00000000000E+00 -0.45593999997E+02  0.45594000000E+02  0.51100000000E-03 0.  1.
    9900012    2    1    2    0    0 -0.12378490253E+02  0.13023529632E+02 -0.52765724736E+01  0.72461506413E+02  0.69999916782E+02 0.  0.
         12    1    1    2    0    0  0.12378490253E+02 -0.13023529632E+02  0.52765724736E+01  0.18726493587E+02  0.00000000000E+00 0. -1.
         11    1    3    3    0    0 -0.33084594705E+02 -0.12351701655E+02 -0.62752165032E+01  0.35868276834E+02  0.51100000000E-03 0.  1.
        -11    1    3    3    0    0  0.60583038670E+01  0.16753672138E+02  0.61271697843E+01  0.18839606834E+02  0.51100000000E-03 0. -1.
        -12    1    3    3    0    0  0.14647800586E+02  0.86215591485E+01 -0.51285257547E+01  0.17753622745E+02  0.00000000000E+00 0.  1.
</event>
<event>
 7    1  0.2932741E-013  0.7246158E+02  0.7816164E-02  0.1226708E+00
        -11   -1    0    0    0    0  0.00000000000E+00  0.00000000000E+00  0.45593999997E+02  0.45594000000E+02  0.51100000000E-03 0. -1.
         11   -1    0    0    0    0 -0.00000000000E+00 -0.00000000000E+00 -0.45593999997E+02  0.45594000000E+02  0.51100000000E-03 0.  1.
    9900012    2    1    2    0    0 -0.28481868283E+01 -0.16251732206E+02 -0.88570812921E+01  0.72461578641E+02  0.70000010873E+02 0.  0.
         12    1    1    2    0    0  0.28481868283E+01  0.16251732206E+02  0.88570812921E+01  0.18726421359E+02  0.00000000000E+00 0. -1.
         11    1    3    3    0    0 -0.54851747513E+01 -0.14301386819E+02 -0.17033285687E+02  0.22907414270E+02  0.51100000000E-03 0.  1.
        -11    1    3    3    0    0  0.78109514032E+01  0.20453964369E+02  0.13802144920E+02  0.25881940129E+02  0.51100000000E-03 0. -1.
         12    1    3    3    0    0 -0.51739634803E+01 -0.22404309756E+02 -0.56259405248E+01  0.23672224241E+02  0.00000000000E+00 0. -1.
</event>
<event>
 7    1  0.2932741E-013  0.7246157E+02  0.7816164E-02  0.1226708E+00
        -11   -1    0    0    0    0  0.00000000000E+00  0.00000000000E+00  0.45593999997E+02  0.45594000000E+02  0.51100000000E-03 0. -1.
         11   -1    0    0    0    0 -0.00000000000E+00 -0.00000000000E+00 -0.45593999997E+02  0.45594000000E+02  0.51100000000E-03 0.  1.
    9900012    2    1    2    0    0  0.47343628192E+01  0.41305214518E+01 -0.17640972094E+02  0.72461566939E+02  0.69999995629E+02 0.  0.
         12    1    1    2    0    0 -0.47343628192E+01 -0.41305214518E+01  0.17640972094E+02  0.18726433061E+02  0.00000000000E+00 0. -1.
         11    1    3    3    0    0 -0.48566239302E+01  0.88497972514E+01 -0.27411834171E+01  0.10460391684E+02  0.51100000000E-03 0. -1.
        -11    1    3    3    0    0 -0.15617085888E+02  0.12788287245E+02  0.99564080376E+01  0.22506970555E+02  0.51100000000E-03 0.  1.
        -12    1    3    3    0    0  0.25208072637E+02 -0.17507563044E+02 -0.24856196714E+02  0.39494204701E+02  0.00000000000E+00 0.  1.
</event>
<event>
 7    1  0.2932741E-013  0.7246158E+02  0.7816164E-02  0.1226708E+00
        -11   -1    0    0    0    0  0.00000000000E+00  0.00000000000E+00  0.45593999997E+02  0.45594000000E+02  0.51100000000E-03 0.  1.
         11   -1    0    0    0    0 -0.00000000000E+00 -0.00000000000E+00 -0.45593999997E+02  0.45594000000E+02  0.51100000000E-03 0. -1.
    9900012    2    1    2    0    0  0.54621640808E+01  0.14148520759E+02  0.10984676291E+02  0.72461575105E+02  0.70000006267E+02 0.  0.
         12    1    1    2    0    0 -0.54621640808E+01 -0.14148520759E+02 -0.10984676291E+02  0.18726424895E+02  0.00000000000E+00 0. -1.
         11    1    3    3    0    0 -0.39239871429E+01 -0.73443015237E+01  0.53075853007E+01  0.98745583168E+01  0.51100000000E-03 0. -1.
        -11    1    3    3    0    0 -0.20201525828E+02  0.78484559869E+01  0.17572296173E+02  0.27901353017E+02  0.51100000000E-03 0.  1.
         12    1    3    3    0    0  0.29587677051E+02  0.13644366296E+02 -0.11895205182E+02  0.34685663771E+02  0.00000000000E+00 0. -1.
</event>
<event>
 7    1  0.2932741E-013  0.7246152E+02  0.7816164E-02  0.1226708E+00
        -11   -1    0    0    0    0  0.00000000000E+00  0.00000000000E+00  0.45593999997E+02  0.45594000000E+02  0.51100000000E-03 0. -1.
         11   -1    0    0    0    0 -0.00000000000E+00 -0.00000000000E+00 -0.45593999997E+02  0.45594000000E+02  0.51100000000E-03 0.  1.
    9900012    2    1    2    0    0 -0.32091168405E+01  0.54977616130E+01 -0.17611281756E+02  0.72461519852E+02  0.69999934289E+02 0.  0.
         12    1    1    2    0    0  0.32091168405E+01 -0.54977616130E+01  0.17611281756E+02  0.18726480148E+02  0.00000000000E+00 0. -1.
         11    1    3    3    0    0  0.19488524859E+02 -0.11080965157E+02 -0.36901802293E+01  0.22720207314E+02  0.51100000000E-03 0. -1.
        -11    1    3    3    0    0  0.17646485427E+01  0.11720110943E+02 -0.20738320683E+02  0.23886249810E+02  0.51100000000E-03 0.  1.
         12    1    3    3    0    0 -0.24462290242E+02  0.48586158271E+01  0.68172191556E+01  0.25855062728E+02  0.00000000000E+00 0. -1.
</event>
<event>
 7    1  0.2932741E-013  0.7246178E+02  0.7816164E-02  0.1226707E+00
        -11   -1    0    0    0    0  0.00000000000E+00  0.00000000000E+00  0.45593999997E+02  0.45594000000E+02  0.51100000000E-03 0.  1.
         11   -1    0    0    0    0 -0.00000000000E+00 -0.00000000000E+00 -0.45593999997E+02  0.45594000000E+02  0.51100000000E-03 0. -1.
    9900012    2    1    2    0    0 -0.36686562761E+00 -0.10209281305E+02  0.15694179027E+02  0.72461781202E+02  0.70000274745E+02 0.  0.
         12    1    1    2    0    0  0.36686562761E+00  0.10209281305E+02 -0.15694179027E+02  0.18726218798E+02  0.00000000000E+00 0. -1.
         11    1    3    3    0    0 -0.13804294816E+02  0.12887632799E+02  0.11303466289E+02  0.22009497607E+02  0.51100000000E-03 0. -1.
        -11    1    3    3    0    0  0.14876444707E+02 -0.12070244784E+02  0.22283001404E+02  0.29385907644E+02  0.51100000000E-03 0.  1.
        -12    1    3    3    0    0 -0.14390155186E+01 -0.11026669321E+02 -0.17892288666E+02  0.21066375950E+02  0.00000000000E+00 0.  1.
</event>
<event>
 7    1  0.2932741E-013  0.7246167E+02  0.7816164E-02  0.1226708E+00
        -11   -1    0    0    0    0  0.00000000000E+00  0.00000000000E+00  0.45593999997E+02  0.45594000000E+02  0.51100000000E-03 0.  1.
         11   -1    0    0    0    0 -0.00000000000E+00 -0.00000000000E+00 -0.45593999997E+02  0.45594000000E+02  0.51100000000E-03 0. -1.
    9900012    2    1    2    0    0 -0.30883679351E+01 -0.16584489056E+02 -0.81297060894E+01  0.72461670546E+02  0.70000130596E+02 0.  0.
         12    1    1    2    0    0  0.30883679351E+01  0.16584489056E+02  0.81297060894E+01  0.18726329454E+02  0.00000000000E+00 0. -1.
         11    1    3    3    0    0 -0.11925111918E+02 -0.40799561215E+01 -0.49539223183E+01  0.13542366219E+02  0.51100000000E-03 0. -1.
        -11    1    3    3    0    0  0.68814690463E+01 -0.26006119898E+02  0.18964131947E+02  0.32913693035E+02  0.51100000000E-03 0.  1.
         12    1    3    3    0    0  0.19552749367E+01  0.13501586964E+02 -0.22139915719E+02  0.26005611292E+02  0.00000000000E+00 0. -1.
</event>
<event>
 7    1  0.2932741E-013  0.7246150E+02  0.7816164E-02  0.1226708E+00
        -11   -1    0    0    0    0  0.00000000000E+00  0.00000000000E+00  0.45593999997E+02  0.45594000000E+02  0.51100000000E-03 0.  1.
         11   -1    0    0    0    0 -0.00000000000E+00 -0.00000000000E+00 -0.45593999997E+02  0.45594000000E+02  0.51100000000E-03 0. -1.
    9900012    2    1    2    0    0  0.21055400504E+00 -0.95758475448E+01  0.16091631125E+02  0.72461500555E+02  0.69999909151E+02 0.  0.
         12    1    1    2    0    0 -0.21055400504E+00  0.95758475448E+01 -0.16091631125E+02  0.18726499445E+02  0.00000000000E+00 0. -1.
         11    1    3    3    0    0 -0.21051413239E+02 -0.21806756428E+02 -0.37208683342E+01  0.30537542251E+02  0.51100000000E-03 0. -1.
        -11    1    3    3    0    0  0.13720235136E+02 -0.57021000165E+01  0.16475351928E+02  0.22185491164E+02  0.51100000000E-03 0.  1.
        -12    1    3    3    0    0  0.75417321088E+01  0.17933008900E+02  0.33371475319E+01  0.19738467140E+02  0.00000000000E+00 0.  1.
</event>
<event>
 7    1  0.2932741E-013  0.7246148E+02  0.7816164E-02  0.1226708E+00
        -11   -1    0    0    0    0  0.00000000000E+00  0.00000000000E+00  0.45593999997E+02  0.45594000000E+02  0.51100000000E-03 0.  1.
         11   -1    0    0    0    0 -0.00000000000E+00 -0.00000000000E+00 -0.45593999997E+02  0.45594000000E+02  0.51100000000E-03 0. -1.
    9900012    2    1    2    0    0 -0.94212806335E+01 -0.53565392574E+01  0.15271853748E+02  0.72461479808E+02  0.69999882125E+02 0.  0.
         12    1    1    2    0    0  0.94212806335E+01  0.53565392574E+01 -0.15271853748E+02  0.18726520192E+02  0.00000000000E+00 0. -1.
         11    1    3    3    0    0 -0.24715857907E+02 -0.13687804611E+02  0.78206633276E+01  0.29315395312E+02  0.51100000000E-03 0. -1.
        -11    1    3    3    0    0 -0.11207708706E+02  0.11136313808E+02  0.17863617106E+01  0.15900355596E+02  0.51100000000E-03 0.  1.
         12    1    3    3    0    0  0.26502285980E+02 -0.28050484541E+01  0.56648287098E+01  0.27245728900E+02  0.00000000000E+00 0. -1.
</event>
<event>
 7    1  0.2932741E-013  0.7246161E+02  0.7816164E-02  0.1226708E+00
        -11   -1    0    0    0    0  0.00000000000E+00  0.00000000000E+00  0.45593999997E+02  0.45594000000E+02  0.51100000000E-03 0.  1.
         11   -1    0    0    0    0 -0.00000000000E+00 -0.00000000000E+00 -0.45593999997E+02  0.45594000000E+02  0.51100000000E-03 0. -1.
    9900012    2    1    2    0    0  0.14185225854E+02  0.10219063429E+02  0.67102698869E+01  0.72461611885E+02  0.70000054179E+02 0.  0.
         12    1    1    2    0    0 -0.14185225854E+02 -0.10219063429E+02 -0.67102698869E+01  0.18726388115E+02  0.00000000000E+00 0. -1.
         11    1    3    3    0    0 -0.48070402627E+01  0.67837242798E+01  0.18449274288E+01  0.85164727834E+01  0.51100000000E-03 0. -1.
        -11    1    3    3    0    0 -0.56410859341E+00  0.38690954424E+01  0.31030719652E+02  0.31276087997E+02  0.51100000000E-03 0.  1.
         12    1    3    3    0    0  0.19556374710E+02 -0.43375629359E+00 -0.26165377194E+02  0.32669051104E+02  0.00000000000E+00 0. -1.
</event>
<event>
 7    1  0.2932741E-013  0.7246156E+02  0.7816164E-02  0.1226708E+00
        -11   -1    0    0    0    0  0.00000000000E+00  0.00000000000E+00  0.45593999997E+02  0.45594000000E+02  0.51100000000E-03 0. -1.
         11   -1    0    0    0    0 -0.00000000000E+00 -0.00000000000E+00 -0.45593999997E+02  0.45594000000E+02  0.51100000000E-03 0.  1.
    9900012    2    1    2    0    0  0.10414425231E+02 -0.14030686195E+02 -0.67349160856E+01  0.72461561399E+02  0.69999988412E+02 0.  0.
         12    1    1    2    0    0 -0.10414425231E+02  0.14030686195E+02  0.67349160856E+01  0.18726438601E+02  0.00000000000E+00 0. -1.
         11    1    3    3    0    0 -0.20771123465E+02  0.72428773649E+01 -0.90567848414E+01  0.23789161281E+02  0.51100000000E-03 0. -1.
        -11    1    3    3    0    0 -0.61410920958E+01 -0.45199403348E+01  0.13700344244E+01  0.77472490178E+01  0.51100000000E-03 0.  1.
        -12    1    3    3    0    0  0.37326640792E+02 -0.16753623225E+02  0.95183433140E+00  0.40925151100E+02  0.00000000000E+00 0.  1.
</event>
<event>
 7    1  0.2932741E-013  0.7246161E+02  0.7816164E-02  0.1226708E+00
        -11   -1    0    0    0    0  0.00000000000E+00  0.00000000000E+00  0.45593999997E+02  0.45594000000E+02  0.51100000000E-03 0.  1.
         11   -1    0    0    0    0 -0.00000000000E+00 -0.00000000000E+00 -0.45593999997E+02  0.45594000000E+02  0.51100000000E-03 0. -1.
    9900012    2    1    2    0    0 -0.14550156728E+02 -0.71438882971E+01  0.93773908790E+01  0.72461610585E+02  0.70000052486E+02 0.  0.
         12    1    1    2    0    0  0.14550156728E+02  0.71438882971E+01 -0.93773908790E+01  0.18726389415E+02  0.00000000000E+00 0. -1.
         11    1    3    3    0    0  0.17870247165E+01  0.52007988764E+01  0.15795158500E+02  0.16725094876E+02  0.51100000000E-03 0. -1.
        -11    1    3    3    0    0 -0.25784188715E+02 -0.25385258265E+02  0.42328226689E+01  0.36430104487E+02  0.51100000000E-03 0.  1.
         12    1    3    3    0    0  0.94470072707E+01  0.13040571092E+02 -0.10650590290E+02  0.19306411223E+02  0.00000000000E+00 0. -1.
</event>
<event>
 7    1  0.2932741E-013  0.7246158E+02  0.7816164E-02  0.1226708E+00
        -11   -1    0    0    0    0  0.00000000000E+00  0.00000000000E+00  0.45593999997E+02  0.45594000000E+02  0.51100000000E-03 0.  1.
         11   -1    0    0    0    0 -0.00000000000E+00 -0.00000000000E+00 -0.45593999997E+02  0.45594000000E+02  0.51100000000E-03 0. -1.
    9900012    2    1    2    0    0 -0.77719975267E+01  0.58142466414E+01  0.16014661216E+02  0.72461580603E+02  0.70000013429E+02 0.  0.
         12    1    1    2    0    0  0.77719975267E+01 -0.58142466414E+01 -0.16014661216E+02  0.18726419397E+02  0.00000000000E+00 0. -1.
         11    1    3    3    0    0 -0.10370981145E+02  0.30149640868E+02 -0.37537158039E+01  0.32103714380E+02  0.51100000000E-03 0. -1.
        -11    1    3    3    0    0  0.41246162457E+01  0.34041582428E+01 -0.12850563934E+01  0.55001929704E+01  0.51100000000E-03 0.  1.
        -12    1    3    3    0    0 -0.15256326271E+01 -0.27739552469E+02  0.21053433413E+02  0.34857673253E+02  0.00000000000E+00 0.  1.
</event>
<event>
 7    1  0.2932741E-013  0.7246168E+02  0.7816164E-02  0.1226708E+00
        -11   -1    0    0    0    0  0.00000000000E+00  0.00000000000E+00  0.45593999997E+02  0.45594000000E+02  0.51100000000E-03 0. -1.
         11   -1    0    0    0    0 -0.00000000000E+00 -0.00000000000E+00 -0.45593999997E+02  0.45594000000E+02  0.51100000000E-03 0.  1.
    9900012    2    1    2    0    0  0.75184337387E+01 -0.16375892318E+02  0.50968897416E+01  0.72461682152E+02  0.70000145715E+02 0.  0.
         12    1    1    2    0    0 -0.75184337387E+01  0.16375892318E+02 -0.50968897416E+01  0.18726317848E+02  0.00000000000E+00 0. -1.
         11    1    3    3    0    0 -0.57336999774E+01  0.27966124800E+01 -0.75999115569E+00  0.64244800266E+01  0.51100000000E-03 0. -1.
        -11    1    3    3    0    0  0.13759508768E+02  0.12022786279E+02 -0.18840506590E+02  0.26245688413E+02  0.51100000000E-03 0.  1.
         12    1    3    3    0    0 -0.50737505220E+00 -0.31195291077E+02  0.24697387487E+02  0.39791513712E+02  0.00000000000E+00 0. -1.
</event>
<event>
 7    1  0.2932741E-013  0.7246156E+02  0.7816164E-02  0.1226708E+00
        -11   -1    0    0    0    0  0.00000000000E+00  0.00000000000E+00  0.45593999997E+02  0.45594000000E+02  0.51100000000E-03 0. -1.
         11   -1    0    0    0    0 -0.00000000000E+00 -0.00000000000E+00 -0.45593999997E+02  0.45594000000E+02  0.51100000000E-03 0.  1.
    9900012    2    1    2    0    0  0.14307159573E+02  0.98346399830E+01 -0.70188644284E+01  0.72461563700E+02  0.69999991409E+02 0.  0.
         12    1    1    2    0    0 -0.14307159573E+02 -0.98346399830E+01  0.70188644284E+01  0.18726436300E+02  0.00000000000E+00 0. -1.
         11    1    3    3    0    0  0.82741324961E+01 -0.28220927560E+02 -0.69495964158E+01  0.30218850268E+02  0.51100000000E-03 0. -1.
        -11    1    3    3    0    0  0.42454556727E+01  0.57224390398E+01 -0.60079310227E+01  0.93201629743E+01  0.51100000000E-03 0.  1.
        -12    1    3    3    0    0  0.17875714041E+01  0.32333128503E+02  0.59386630101E+01  0.32922550458E+02  0.00000000000E+00 0.  1.
</event>
<event>
 7    1  0.2932741E-013  0.7246224E+02  0.7816164E-02  0.1226706E+00
        -11   -1    0    0    0    0  0.00000000000E+00  0.00000000000E+00  0.45593999997E+02  0.45594000000E+02  0.51100000000E-03 0. -1.
         11   -1    0    0    0    0 -0.00000000000E+00 -0.00000000000E+00 -0.45593999997E+02  0.45594000000E+02  0.51100000000E-03 0.  1.
    9900012    2    1    2    0    0  0.43791990095E+01  0.17281767641E+02 -0.57286353693E+01  0.72462238602E+02  0.70000870589E+02 0.  0.
         12    1    1    2    0    0 -0.43791990095E+01 -0.17281767641E+02  0.57286353693E+01  0.18725761398E+02  0.00000000000E+00 0. -1.
         11    1    3    3    0    0  0.10863978052E+02 -0.54390143689E+01  0.64149920297E+01  0.13739032696E+02  0.51100000000E-03 0. -1.
        -11    1    3    3    0    0 -0.30859729926E+01  0.38821629473E+02 -0.12033663082E+01  0.38962677462E+02  0.51100000000E-03 0.  1.
         12    1    3    3    0    0 -0.33988060504E+01 -0.16100847464E+02 -0.10940261091E+02  0.19760528443E+02  0.00000000000E+00 0. -1.
</event>
<event>
 7    1  0.2932741E-013  0.7246155E+02  0.7816164E-02  0.1226708E+00
        -11   -1    0    0    0    0  0.00000000000E+00  0.00000000000E+00  0.45593999997E+02  0.45594000000E+02  0.51100000000E-03 0. -1.
         11   -1    0    0    0    0 -0.00000000000E+00 -0.00000000000E+00 -0.45593999997E+02  0.45594000000E+02  0.51100000000E-03 0.  1.
    9900012    2    1    2    0    0 -0.17875194563E+02 -0.88879720871E+00 -0.55106444667E+01  0.72461554967E+02  0.69999980033E+02 0.  0.
         12    1    1    2    0    0  0.17875194563E+02  0.88879720871E+00  0.55106444667E+01  0.18726445033E+02  0.00000000000E+00 0. -1.
         11    1    3    3    0    0 -0.39511947894E+01  0.11546092252E+02  0.11408217781E+02  0.16705436833E+02  0.51100000000E-03 0. -1.
        -11    1    3    3    0    0  0.50769803526E+01  0.62497029130E+01 -0.26299577064E+02  0.27504586345E+02  0.51100000000E-03 0.  1.
         12    1    3    3    0    0 -0.19000980126E+02 -0.18684592374E+02  0.93807148163E+01  0.28251531789E+02  0.00000000000E+00 0. -1.
</event>
<event>
 7    1  0.2932741E-013  0.7246156E+02  0.7816164E-02  0.1226708E+00
        -11   -1    0    0    0    0  0.00000000000E+00  0.00000000000E+00  0.45593999997E+02  0.45594000000E+02  0.51100000000E-03 0.  1.
         11   -1    0    0    0    0 -0.00000000000E+00 -0.00000000000E+00 -0.45593999997E+02  0.45594000000E+02  0.51100000000E-03 0. -1.
    9900012    2    1    2    0    0 -0.17110930982E+02  0.53003234654E+01  0.54591497779E+01  0.72461556018E+02  0.69999981403E+02 0.  0.
         12    1    1    2    0    0  0.17110930982E+02 -0.53003234654E+01 -0.54591497779E+01  0.18726443982E+02  0.00000000000E+00 0. -1.
         11    1    3    3    0    0  0.14501923448E+02  0.27423009386E+01 -0.14850483751E+02  0.20937116946E+02  0.51100000000E-03 0. -1.
        -11    1    3    3    0    0  0.48823251893E+01  0.81846024147E+01  0.32208323914E+00  0.95356464812E+01  0.51100000000E-03 0.  1.
        -12    1    3    3    0    0 -0.36495179619E+02 -0.56265798878E+01  0.19987550290E+02  0.41988792591E+02  0.00000000000E+00 0.  1.
</event>
<event>
 7    1  0.2932741E-013  0.7246178E+02  0.7816164E-02  0.1226707E+00
        -11   -1    0    0    0    0  0.00000000000E+00  0.00000000000E+00  0.45593999997E+02  0.45594000000E+02  0.51100000000E-03 0. -1.
         11   -1    0    0    0    0 -0.00000000000E+00 -0.00000000000E+00 -0.45593999997E+02  0.45594000000E+02  0.51100000000E-03 0.  1.
    9900012    2    1    2    0    0 -0.17915864416E+02  0.32934451986E+01  0.43412483260E+01  0.72461777314E+02  0.70000269681E+02 0.  0.
         12    1    1    2    0    0  0.17915864416E+02 -0.32934451986E+01 -0.43412483260E+01  0.18726222686E+02  0.00000000000E+00 0. -1.
         11    1    3    3    0    0  0.64235408431E+01  0.58184462935E+01 -0.69959749871E+01  0.11138216218E+02  0.51100000000E-03 0. -1.
        -11    1    3    3    0    0 -0.56271172545E+01  0.15026172423E+02 -0.16810131988E+02  0.23238563725E+02  0.51100000000E-03 0.  1.
         12    1    3    3    0    0 -0.18712288005E+02 -0.17551173518E+02  0.28147355302E+02  0.38084997371E+02  0.00000000000E+00 0. -1.
</event>
<event>
 7    1  0.2932741E-013  0.7246145E+02  0.7816164E-02  0.1226708E+00
        -11   -1    0    0    0    0  0.00000000000E+00  0.00000000000E+00  0.45593999997E+02  0.45594000000E+02  0.51100000000E-03 0. -1.
         11   -1    0    0    0    0 -0.00000000000E+00 -0.00000000000E+00 -0.45593999997E+02  0.45594000000E+02  0.51100000000E-03 0.  1.
    9900012    2    1    2    0    0  0.13556357778E+02 -0.12520946094E+02 -0.31834936868E+01  0.72461453085E+02  0.69999847313E+02 0.  0.
         12    1    1    2    0    0 -0.13556357778E+02  0.12520946094E+02  0.31834936868E+01  0.18726546915E+02  0.00000000000E+00 0. -1.
         11    1    3    3    0    0  0.11725832339E+02 -0.11488467057E+02 -0.20346904805E+01  0.16541462601E+02  0.51100000000E-03 0. -1.
        -11    1    3    3    0    0  0.18732237665E+02  0.17907320603E+02 -0.11695434435E+02  0.28431532600E+02  0.51100000000E-03 0.  1.
         12    1    3    3    0    0 -0.16901712226E+02 -0.18939799640E+02  0.10546631228E+02  0.27488457884E+02  0.00000000000E+00 0. -1.
</event>
<event>
 7    1  0.2932741E-013  0.7246163E+02  0.7816164E-02  0.1226708E+00
        -11   -1    0    0    0    0  0.00000000000E+00  0.00000000000E+00  0.45593999997E+02  0.45594000000E+02  0.51100000000E-03 0. -1.
         11   -1    0    0    0    0 -0.00000000000E+00 -0.00000000000E+00 -0.45593999997E+02  0.45594000000E+02  0.51100000000E-03 0.  1.
    9900012    2    1    2    0    0  0.15836577571E+02 -0.99441299108E+01  0.99709728781E+00  0.72461625235E+02  0.70000071570E+02 0.  0.
         12    1    1    2    0    0 -0.15836577571E+02  0.99441299108E+01 -0.99709728781E+00  0.18726374765E+02  0.00000000000E+00 0. -1.
         11    1    3    3    0    0  0.34637396995E+02 -0.30153997386E+01  0.10036037460E+01  0.34782885546E+02  0.51100000000E-03 0. -1.
        -11    1    3    3    0    0  0.30249269520E+01 -0.14296423816E+02  0.73063948506E+00  0.14631191042E+02  0.51100000000E-03 0.  1.
         12    1    3    3    0    0 -0.21825746376E+02  0.73676936434E+01 -0.73714594321E+00  0.23047548647E+02  0.00000000000E+00 0. -1.
</event>
<event>
 7    1  0.2932741E-013  0.7246167E+02  0.7816164E-02  0.1226708E+00
        -11   -1    0    0    0    0  0.00000000000E+00  0.00000000000E+00  0.45593999997E+02  0.45594000000E+02  0.51100000000E-03 0. -1.
         11   -1    0    0    0    0 -0.00000000000E+00 -0.00000000000E+00 -0.45593999997E+02  0.45594000000E+02  0.51100000000E-03 0.  1.
    9900012    2    1    2    0    0  0.77144769063E+01  0.16578902061E+02 -0.40376061872E+01  0.72461670642E+02  0.70000130722E+02 0.  0.
         12    1    1    2    0    0 -0.77144769063E+01 -0.16578902061E+02  0.40376061872E+01  0.18726329358E+02  0.00000000000E+00 0. -1.
         11    1    3    3    0    0 -0.46786935088E+01  0.41602268103E+01  0.53318393332E+01  0.82235133002E+01  0.51100000000E-03 0. -1.
        -11    1    3    3    0    0 -0.12432425014E+02  0.29815841518E+02 -0.10308958120E+02  0.33909058007E+02  0.51100000000E-03 0.  1.
         12    1    3    3    0    0  0.24825595429E+02 -0.17397166267E+02  0.93951260008E+00  0.30329099335E+02  0.00000000000E+00 0. -1.
</event>
<event>
 7    1  0.2932741E-013  0.7246134E+02  0.7816164E-02  0.1226709E+00
        -11   -1    0    0    0    0  0.00000000000E+00  0.00000000000E+00  0.45593999997E+02  0.45594000000E+02  0.51100000000E-03 0. -1.
         11   -1    0    0    0    0 -0.00000000000E+00 -0.00000000000E+00 -0.45593999997E+02  0.45594000000E+02  0.51100000000E-03 0.  1.
    9900012    2    1    2    0    0  0.50947350664E+01 -0.21505225434E+01 -0.17891526230E+02  0.72461340302E+02  0.69999700392E+02 0.  0.
         12    1    1    2    0    0 -0.50947350664E+01  0.21505225434E+01  0.17891526230E+02  0.18726659698E+02  0.00000000000E+00 0. -1.
         11    1    3    3    0    0  0.17065752983E+02 -0.37560935553E+01  0.52440741982E+01  0.18244135445E+02  0.51100000000E-03 0. -1.
        -11    1    3    3    0    0 -0.16575942597E+02  0.59346518981E+01  0.10159684453E+02  0.20327349916E+02  0.51100000000E-03 0.  1.
        -12    1    3    3    0    0  0.46049246805E+01 -0.43290808863E+01 -0.33295284881E+02  0.33889854941E+02  0.00000000000E+00 0.  1.
</event>
<event>
 7    1  0.2932741E-013  0.7246156E+02  0.7816164E-02  0.1226708E+00
        -11   -1    0    0    0    0  0.00000000000E+00  0.00000000000E+00  0.45593999997E+02  0.45594000000E+02  0.51100000000E-03 0.  1.
         11   -1    0    0    0    0 -0.00000000000E+00 -0.00000000000E+00 -0.45593999997E+02  0.45594000000E+02  0.51100000000E-03 0. -1.
    9900012    2    1    2    0    0  0.42628422238E+01  0.78841133028E+01  0.16442281441E+02  0.72461556520E+02  0.69999982057E+02 0.  0.
         12    1    1    2    0    0 -0.42628422238E+01 -0.78841133028E+01 -0.16442281441E+02  0.18726443480E+02  0.00000000000E+00 0. -1.
         11    1    3    3    0    0  0.88957368969E+00  0.11029375827E+02  0.64448376124E+00  0.11083944787E+02  0.51100000000E-03 0. -1.
        -11    1    3    3    0    0  0.42328026033E+01  0.15945314558E+02  0.32208839151E+02  0.36188105698E+02  0.51100000000E-03 0.  1.
         12    1    3    3    0    0 -0.85953406925E+00 -0.19090577082E+02 -0.16411041471E+02  0.25189506035E+02  0.00000000000E+00 0. -1.
</event>
<event>
 7    1  0.2932741E-013  0.7246181E+02  0.7816164E-02  0.1226707E+00
        -11   -1    0    0    0    0  0.00000000000E+00  0.00000000000E+00  0.45593999997E+02  0.45594000000E+02  0.51100000000E-03 0.  1.
         11   -1    0    0    0    0 -0.00000000000E+00 -0.00000000000E+00 -0.45593999997E+02  0.45594000000E+02  0.51100000000E-03 0. -1.
    9900012    2    1    2    0    0  0.18403349105E+02 -0.32084097830E+01  0.13011965587E+01  0.72461808072E+02  0.70000309749E+02 0.  0.
         12    1    1    2    0    0 -0.18403349105E+02  0.32084097830E+01 -0.13011965587E+01  0.18726191928E+02  0.00000000000E+00 0. -1.
         11    1    3    3    0    0  0.36170513622E+02 -0.23470751473E+01 -0.92579917375E+01  0.37410228931E+02  0.51100000000E-03 0. -1.
        -11    1    3    3    0    0  0.59178985710E+01  0.13709134124E+01 -0.38937407239E+01  0.72154101870E+01  0.51100000000E-03 0.  1.
        -12    1    3    3    0    0 -0.23685063087E+02 -0.22322480480E+01  0.14452929020E+02  0.27836168954E+02  0.00000000000E+00 0.  1.
</event>
<event>
 7    1  0.2932741E-013  0.7246156E+02  0.7816164E-02  0.1226708E+00
        -11   -1    0    0    0    0  0.00000000000E+00  0.00000000000E+00  0.45593999997E+02  0.45594000000E+02  0.51100000000E-03 0. -1.
         11   -1    0    0    0    0 -0.00000000000E+00 -0.00000000000E+00 -0.45593999997E+02  0.45594000000E+02  0.51100000000E-03 0.  1.
    9900012    2    1    2    0    0 -0.16089326237E+02 -0.43365213366E+01 -0.85444633129E+01  0.72461556414E+02  0.69999981919E+02 0.  0.
         12    1    1    2    0    0  0.16089326237E+02  0.43365213366E+01  0.85444633129E+01  0.18726443586E+02  0.00000000000E+00 0. -1.
         11    1    3    3    0    0 -0.16468373320E+02 -0.26251730758E+01  0.81133323544E+00  0.16696020944E+02  0.51100000000E-03 0. -1.
        -11    1    3    3    0    0 -0.22612233165E+02 -0.16176098045E+02 -0.52541123995E+01  0.28294609628E+02  0.51100000000E-03 0.  1.
         12    1    3    3    0    0  0.22991280248E+02  0.14464749784E+02 -0.41016841489E+01  0.27470925842E+02  0.00000000000E+00 0. -1.
</event>
<event>
 7    1  0.2932741E-013  0.7246155E+02  0.7816164E-02  0.1226708E+00
        -11   -1    0    0    0    0  0.00000000000E+00  0.00000000000E+00  0.45593999997E+02  0.45594000000E+02  0.51100000000E-03 0.  1.
         11   -1    0    0    0    0 -0.00000000000E+00 -0.00000000000E+00 -0.45593999997E+02  0.45594000000E+02  0.51100000000E-03 0. -1.
    9900012    2    1    2    0    0 -0.70627810909E+01 -0.11184190594E+02 -0.13255599558E+02  0.72461550374E+02  0.69999974049E+02 0.  0.
         12    1    1    2    0    0  0.70627810909E+01  0.11184190594E+02  0.13255599558E+02  0.18726449626E+02  0.00000000000E+00 0. -1.
         11    1    3    3    0    0 -0.12080415058E+02 -0.32635961226E+02 -0.13220055875E+02  0.37226499577E+02  0.51100000000E-03 0. -1.
        -11    1    3    3    0    0 -0.10009686127E+02  0.13215765966E+01 -0.51765768885E+00  0.10109814578E+02  0.51100000000E-03 0.  1.
        -12    1    3    3    0    0  0.15027320094E+02  0.20130194036E+02  0.48211400595E+00  0.25125236219E+02  0.00000000000E+00 0.  1.
</event>
<event>
 7    1  0.2932741E-013  0.7246158E+02  0.7816164E-02  0.1226708E+00
        -11   -1    0    0    0    0  0.00000000000E+00  0.00000000000E+00  0.45593999997E+02  0.45594000000E+02  0.51100000000E-03 0. -1.
         11   -1    0    0    0    0 -0.00000000000E+00 -0.00000000000E+00 -0.45593999997E+02  0.45594000000E+02  0.51100000000E-03 0.  1.
    9900012    2    1    2    0    0 -0.97234860338E+01  0.14619628335E+02  0.65114639348E+01  0.72461578134E+02  0.70000010213E+02 0.  0.
         12    1    1    2    0    0  0.97234860338E+01 -0.14619628335E+02 -0.65114639348E+01  0.18726421866E+02  0.00000000000E+00 0. -1.
         11    1    3    3    0    0  0.27980765800E+01 -0.22863243219E+02  0.75533091248E+01  0.24240660099E+02  0.51100000000E-03 0. -1.
        -11    1    3    3    0    0 -0.16645351433E+02  0.10600557641E+02 -0.58920517221E+01  0.20595043588E+02  0.51100000000E-03 0.  1.
        -12    1    3    3    0    0  0.41237888193E+01  0.26882313913E+02  0.48502065321E+01  0.27625874447E+02  0.00000000000E+00 0.  1.
</event>
<event>
 7    1  0.2932741E-013  0.7246155E+02  0.7816164E-02  0.1226708E+00
        -11   -1    0    0    0    0  0.00000000000E+00  0.00000000000E+00  0.45593999997E+02  0.45594000000E+02  0.51100000000E-03 0. -1.
         11   -1    0    0    0    0 -0.00000000000E+00 -0.00000000000E+00 -0.45593999997E+02  0.45594000000E+02  0.51100000000E-03 0.  1.
    9900012    2    1    2    0    0  0.45707052965E+01  0.54576910768E+01 -0.17320576530E+02  0.72461545180E+02  0.69999967284E+02 0.  0.
         12    1    1    2    0    0 -0.45707052965E+01 -0.54576910768E+01  0.17320576530E+02  0.18726454820E+02  0.00000000000E+00 0. -1.
         11    1    3    3    0    0  0.59475382987E+01 -0.20076423456E+02  0.10166434440E+02  0.23276434007E+02  0.51100000000E-03 0. -1.
        -11    1    3    3    0    0  0.14614120074E+02  0.67684233555E+01 -0.99821780966E+01  0.18948032618E+02  0.51100000000E-03 0.  1.
        -12    1    3    3    0    0 -0.15990953076E+02  0.18765691177E+02 -0.17504832873E+02  0.30237078555E+02  0.00000000000E+00 0.  1.
</event>
<event>
 7    1  0.2932741E-013  0.7246152E+02  0.7816164E-02  0.1226708E+00
        -11   -1    0    0    0    0  0.00000000000E+00  0.00000000000E+00  0.45593999997E+02  0.45594000000E+02  0.51100000000E-03 0.  1.
         11   -1    0    0    0    0 -0.00000000000E+00 -0.00000000000E+00 -0.45593999997E+02  0.45594000000E+02  0.51100000000E-03 0. -1.
    9900012    2    1    2    0    0 -0.16838918079E+02  0.75573203720E+01 -0.31652485686E+01  0.72461520038E+02  0.69999934531E+02 0.  0.
         12    1    1    2    0    0  0.16838918079E+02 -0.75573203720E+01  0.31652485686E+01  0.18726479962E+02  0.00000000000E+00 0. -1.
         11    1    3    3    0    0 -0.17492505140E+02  0.39358861055E+01  0.19196143398E+02  0.26267296342E+02  0.51100000000E-03 0. -1.
        -11    1    3    3    0    0  0.97731588352E+01 -0.51178587959E+01  0.77892051863E+01  0.13504770637E+02  0.51100000000E-03 0.  1.
         12    1    3    3    0    0 -0.91195717740E+01  0.87392930623E+01 -0.30150597153E+02  0.32689453058E+02  0.00000000000E+00 0. -1.
</event>
<event>
 7    1  0.2932741E-013  0.7246165E+02  0.7816164E-02  0.1226708E+00
        -11   -1    0    0    0    0  0.00000000000E+00  0.00000000000E+00  0.45593999997E+02  0.45594000000E+02  0.51100000000E-03 0.  1.
         11   -1    0    0    0    0 -0.00000000000E+00 -0.00000000000E+00 -0.45593999997E+02  0.45594000000E+02  0.51100000000E-03 0. -1.
    9900012    2    1    2    0    0 -0.11677745037E+02  0.32581009841E+01  0.14272037834E+02  0.72461654518E+02  0.70000109717E+02 0.  0.
         12    1    1    2    0    0  0.11677745037E+02 -0.32581009841E+01 -0.14272037834E+02  0.18726345482E+02  0.00000000000E+00 0. -1.
         11    1    3    3    0    0  0.45778397129E+01 -0.24829548889E+01  0.62253594952E+01  0.81164513504E+01  0.51100000000E-03 0. -1.
        -11    1    3    3    0    0 -0.29403899218E+01 -0.16862741113E+02  0.27008459477E+02  0.31975847359E+02  0.51100000000E-03 0.  1.
         12    1    3    3    0    0 -0.13315194829E+02  0.22603796986E+02 -0.18961781138E+02  0.32369355808E+02  0.00000000000E+00 0. -1.
</event>
<event>
 7    1  0.2932741E-013  0.7246158E+02  0.7816164E-02  0.1226708E+00
        -11   -1    0    0    0    0  0.00000000000E+00  0.00000000000E+00  0.45593999997E+02  0.45594000000E+02  0.51100000000E-03 0.  1.
         11   -1    0    0    0    0 -0.00000000000E+00 -0.00000000000E+00 -0.45593999997E+02  0.45594000000E+02  0.51100000000E-03 0. -1.
    9900012    2    1    2    0    0 -0.79962367947E+01 -0.48745654240E+01  0.16216580074E+02  0.72461583892E+02  0.70000017713E+02 0.  0.
         12    1    1    2    0    0  0.79962367947E+01  0.48745654240E+01 -0.16216580074E+02  0.18726416108E+02  0.00000000000E+00 0. -1.
         11    1    3    3    0    0 -0.10617124861E+02 -0.12529566765E+02  0.72052827147E+00  0.16438751318E+02  0.51100000000E-03 0. -1.
        -11    1    3    3    0    0 -0.93530594913E+01 -0.19223614580E+02  0.15821428443E+02  0.26595952279E+02  0.51100000000E-03 0.  1.
         12    1    3    3    0    0  0.11973947557E+02  0.26878615922E+02 -0.32537664057E+00  0.29426880295E+02  0.00000000000E+00 0. -1.
</event>
<event>
 7    1  0.2932741E-013  0.7246156E+02  0.7816164E-02  0.1226708E+00
        -11   -1    0    0    0    0  0.00000000000E+00  0.00000000000E+00  0.45593999997E+02  0.45594000000E+02  0.51100000000E-03 0. -1.
         11   -1    0    0    0    0 -0.00000000000E+00 -0.00000000000E+00 -0.45593999997E+02  0.45594000000E+02  0.51100000000E-03 0.  1.
    9900012    2    1    2    0    0  0.61321645949E+01 -0.12222489648E+02 -0.12794015155E+02  0.72461560947E+02  0.69999987824E+02 0.  0.
         12    1    1    2    0    0 -0.61321645949E+01  0.12222489648E+02  0.12794015155E+02  0.18726439053E+02  0.00000000000E+00 0. -1.
         11    1    3    3    0    0 -0.14458061057E+02  0.36778862552E+00  0.49430624394E+01  0.15284131135E+02  0.51100000000E-03 0. -1.
        -11    1    3    3    0    0  0.34373067837E+01 -0.27376585022E+02  0.12570116836E+01  0.27620147792E+02  0.51100000000E-03 0.  1.
         12    1    3    3    0    0  0.17152918868E+02  0.14786306749E+02 -0.18994089278E+02  0.29557282021E+02  0.00000000000E+00 0. -1.
</event>
<event>
 7    1  0.2932741E-013  0.7246158E+02  0.7816164E-02  0.1226708E+00
        -11   -1    0    0    0    0  0.00000000000E+00  0.00000000000E+00  0.45593999997E+02  0.45594000000E+02  0.51100000000E-03 0. -1.
         11   -1    0    0    0    0 -0.00000000000E+00 -0.00000000000E+00 -0.45593999997E+02  0.45594000000E+02  0.51100000000E-03 0.  1.
    9900012    2    1    2    0    0 -0.54653878412E+01 -0.82590919310E+01 -0.15893256878E+02  0.72461583419E+02  0.70000017097E+02 0.  0.
         12    1    1    2    0    0  0.54653878412E+01  0.82590919310E+01  0.15893256878E+02  0.18726416581E+02  0.00000000000E+00 0. -1.
         11    1    3    3    0    0 -0.49462574543E+01  0.69980890609E+01  0.24435845116E+00  0.85731222214E+01  0.51100000000E-03 0. -1.
        -11    1    3    3    0    0  0.18010667529E+02  0.14219516503E+02 -0.17784919418E+02  0.29032432784E+02  0.51100000000E-03 0.  1.
         12    1    3    3    0    0 -0.18529797916E+02 -0.29476697495E+02  0.16473040886E+01  0.34856028413E+02  0.00000000000E+00 0. -1.
</event>
<event>
 7    1  0.2932741E-013  0.7246163E+02  0.7816164E-02  0.1226708E+00
        -11   -1    0    0    0    0  0.00000000000E+00  0.00000000000E+00  0.45593999997E+02  0.45594000000E+02  0.51100000000E-03 0.  1.
         11   -1    0    0    0    0 -0.00000000000E+00 -0.00000000000E+00 -0.45593999997E+02  0.45594000000E+02  0.51100000000E-03 0. -1.
    9900012    2    1    2    0    0 -0.10679759725E+01 -0.44674534916E+01  0.18154285044E+02  0.72461634126E+02  0.70000083153E+02 0.  0.
         12    1    1    2    0    0  0.10679759725E+01  0.44674534916E+01 -0.18154285044E+02  0.18726365874E+02  0.00000000000E+00 0. -1.
         11    1    3    3    0    0  0.48226370886E+01 -0.59337636936E+01  0.19459371664E+02  0.20907762336E+02  0.51100000000E-03 0. -1.
        -11    1    3    3    0    0 -0.26433416695E+02  0.52981249809E+01  0.87767829110E+01  0.28351852937E+02  0.51100000000E-03 0.  1.
         12    1    3    3    0    0  0.20542803633E+02 -0.38318147790E+01 -0.10081869531E+02  0.23202018853E+02  0.00000000000E+00 0. -1.
</event>
<event>
 7    1  0.2932741E-013  0.7246157E+02  0.7816164E-02  0.1226708E+00
        -11   -1    0    0    0    0  0.00000000000E+00  0.00000000000E+00  0.45593999997E+02  0.45594000000E+02  0.51100000000E-03 0. -1.
         11   -1    0    0    0    0 -0.00000000000E+00 -0.00000000000E+00 -0.45593999997E+02  0.45594000000E+02  0.51100000000E-03 0.  1.
    9900012    2    1    2    0    0  0.18101011087E+02 -0.45033921133E+01  0.16589072721E+01  0.72461571717E+02  0.70000001854E+02 0.  0.
         12    1    1    2    0    0 -0.18101011087E+02  0.45033921133E+01 -0.16589072721E+01  0.18726428283E+02  0.00000000000E+00 0. -1.
         11    1    3    3    0    0  0.16809486181E+02 -0.85716008841E+01 -0.66595725311E+00  0.18880536717E+02  0.51100000000E-03 0. -1.
        -11    1    3    3    0    0  0.26296676640E+02  0.63068498836E+01 -0.48430269629E+01  0.27472649457E+02  0.51100000000E-03 0.  1.
         12    1    3    3    0    0 -0.25005151734E+02 -0.22386411129E+01  0.71678914882E+01  0.26108385543E+02  0.00000000000E+00 0. -1.
</event>
<event>
 7    1  0.2932741E-013  0.7246155E+02  0.7816164E-02  0.1226708E+00
        -11   -1    0    0    0    0  0.00000000000E+00  0.00000000000E+00  0.45593999997E+02  0.45594000000E+02  0.51100000000E-03 0.  1.
         11   -1    0    0    0    0 -0.00000000000E+00 -0.00000000000E+00 -0.45593999997E+02  0.45594000000E+02  0.51100000000E-03 0. -1.
    9900012    2    1    2    0    0 -0.14457234148E+01  0.10067241582E+02  0.15723881891E+02  0.72461549963E+02  0.69999973514E+02 0.  0.
         12    1    1    2    0    0  0.14457234148E+01 -0.10067241582E+02 -0.15723881891E+02  0.18726450037E+02  0.00000000000E+00 0. -1.
         11    1    3    3    0    0  0.45976471582E+01  0.23651121919E+02  0.36283033879E+02  0.43554247498E+02  0.51100000000E-03 0. -1.
        -11    1    3    3    0    0 -0.47365473961E+01  0.15945769185E+01 -0.62904331750E+01  0.80341213940E+01  0.51100000000E-03 0.  1.
        -12    1    3    3    0    0 -0.13068231770E+01 -0.15178457256E+02 -0.14268718812E+02  0.20873181071E+02  0.00000000000E+00 0.  1.
</event>
<event>
 7    1  0.2932741E-013  0.7246157E+02  0.7816164E-02  0.1226708E+00
        -11   -1    0    0    0    0  0.00000000000E+00  0.00000000000E+00  0.45593999997E+02  0.45594000000E+02  0.51100000000E-03 0.  1.
         11   -1    0    0    0    0 -0.00000000000E+00 -0.00000000000E+00 -0.45593999997E+02  0.45594000000E+02  0.51100000000E-03 0. -1.
    9900012    2    1    2    0    0 -0.16732068113E+02  0.36453143332E+01  0.75781707359E+01  0.72461572374E+02  0.70000002709E+02 0.  0.
         12    1    1    2    0    0  0.16732068113E+02 -0.36453143332E+01 -0.75781707359E+01  0.18726427626E+02  0.00000000000E+00 0. -1.
         11    1    3    3    0    0 -0.11620437886E+02  0.12606458859E+02 -0.59100492238E+01  0.18135216120E+02  0.51100000000E-03 0. -1.
        -11    1    3    3    0    0 -0.12838654795E+02  0.18959410312E+02  0.14145316595E+01  0.22941037388E+02  0.51100000000E-03 0.  1.
        -12    1    3    3    0    0  0.77270245685E+01 -0.27920554838E+02  0.12073688300E+02  0.31385318866E+02  0.00000000000E+00 0.  1.
</event>
<event>
 7    1  0.2932741E-013  0.7246155E+02  0.7816164E-02  0.1226708E+00
        -11   -1    0    0    0    0  0.00000000000E+00  0.00000000000E+00  0.45593999997E+02  0.45594000000E+02  0.51100000000E-03 0.  1.
         11   -1    0    0    0    0 -0.00000000000E+00 -0.00000000000E+00 -0.45593999997E+02  0.45594000000E+02  0.51100000000E-03 0. -1.
    9900012    2    1    2    0    0 -0.11927557964E+02 -0.10307113134E+02  0.10108253766E+02  0.72461547738E+02  0.69999970616E+02 0.  0.
         12    1    1    2    0    0  0.11927557964E+02  0.10307113134E+02 -0.10108253766E+02  0.18726452262E+02  0.00000000000E+00 0. -1.
         11    1    3    3    0    0 -0.94755286551E+00 -0.16324869029E+01 -0.94920816842E+01  0.96779380491E+01  0.51100000000E-03 0. -1.
        -11    1    3    3    0    0 -0.26830927364E+02  0.13652073314E+02  0.18594097140E+02  0.35383869456E+02  0.51100000000E-03 0.  1.
         12    1    3    3    0    0  0.15850922266E+02 -0.22326699546E+02  0.10062383108E+01  0.27399740232E+02  0.00000000000E+00 0. -1.
</event>
<event>
 7    1  0.2932741E-013  0.7246150E+02  0.7816164E-02  0.1226708E+00
        -11   -1    0    0    0    0  0.00000000000E+00  0.00000000000E+00  0.45593999997E+02  0.45594000000E+02  0.51100000000E-03 0.  1.
         11   -1    0    0    0    0 -0.00000000000E+00 -0.00000000000E+00 -0.45593999997E+02  0.45594000000E+02  0.51100000000E-03 0. -1.
    9900012    2    1    2    0    0  0.29541861641E+01  0.11066410588E+02  0.14815162897E+02  0.72461502441E+02  0.69999911608E+02 0.  0.
         12    1    1    2    0    0 -0.29541861641E+01 -0.11066410588E+02 -0.14815162897E+02  0.18726497559E+02  0.00000000000E+00 0. -1.
         11    1    3    3    0    0  0.15510842426E+02 -0.65249603794E+01 -0.66115408430E+01  0.18079651913E+02  0.51100000000E-03 0.  1.
        -11    1    3    3    0    0 -0.22925063154E+02  0.27384606455E+02  0.14905937019E+02  0.38699640179E+02  0.51100000000E-03 0. -1.
         12    1    3    3    0    0  0.10368406892E+02 -0.97932354880E+01  0.65207667201E+01  0.15682210349E+02  0.00000000000E+00 0. -1.
</event>
<event>
 7    1  0.2932741E-013  0.7246156E+02  0.7816164E-02  0.1226708E+00
        -11   -1    0    0    0    0  0.00000000000E+00  0.00000000000E+00  0.45593999997E+02  0.45594000000E+02  0.51100000000E-03 0. -1.
         11   -1    0    0    0    0 -0.00000000000E+00 -0.00000000000E+00 -0.45593999997E+02  0.45594000000E+02  0.51100000000E-03 0.  1.
    9900012    2    1    2    0    0  0.13234114769E+02  0.91288903484E+00 -0.13217580786E+02  0.72461558749E+02  0.69999984960E+02 0.  0.
         12    1    1    2    0    0 -0.13234114769E+02 -0.91288903484E+00  0.13217580786E+02  0.18726441251E+02  0.00000000000E+00 0. -1.
         11    1    3    3    0    0  0.25917341675E+02  0.52051788918E+01 -0.79425665548E+01  0.27602297921E+02  0.51100000000E-03 0. -1.
        -11    1    3    3    0    0 -0.18787004545E+01 -0.12627254492E+02 -0.20665312156E+02  0.24290578383E+02  0.51100000000E-03 0.  1.
         12    1    3    3    0    0 -0.10804526452E+02  0.83349646345E+01  0.15390297925E+02  0.20568682445E+02  0.00000000000E+00 0. -1.
</event>
<event>
 7    1  0.2932741E-013  0.7246163E+02  0.7816164E-02  0.1226708E+00
        -11   -1    0    0    0    0  0.00000000000E+00  0.00000000000E+00  0.45593999997E+02  0.45594000000E+02  0.51100000000E-03 0.  1.
         11   -1    0    0    0    0 -0.00000000000E+00 -0.00000000000E+00 -0.45593999997E+02  0.45594000000E+02  0.51100000000E-03 0. -1.
    9900012    2    1    2    0    0  0.37897890690E+01 -0.16989293534E+02  0.69049490880E+01  0.72461630414E+02  0.70000078317E+02 0.  0.
         12    1    1    2    0    0 -0.37897890690E+01  0.16989293534E+02 -0.69049490880E+01  0.18726369586E+02  0.00000000000E+00 0. -1.
         11    1    3    3    0    0 -0.70853713369E+01 -0.22868414384E+02 -0.24702711183E+02  0.34400447722E+02  0.51100000000E-03 0. -1.
        -11    1    3    3    0    0  0.32798200745E+01 -0.28540556311E+01 -0.56418589306E-01  0.43481072416E+01  0.51100000000E-03 0.  1.
        -12    1    3    3    0    0  0.75953403314E+01  0.87331764812E+01  0.31664078861E+02  0.33713075450E+02  0.00000000000E+00 0.  1.
</event>
<event>
 7    1  0.2932741E-013  0.7246131E+02  0.7816164E-02  0.1226709E+00
        -11   -1    0    0    0    0  0.00000000000E+00  0.00000000000E+00  0.45593999997E+02  0.45594000000E+02  0.51100000000E-03 0. -1.
         11   -1    0    0    0    0 -0.00000000000E+00 -0.00000000000E+00 -0.45593999997E+02  0.45594000000E+02  0.51100000000E-03 0.  1.
    9900012    2    1    2    0    0 -0.17390008671E+02  0.35481053425E+01 -0.59739020892E+01  0.72461308908E+02  0.69999659494E+02 0.  0.
         12    1    1    2    0    0  0.17390008671E+02 -0.35481053425E+01  0.59739020892E+01  0.18726691092E+02  0.00000000000E+00 0. -1.
         11    1    3    3    0    0  0.13313389592E+02 -0.98777811955E+01  0.23291869817E+01  0.16740430581E+02  0.51100000000E-03 0. -1.
        -11    1    3    3    0    0  0.47254433594E+01  0.76871230527E+01 -0.16590738526E+02  0.18885822218E+02  0.51100000000E-03 0.  1.
         12    1    3    3    0    0 -0.35428841622E+02  0.57387634854E+01  0.82876494548E+01  0.36835056109E+02  0.00000000000E+00 0. -1.
</event>
<event>
 7    1  0.2932741E-013  0.7246159E+02  0.7816164E-02  0.1226708E+00
        -11   -1    0    0    0    0  0.00000000000E+00  0.00000000000E+00  0.45593999997E+02  0.45594000000E+02  0.51100000000E-03 0.  1.
         11   -1    0    0    0    0 -0.00000000000E+00 -0.00000000000E+00 -0.45593999997E+02  0.45594000000E+02  0.51100000000E-03 0. -1.
    9900012    2    1    2    0    0  0.14724934749E+02 -0.28006457555E+01 -0.11225473257E+02  0.72461586306E+02  0.70000020858E+02 0.  0.
         12    1    1    2    0    0 -0.14724934749E+02  0.28006457555E+01  0.11225473257E+02  0.18726413694E+02  0.00000000000E+00 0. -1.
         11    1    3    3    0    0  0.32542500167E+01 -0.34729223698E+01  0.35897398158E+01  0.59613392090E+01  0.51100000000E-03 0. -1.
        -11    1    3    3    0    0 -0.15574349635E+02 -0.16748681091E+02  0.10880863224E+02  0.25327294952E+02  0.51100000000E-03 0.  1.
         12    1    3    3    0    0  0.27045034367E+02  0.17420957706E+02 -0.25696076296E+02  0.41172952145E+02  0.00000000000E+00 0. -1.
</event>
<event>
 7    1  0.2932741E-013  0.7246165E+02  0.7816164E-02  0.1226708E+00
        -11   -1    0    0    0    0  0.00000000000E+00  0.00000000000E+00  0.45593999997E+02  0.45594000000E+02  0.51100000000E-03 0.  1.
         11   -1    0    0    0    0 -0.00000000000E+00 -0.00000000000E+00 -0.45593999997E+02  0.45594000000E+02  0.51100000000E-03 0. -1.
    9900012    2    1    2    0    0 -0.17991460470E+02  0.46383474495E+01 -0.23386740128E+01  0.72461646563E+02  0.70000099354E+02 0.  0.
         12    1    1    2    0    0  0.17991460470E+02 -0.46383474495E+01  0.23386740128E+01  0.18726353437E+02  0.00000000000E+00 0. -1.
         11    1    3    3    0    0 -0.38246342829E+02  0.11175942327E+02  0.14326333784E+02  0.42342983677E+02  0.51100000000E-03 0.  1.
        -11    1    3    3    0    0  0.39992709592E+01 -0.69034482438E+01 -0.93443439794E+01  0.12286925186E+02  0.51100000000E-03 0. -1.
        -12    1    3    3    0    0  0.16255611400E+02  0.36585336586E+00 -0.73206638177E+01  0.17831737700E+02  0.00000000000E+00 0.  1.
</event>
<event>
 7    1  0.2932741E-013  0.7246172E+02  0.7816164E-02  0.1226708E+00
        -11   -1    0    0    0    0  0.00000000000E+00  0.00000000000E+00  0.45593999997E+02  0.45594000000E+02  0.51100000000E-03 0. -1.
         11   -1    0    0    0    0 -0.00000000000E+00 -0.00000000000E+00 -0.45593999997E+02  0.45594000000E+02  0.51100000000E-03 0.  1.
    9900012    2    1    2    0    0 -0.13332403702E+02  0.25277075435E+01  0.12904700253E+02  0.72461719469E+02  0.70000194327E+02 0.  0.
         12    1    1    2    0    0  0.13332403702E+02 -0.25277075435E+01 -0.12904700253E+02  0.18726280531E+02  0.00000000000E+00 0. -1.
         11    1    3    3    0    0  0.35094784437E+01  0.16470853048E+02  0.62494005097E+01  0.17962751629E+02  0.51100000000E-03 0.  1.
        -11    1    3    3    0    0 -0.28271339594E+02  0.61112485028E+01  0.11120388590E+02  0.30988369486E+02  0.51100000000E-03 0. -1.
        -12    1    3    3    0    0  0.11429457448E+02 -0.20054394008E+02 -0.44650888465E+01  0.23510598354E+02  0.00000000000E+00 0.  1.
</event>
<event>
 7    1  0.2932741E-013  0.7246129E+02  0.7816164E-02  0.1226709E+00
        -11   -1    0    0    0    0  0.00000000000E+00  0.00000000000E+00  0.45593999997E+02  0.45594000000E+02  0.51100000000E-03 0.  1.
         11   -1    0    0    0    0 -0.00000000000E+00 -0.00000000000E+00 -0.45593999997E+02  0.45594000000E+02  0.51100000000E-03 0. -1.
    9900012    2    1    2    0    0 -0.26812014113E+01 -0.94502350802E+01  0.15943463424E+02  0.72461286192E+02  0.69999629903E+02 0.  0.
         12    1    1    2    0    0  0.26812014113E+01  0.94502350802E+01 -0.15943463424E+02  0.18726713808E+02  0.00000000000E+00 0. -1.
         11    1    3    3    0    0  0.14482342720E+02  0.28037490650E+01  0.93705408557E+01  0.17475877536E+02  0.51100000000E-03 0. -1.
        -11    1    3    3    0    0 -0.11453328160E+02 -0.15876501848E+02  0.27066956350E+02  0.33404523095E+02  0.51100000000E-03 0.  1.
         12    1    3    3    0    0 -0.57102159712E+01  0.36225177026E+01 -0.20494033782E+02  0.21580885561E+02  0.00000000000E+00 0. -1.
</event>
<event>
 7    1  0.2932741E-013  0.7246150E+02  0.7816164E-02  0.1226708E+00
        -11   -1    0    0    0    0  0.00000000000E+00  0.00000000000E+00  0.45593999997E+02  0.45594000000E+02  0.51100000000E-03 0.  1.
         11   -1    0    0    0    0 -0.00000000000E+00 -0.00000000000E+00 -0.45593999997E+02  0.45594000000E+02  0.51100000000E-03 0. -1.
    9900012    2    1    2    0    0  0.16288487373E+02  0.14027398239E+01  0.91323243001E+01  0.72461498804E+02  0.69999906871E+02 0.  0.
         12    1    1    2    0    0 -0.16288487373E+02 -0.14027398239E+01 -0.91323243001E+01  0.18726501196E+02  0.00000000000E+00 0. -1.
         11    1    3    3    0    0 -0.70810596036E+01  0.26690955053E+01  0.70973626168E+00  0.76006053541E+01  0.51100000000E-03 0. -1.
        -11    1    3    3    0    0 -0.66440692104E+01  0.98402272506E+01 -0.19207451768E+02  0.22580963924E+02  0.51100000000E-03 0.  1.
        -12    1    3    3    0    0  0.30013616187E+02 -0.11106582932E+02  0.27630039807E+02  0.42279929527E+02  0.00000000000E+00 0.  1.
</event>
<event>
 7    1  0.2932741E-013  0.7246144E+02  0.7816164E-02  0.1226708E+00
        -11   -1    0    0    0    0  0.00000000000E+00  0.00000000000E+00  0.45593999997E+02  0.45594000000E+02  0.51100000000E-03 0.  1.
         11   -1    0    0    0    0 -0.00000000000E+00 -0.00000000000E+00 -0.45593999997E+02  0.45594000000E+02  0.51100000000E-03 0. -1.
    9900012    2    1    2    0    0  0.51533839154E+01  0.11653464163E+02  0.13723102472E+02  0.72461437736E+02  0.69999827318E+02 0.  0.
         12    1    1    2    0    0 -0.51533839154E+01 -0.11653464163E+02 -0.13723102472E+02  0.18726562264E+02  0.00000000000E+00 0. -1.
         11    1    3    3    0    0  0.11443452255E+02 -0.67002720153E+01  0.19719484192E+01  0.13406521749E+02  0.51100000000E-03 0. -1.
        -11    1    3    3    0    0  0.23789127255E+02  0.26613058269E+01  0.53988973066E+01  0.24538810416E+02  0.51100000000E-03 0.  1.
        -12    1    3    3    0    0 -0.30079195595E+02  0.15692430351E+02  0.63522567464E+01  0.34516105570E+02  0.00000000000E+00 0.  1.
</event>
<event>
 7    1  0.2932741E-013  0.7246138E+02  0.7816164E-02  0.1226709E+00
        -11   -1    0    0    0    0  0.00000000000E+00  0.00000000000E+00  0.45593999997E+02  0.45594000000E+02  0.51100000000E-03 0.  1.
         11   -1    0    0    0    0 -0.00000000000E+00 -0.00000000000E+00 -0.45593999997E+02  0.45594000000E+02  0.51100000000E-03 0. -1.
    9900012    2    1    2    0    0  0.18372032221E+02 -0.35263955007E+01 -0.84817467143E+00  0.72461376347E+02  0.69999747347E+02 0.  0.
         12    1    1    2    0    0 -0.18372032221E+02  0.35263955007E+01  0.84817467143E+00  0.18726623653E+02  0.00000000000E+00 0. -1.
         11    1    3    3    0    0 -0.47633553478E+01 -0.19288075998E+02  0.39595417873E+01  0.20258267480E+02  0.51100000000E-03 0. -1.
        -11    1    3    3    0    0 -0.10791054812E+02 -0.28190009840E+01  0.51137727499E+01  0.12269649649E+02  0.51100000000E-03 0.  1.
         12    1    3    3    0    0  0.33926442381E+02  0.18580681482E+02 -0.99214892087E+01  0.39933459218E+02  0.00000000000E+00 0. -1.
</event>
<event>
 7    1  0.2932741E-013  0.7246156E+02  0.7816164E-02  0.1226708E+00
        -11   -1    0    0    0    0  0.00000000000E+00  0.00000000000E+00  0.45593999997E+02  0.45594000000E+02  0.51100000000E-03 0.  1.
         11   -1    0    0    0    0 -0.00000000000E+00 -0.00000000000E+00 -0.45593999997E+02  0.45594000000E+02  0.51100000000E-03 0. -1.
    9900012    2    1    2    0    0  0.42198834009E+01  0.12784867138E+02  0.13016110506E+02  0.72461564772E+02  0.69999992806E+02 0.  0.
         12    1    1    2    0    0 -0.42198834009E+01 -0.12784867138E+02 -0.13016110506E+02  0.18726435228E+02  0.00000000000E+00 0. -1.
         11    1    3    3    0    0  0.67464532852E+01  0.18727272384E+02 -0.62221201560E+01  0.20855218589E+02  0.51100000000E-03 0. -1.
        -11    1    3    3    0    0  0.21930513628E+02  0.62427604542E+00  0.13088735495E+02  0.25547057476E+02  0.51100000000E-03 0.  1.
         12    1    3    3    0    0 -0.24457083512E+02 -0.65666812914E+01  0.61494951663E+01  0.26059288707E+02  0.00000000000E+00 0. -1.
</event>
<event>
 7    1  0.2932741E-013  0.7246161E+02  0.7816164E-02  0.1226708E+00
        -11   -1    0    0    0    0  0.00000000000E+00  0.00000000000E+00  0.45593999997E+02  0.45594000000E+02  0.51100000000E-03 0.  1.
         11   -1    0    0    0    0 -0.00000000000E+00 -0.00000000000E+00 -0.45593999997E+02  0.45594000000E+02  0.51100000000E-03 0. -1.
    9900012    2    1    2    0    0  0.12018257622E+02  0.11500525308E+02 -0.86009961109E+01  0.72461608657E+02  0.70000049975E+02 0.  0.
         12    1    1    2    0    0 -0.12018257622E+02 -0.11500525308E+02  0.86009961109E+01  0.18726391343E+02  0.00000000000E+00 0. -1.
         11    1    3    3    0    0  0.78252548910E+01 -0.11987831787E+00  0.51294341028E+01  0.93573542947E+01  0.51100000000E-03 0. -1.
        -11    1    3    3    0    0  0.21227067216E+01  0.35603491694E+02 -0.15663289798E+02  0.38954501051E+02  0.51100000000E-03 0.  1.
         12    1    3    3    0    0  0.20702960091E+01 -0.23983088067E+02  0.19328595845E+01  0.24149753311E+02  0.00000000000E+00 0. -1.
</event>
<event>
 7    1  0.2932741E-013  0.7246151E+02  0.7816164E-02  0.1226708E+00
        -11   -1    0    0    0    0  0.00000000000E+00  0.00000000000E+00  0.45593999997E+02  0.45594000000E+02  0.51100000000E-03 0. -1.
         11   -1    0    0    0    0 -0.00000000000E+00 -0.00000000000E+00 -0.45593999997E+02  0.45594000000E+02  0.51100000000E-03 0.  1.
    9900012    2    1    2    0    0  0.42721983163E-01 -0.63697987476E+01 -0.17609810916E+02  0.72461505353E+02  0.69999915402E+02 0.  0.
         12    1    1    2    0    0 -0.42721983163E-01  0.63697987476E+01  0.17609810916E+02  0.18726494647E+02  0.00000000000E+00 0. -1.
         11    1    3    3    0    0 -0.80212098311E+01 -0.13611958708E+02  0.17144023015E+02  0.23314003355E+02  0.51100000000E-03 0. -1.
        -11    1    3    3    0    0  0.28192838724E+01  0.17753469676E+02 -0.75149629610E+01  0.19483549873E+02  0.51100000000E-03 0.  1.
        -12    1    3    3    0    0  0.52446479419E+01 -0.10511309716E+02 -0.27238870971E+02  0.29663952126E+02  0.00000000000E+00 0.  1.
</event>
<event>
 7    1  0.2932741E-013  0.7246157E+02  0.7816164E-02  0.1226708E+00
        -11   -1    0    0    0    0  0.00000000000E+00  0.00000000000E+00  0.45593999997E+02  0.45594000000E+02  0.51100000000E-03 0.  1.
         11   -1    0    0    0    0 -0.00000000000E+00 -0.00000000000E+00 -0.45593999997E+02  0.45594000000E+02  0.51100000000E-03 0. -1.
    9900012    2    1    2    0    0  0.95994000606E+01 -0.99311426285E+01  0.12645284125E+02  0.72461567183E+02  0.69999995947E+02 0.  0.
         12    1    1    2    0    0 -0.95994000606E+01  0.99311426285E+01 -0.12645284125E+02  0.18726432817E+02  0.00000000000E+00 0. -1.
         11    1    3    3    0    0 -0.19062033022E+02  0.17745705015E+02  0.16764729444E+02  0.30973009266E+02  0.51100000000E-03 0.  1.
        -11    1    3    3    0    0  0.10112715765E+02 -0.34277932353E+01 -0.21729707384E+01  0.10896723760E+02  0.51100000000E-03 0. -1.
        -12    1    3    3    0    0  0.18548717318E+02 -0.24249054408E+02 -0.19464745802E+01  0.30591834157E+02  0.00000000000E+00 0.  1.
</event>
<event>
 7    1  0.2932741E-013  0.7246146E+02  0.7816164E-02  0.1226708E+00
        -11   -1    0    0    0    0  0.00000000000E+00  0.00000000000E+00  0.45593999997E+02  0.45594000000E+02  0.51100000000E-03 0.  1.
         11   -1    0    0    0    0 -0.00000000000E+00 -0.00000000000E+00 -0.45593999997E+02  0.45594000000E+02  0.51100000000E-03 0. -1.
    9900012    2    1    2    0    0 -0.87995455020E+01  0.10987331486E+02  0.12350300039E+02  0.72461458267E+02  0.69999854063E+02 0.  0.
         12    1    1    2    0    0  0.87995455020E+01 -0.10987331486E+02 -0.12350300039E+02  0.18726541733E+02  0.00000000000E+00 0. -1.
         11    1    3    3    0    0  0.10812719036E+02  0.35300510136E+01  0.31766770339E+01  0.11809632948E+02  0.51100000000E-03 0. -1.
        -11    1    3    3    0    0 -0.22870892868E+00 -0.21518872280E+02  0.13679886009E+02  0.25500067715E+02  0.51100000000E-03 0.  1.
         12    1    3    3    0    0 -0.19383555610E+02  0.28976152753E+02 -0.45062630035E+01  0.35151757604E+02  0.00000000000E+00 0. -1.
</event>
<event>
 7    1  0.2932741E-013  0.7246159E+02  0.7816164E-02  0.1226708E+00
        -11   -1    0    0    0    0  0.00000000000E+00  0.00000000000E+00  0.45593999997E+02  0.45594000000E+02  0.51100000000E-03 0.  1.
         11   -1    0    0    0    0 -0.00000000000E+00 -0.00000000000E+00 -0.45593999997E+02  0.45594000000E+02  0.51100000000E-03 0. -1.
    9900012    2    1    2    0    0  0.16477416866E+02  0.80531114465E+01  0.37842755469E+01  0.72461585182E+02  0.70000019393E+02 0.  0.
         12    1    1    2    0    0 -0.16477416866E+02 -0.80531114465E+01 -0.37842755469E+01  0.18726414818E+02  0.00000000000E+00 0. -1.
         11    1    3    3    0    0 -0.86738833724E+01  0.57063205853E+01 -0.12814610048E+02  0.16492803835E+02  0.51100000000E-03 0. -1.
        -11    1    3    3    0    0 -0.12361959017E+02 -0.14163421215E+01 -0.39194000546E+01  0.13045526160E+02  0.51100000000E-03 0.  1.
        -12    1    3    3    0    0  0.37513259255E+02  0.37631329827E+01  0.20518285650E+02  0.42923255187E+02  0.00000000000E+00 0.  1.
</event>
<event>
 7    1  0.2932741E-013  0.7246151E+02  0.7816164E-02  0.1226708E+00
        -11   -1    0    0    0    0  0.00000000000E+00  0.00000000000E+00  0.45593999997E+02  0.45594000000E+02  0.51100000000E-03 0.  1.
         11   -1    0    0    0    0 -0.00000000000E+00 -0.00000000000E+00 -0.45593999997E+02  0.45594000000E+02  0.51100000000E-03 0. -1.
    9900012    2    1    2    0    0 -0.13348294532E+02 -0.13128144276E+02 -0.39519857320E+00  0.72461512851E+02  0.69999925169E+02 0.  0.
         12    1    1    2    0    0  0.13348294532E+02  0.13128144276E+02  0.39519857320E+00  0.18726487149E+02  0.00000000000E+00 0. -1.
         11    1    3    3    0    0  0.11540341037E+02 -0.18463256743E+02 -0.14458085447E+01  0.21821129288E+02  0.51100000000E-03 0. -1.
        -11    1    3    3    0    0  0.53142557078E+01 -0.82780232443E+01 -0.11572031832E+02  0.15188117183E+02  0.51100000000E-03 0.  1.
        -12    1    3    3    0    0 -0.30202891276E+02  0.13613135712E+02  0.12622641804E+02  0.35452266380E+02  0.00000000000E+00 0.  1.
</event>
<event>
 7    1  0.2932741E-013  0.7246173E+02  0.7816164E-02  0.1226708E+00
        -11   -1    0    0    0    0  0.00000000000E+00  0.00000000000E+00  0.45593999997E+02  0.45594000000E+02  0.51100000000E-03 0.  1.
         11   -1    0    0    0    0 -0.00000000000E+00 -0.00000000000E+00 -0.45593999997E+02  0.45594000000E+02  0.51100000000E-03 0. -1.
    9900012    2    1    2    0    0  0.13221789892E+02 -0.13226068941E+02  0.96359103024E+00  0.72461731411E+02  0.70000209885E+02 0.  0.
         12    1    1    2    0    0 -0.13221789892E+02  0.13226068941E+02 -0.96359103024E+00  0.18726268589E+02  0.00000000000E+00 0. -1.
         11    1    3    3    0    0 -0.19782858139E+01  0.33582531458E+01  0.10199774436E+02  0.10919106088E+02  0.51100000000E-03 0. -1.
        -11    1    3    3    0    0 -0.17621815059E+02 -0.10133750317E+02  0.10318086208E+02  0.22796582304E+02  0.51100000000E-03 0.  1.
         12    1    3    3    0    0  0.32821890765E+02 -0.64505717693E+01 -0.19554269614E+02  0.38746043020E+02  0.00000000000E+00 0. -1.
</event>
<event>
 7    1  0.2932741E-013  0.7246156E+02  0.7816164E-02  0.1226708E+00
        -11   -1    0    0    0    0  0.00000000000E+00  0.00000000000E+00  0.45593999997E+02  0.45594000000E+02  0.51100000000E-03 0. -1.
         11   -1    0    0    0    0 -0.00000000000E+00 -0.00000000000E+00 -0.45593999997E+02  0.45594000000E+02  0.51100000000E-03 0.  1.
    9900012    2    1    2    0    0 -0.17353332792E+02  0.25162650954E+01 -0.65734279207E+01  0.72461556033E+02  0.69999981422E+02 0.  0.
         12    1    1    2    0    0  0.17353332792E+02 -0.25162650954E+01  0.65734279207E+01  0.18726443967E+02  0.00000000000E+00 0. -1.
         11    1    3    3    0    0 -0.10158297239E+02 -0.25550952187E+01 -0.62797875601E+01  0.12212913102E+02  0.51100000000E-03 0. -1.
        -11    1    3    3    0    0  0.16926794834E+02  0.13814089645E+02 -0.18629897717E+02  0.28712689621E+02  0.51100000000E-03 0.  1.
         12    1    3    3    0    0 -0.24121830386E+02 -0.87427293309E+01  0.18336257357E+02  0.31535953310E+02  0.00000000000E+00 0. -1.
</event>
<event>
 7    1  0.2932741E-013  0.7246139E+02  0.7816164E-02  0.1226708E+00
        -11   -1    0    0    0    0  0.00000000000E+00  0.00000000000E+00  0.45593999997E+02  0.45594000000E+02  0.51100000000E-03 0. -1.
         11   -1    0    0    0    0 -0.00000000000E+00 -0.00000000000E+00 -0.45593999997E+02  0.45594000000E+02  0.51100000000E-03 0.  1.
    9900012    2    1    2    0    0  0.16954885099E+01  0.17563217599E+02 -0.62725192177E+01  0.72461393499E+02  0.69999769691E+02 0.  0.
         12    1    1    2    0    0 -0.16954885099E+01 -0.17563217599E+02  0.62725192177E+01  0.18726606501E+02  0.00000000000E+00 0. -1.
         11    1    3    3    0    0  0.11938013698E+02 -0.76709874429E+01  0.47287496194E+01  0.14957315690E+02  0.51100000000E-03 0. -1.
        -11    1    3    3    0    0  0.56995355122E+01 -0.93373500151E+01 -0.15710240686E+02  0.19143731952E+02  0.51100000000E-03 0.  1.
         12    1    3    3    0    0 -0.15942060701E+02  0.34571555057E+02  0.47089718490E+01  0.38360345858E+02  0.00000000000E+00 0. -1.
</event>
<event>
 7    1  0.2932741E-013  0.7246148E+02  0.7816164E-02  0.1226708E+00
        -11   -1    0    0    0    0  0.00000000000E+00  0.00000000000E+00  0.45593999997E+02  0.45594000000E+02  0.51100000000E-03 0.  1.
         11   -1    0    0    0    0 -0.00000000000E+00 -0.00000000000E+00 -0.45593999997E+02  0.45594000000E+02  0.51100000000E-03 0. -1.
    9900012    2    1    2    0    0 -0.12396852006E+02  0.13883532803E+01  0.13966856844E+02  0.72461479912E+02  0.69999882261E+02 0.  0.
         12    1    1    2    0    0  0.12396852006E+02 -0.13883532803E+01 -0.13966856844E+02  0.18726520088E+02  0.00000000000E+00 0. -1.
         11    1    3    3    0    0  0.15208904486E+02 -0.18695543582E+02 -0.85620789656E+01  0.25576225718E+02  0.51100000000E-03 0. -1.
        -11    1    3    3    0    0 -0.60110268985E+01  0.12498684664E+02 -0.11947847508E+01  0.13920383385E+02  0.51100000000E-03 0.  1.
        -12    1    3    3    0    0 -0.21594729593E+02  0.75852121981E+01  0.23723720561E+02  0.32964870810E+02  0.00000000000E+00 0.  1.
</event>
<event>
 7    1  0.2932741E-013  0.7246151E+02  0.7816164E-02  0.1226708E+00
        -11   -1    0    0    0    0  0.00000000000E+00  0.00000000000E+00  0.45593999997E+02  0.45594000000E+02  0.51100000000E-03 0.  1.
         11   -1    0    0    0    0 -0.00000000000E+00 -0.00000000000E+00 -0.45593999997E+02  0.45594000000E+02  0.51100000000E-03 0. -1.
    9900012    2    1    2    0    0 -0.22802933070E+01 -0.18464573164E+02 -0.21309772838E+01  0.72461514375E+02  0.69999927154E+02 0.  0.
         12    1    1    2    0    0  0.22802933070E+01  0.18464573164E+02  0.21309772838E+01  0.18726485625E+02  0.00000000000E+00 0. -1.
         11    1    3    3    0    0 -0.27564816944E+00 -0.17793112924E+02 -0.26586500843E+02  0.31992387795E+02  0.51100000000E-03 0. -1.
        -11    1    3    3    0    0  0.26330890825E+01 -0.94849471842E+01 -0.37678582701E+01  0.10540120370E+02  0.51100000000E-03 0.  1.
        -12    1    3    3    0    0 -0.46377342200E+01  0.88134869446E+01  0.28223381830E+02  0.29929006210E+02  0.00000000000E+00 0.  1.
</event>
<event>
 7    1  0.2932741E-013  0.7246148E+02  0.7816164E-02  0.1226708E+00
        -11   -1    0    0    0    0  0.00000000000E+00  0.00000000000E+00  0.45593999997E+02  0.45594000000E+02  0.51100000000E-03 0.  1.
         11   -1    0    0    0    0 -0.00000000000E+00 -0.00000000000E+00 -0.45593999997E+02  0.45594000000E+02  0.51100000000E-03 0. -1.
    9900012    2    1    2    0    0 -0.76072179636E+01  0.31709771190E+01  0.16815401434E+02  0.72461479062E+02  0.69999881153E+02 0.  0.
         12    1    1    2    0    0  0.76072179636E+01 -0.31709771190E+01 -0.16815401434E+02  0.18726520938E+02  0.00000000000E+00 0. -1.
         11    1    3    3    0    0  0.94957745639E+01 -0.41659743305E+01 -0.30024841467E+01  0.10795368822E+02  0.51100000000E-03 0. -1.
        -11    1    3    3    0    0  0.84365888423E+00 -0.14195420698E+02  0.28892962457E+02  0.32202872681E+02  0.51100000000E-03 0.  1.
         12    1    3    3    0    0 -0.17946651412E+02  0.21532372148E+02 -0.90750768758E+01  0.29463237560E+02  0.00000000000E+00 0. -1.
</event>
<event>
 7    1  0.2932741E-013  0.7246158E+02  0.7816164E-02  0.1226708E+00
        -11   -1    0    0    0    0  0.00000000000E+00  0.00000000000E+00  0.45593999997E+02  0.45594000000E+02  0.51100000000E-03 0.  1.
         11   -1    0    0    0    0 -0.00000000000E+00 -0.00000000000E+00 -0.45593999997E+02  0.45594000000E+02  0.51100000000E-03 0. -1.
    9900012    2    1    2    0    0 -0.37232873591E+01 -0.12115031581E+02  0.13785569223E+02  0.72461580754E+02  0.70000013626E+02 0.  0.
         12    1    1    2    0    0  0.37232873591E+01  0.12115031581E+02 -0.13785569223E+02  0.18726419246E+02  0.00000000000E+00 0. -1.
         11    1    3    3    0    0 -0.14120312629E+02  0.72522445345E+01  0.36976831123E+01  0.16298807938E+02  0.51100000000E-03 0. -1.
        -11    1    3    3    0    0 -0.15147979749E+02 -0.15466917325E+02 -0.95941300717E+01  0.23679825889E+02  0.51100000000E-03 0.  1.
         12    1    3    3    0    0  0.25545005019E+02 -0.39003587902E+01  0.19682016183E+02  0.32482946928E+02  0.00000000000E+00 0. -1.
</event>
<event>
 7    1  0.2932741E-013  0.7246157E+02  0.7816164E-02  0.1226708E+00
        -11   -1    0    0    0    0  0.00000000000E+00  0.00000000000E+00  0.45593999997E+02  0.45594000000E+02  0.51100000000E-03 0. -1.
         11   -1    0    0    0    0 -0.00000000000E+00 -0.00000000000E+00 -0.45593999997E+02  0.45594000000E+02  0.51100000000E-03 0.  1.
    9900012    2    1    2    0    0  0.10037662479E+02  0.15313345124E+02 -0.39275680073E+01  0.72461574891E+02  0.70000005988E+02 0.  0.
         12    1    1    2    0    0 -0.10037662479E+02 -0.15313345124E+02  0.39275680073E+01  0.18726425109E+02  0.00000000000E+00 0. -1.
         11    1    3    3    0    0 -0.25387299105E+01  0.15341796723E+02 -0.74500806626E+01  0.17242957357E+02  0.51100000000E-03 0.  1.
        -11    1    3    3    0    0 -0.11092018718E+01 -0.25639023076E+02  0.49902789311E+01  0.26143693640E+02  0.51100000000E-03 0. -1.
         12    1    3    3    0    0  0.13685594261E+02  0.25610571476E+02 -0.14677662758E+01  0.29074923894E+02  0.00000000000E+00 0. -1.
</event>
<event>
 7    1  0.2932741E-013  0.7246156E+02  0.7816164E-02  0.1226708E+00
        -11   -1    0    0    0    0  0.00000000000E+00  0.00000000000E+00  0.45593999997E+02  0.45594000000E+02  0.51100000000E-03 0. -1.
         11   -1    0    0    0    0 -0.00000000000E+00 -0.00000000000E+00 -0.45593999997E+02  0.45594000000E+02  0.51100000000E-03 0.  1.
    9900012    2    1    2    0    0  0.12256380007E+02 -0.12922792420E+01 -0.14099310159E+02  0.72461564581E+02  0.69999992558E+02 0.  0.
         12    1    1    2    0    0 -0.12256380007E+02  0.12922792420E+01  0.14099310159E+02  0.18726435419E+02  0.00000000000E+00 0. -1.
         11    1    3    3    0    0  0.95719998610E+01  0.25242390470E+02 -0.80584508633E+01  0.28173393273E+02  0.51100000000E-03 0. -1.
        -11    1    3    3    0    0 -0.12119630787E+01  0.15203637079E-01  0.11930514424E+02  0.11991924797E+02  0.51100000000E-03 0.  1.
        -12    1    3    3    0    0  0.38963432250E+01 -0.26549873349E+02 -0.17971373720E+02  0.32296246511E+02  0.00000000000E+00 0.  1.
</event>
<event>
 7    1  0.2932741E-013  0.7246154E+02  0.7816164E-02  0.1226708E+00
        -11   -1    0    0    0    0  0.00000000000E+00  0.00000000000E+00  0.45593999997E+02  0.45594000000E+02  0.51100000000E-03 0.  1.
         11   -1    0    0    0    0 -0.00000000000E+00 -0.00000000000E+00 -0.45593999997E+02  0.45594000000E+02  0.51100000000E-03 0. -1.
    9900012    2    1    2    0    0  0.16967549621E+02 -0.71924285811E+01  0.33243724312E+01  0.72461542217E+02  0.69999963424E+02 0.  0.
         12    1    1    2    0    0 -0.16967549621E+02  0.71924285811E+01 -0.33243724312E+01  0.18726457783E+02  0.00000000000E+00 0. -1.
         11    1    3    3    0    0 -0.13207179137E+02 -0.10468852939E+02  0.13178822633E+02  0.21394107340E+02  0.51100000000E-03 0. -1.
        -11    1    3    3    0    0  0.34875619499E+01  0.16024812847E+02 -0.13534498168E+02  0.21263592266E+02  0.51100000000E-03 0.  1.
        -12    1    3    3    0    0  0.26687166808E+02 -0.12748388489E+02  0.36800479660E+01  0.29803842611E+02  0.00000000000E+00 0.  1.
</event>
<event>
 7    1  0.2932741E-013  0.7246156E+02  0.7816164E-02  0.1226708E+00
        -11   -1    0    0    0    0  0.00000000000E+00  0.00000000000E+00  0.45593999997E+02  0.45594000000E+02  0.51100000000E-03 0.  1.
         11   -1    0    0    0    0 -0.00000000000E+00 -0.00000000000E+00 -0.45593999997E+02  0.45594000000E+02  0.51100000000E-03 0. -1.
    9900012    2    1    2    0    0 -0.10077009341E+02 -0.62578644161E+01  0.14490435505E+02  0.72461555985E+02  0.69999981360E+02 0.  0.
         12    1    1    2    0    0  0.10077009341E+02  0.62578644161E+01 -0.14490435505E+02  0.18726444015E+02  0.00000000000E+00 0. -1.
         11    1    3    3    0    0 -0.14445952833E+02 -0.76925444499E+01 -0.12451590889E+02  0.20564603310E+02  0.51100000000E-03 0. -1.
        -11    1    3    3    0    0  0.17735091810E+02 -0.11321338955E+02  0.25930522477E+02  0.33393086012E+02  0.51100000000E-03 0.  1.
         12    1    3    3    0    0 -0.13366148318E+02  0.12756018988E+02  0.10115039170E+01  0.18503866663E+02  0.00000000000E+00 0. -1.
</event>
<event>
 7    1  0.2932741E-013  0.7246118E+02  0.7816164E-02  0.1226709E+00
        -11   -1    0    0    0    0  0.00000000000E+00  0.00000000000E+00  0.45593999997E+02  0.45594000000E+02  0.51100000000E-03 0.  1.
         11   -1    0    0    0    0 -0.00000000000E+00 -0.00000000000E+00 -0.45593999997E+02  0.45594000000E+02  0.51100000000E-03 0. -1.
    9900012    2    1    2    0    0  0.64523540433E+00 -0.75166128879E+01  0.17139948663E+02  0.72461183981E+02  0.69999496754E+02 0.  0.
         12    1    1    2    0    0 -0.64523540433E+00  0.75166128879E+01 -0.17139948663E+02  0.18726816019E+02  0.00000000000E+00 0. -1.
         11    1    3    3    0    0 -0.30331320331E+01  0.25001179686E+02 -0.69071108618E+01  0.26114498968E+02  0.51100000000E-03 0. -1.
        -11    1    3    3    0    0 -0.45715562316E+01  0.13367493537E+01  0.32666444931E+01  0.57755512048E+01  0.51100000000E-03 0.  1.
        -12    1    3    3    0    0  0.82499236690E+01 -0.33854541927E+02  0.20780415032E+02  0.40571133809E+02  0.00000000000E+00 0.  1.
</event>
<event>
 7    1  0.2932741E-013  0.7246154E+02  0.7816164E-02  0.1226708E+00
        -11   -1    0    0    0    0  0.00000000000E+00  0.00000000000E+00  0.45593999997E+02  0.45594000000E+02  0.51100000000E-03 0.  1.
         11   -1    0    0    0    0 -0.00000000000E+00 -0.00000000000E+00 -0.45593999997E+02  0.45594000000E+02  0.51100000000E-03 0. -1.
    9900012    2    1    2    0    0 -0.17808251188E+01  0.11447662662E+02 -0.14712574399E+02  0.72461543742E+02  0.69999965411E+02 0.  0.
         12    1    1    2    0    0  0.17808251188E+01 -0.11447662662E+02  0.14712574399E+02  0.18726456258E+02  0.00000000000E+00 0. -1.
         11    1    3    3    0    0  0.80599704271E+01  0.29841014556E+02 -0.15366863368E+02  0.34519411395E+02  0.51100000000E-03 0. -1.
        -11    1    3    3    0    0 -0.32685479671E+01  0.74299609931E+01 -0.64466553424E+01  0.10365668890E+02  0.51100000000E-03 0.  1.
         12    1    3    3    0    0 -0.65722475789E+01 -0.25823312887E+02  0.71009443112E+01  0.27576463457E+02  0.00000000000E+00 0. -1.
</event>
<event>
 7    1  0.2932741E-013  0.7246159E+02  0.7816164E-02  0.1226708E+00
        -11   -1    0    0    0    0  0.00000000000E+00  0.00000000000E+00  0.45593999997E+02  0.45594000000E+02  0.51100000000E-03 0. -1.
         11   -1    0    0    0    0 -0.00000000000E+00 -0.00000000000E+00 -0.45593999997E+02  0.45594000000E+02  0.51100000000E-03 0.  1.
    9900012    2    1    2    0    0  0.79264434455E+01 -0.16859637250E+02 -0.18980439831E+01  0.72461589643E+02  0.70000025205E+02 0.  0.
         12    1    1    2    0    0 -0.79264434455E+01  0.16859637250E+02  0.18980439831E+01  0.18726410357E+02  0.00000000000E+00 0. -1.
         11    1    3    3    0    0 -0.18804077252E+02 -0.14442274541E+02  0.52587496847E+01  0.24286355506E+02  0.51100000000E-03 0. -1.
        -11    1    3    3    0    0  0.12855567153E+01 -0.15014962284E+02 -0.12136279940E+02  0.19349187050E+02  0.51100000000E-03 0.  1.
        -12    1    3    3    0    0  0.25444963982E+02  0.12597599576E+02  0.49794862717E+01  0.28826047087E+02  0.00000000000E+00 0.  1.
</event>
<event>
 7    1  0.2932741E-013  0.7246154E+02  0.7816164E-02  0.1226708E+00
        -11   -1    0    0    0    0  0.00000000000E+00  0.00000000000E+00  0.45593999997E+02  0.45594000000E+02  0.51100000000E-03 0.  1.
         11   -1    0    0    0    0 -0.00000000000E+00 -0.00000000000E+00 -0.45593999997E+02  0.45594000000E+02  0.51100000000E-03 0. -1.
    9900012    2    1    2    0    0 -0.12565393377E+02  0.11370887497E+02  0.79683213340E+01  0.72461539094E+02  0.69999959356E+02 0.  0.
         12    1    1    2    0    0  0.12565393377E+02 -0.11370887497E+02 -0.79683213340E+01  0.18726460906E+02  0.00000000000E+00 0. -1.
         11    1    3    3    0    0 -0.16490394893E+02 -0.24446087371E+00  0.10025987134E+02  0.19300603699E+02  0.51100000000E-03 0. -1.
        -11    1    3    3    0    0 -0.77363849274E+01  0.84305727880E+01  0.22805379316E+02  0.25514927695E+02  0.51100000000E-03 0.  1.
         12    1    3    3    0    0  0.11661386443E+02  0.31847755824E+01 -0.24863045116E+02  0.27646007700E+02  0.00000000000E+00 0. -1.
</event>
<event>
 7    1  0.2932741E-013  0.7246157E+02  0.7816164E-02  0.1226708E+00
        -11   -1    0    0    0    0  0.00000000000E+00  0.00000000000E+00  0.45593999997E+02  0.45594000000E+02  0.51100000000E-03 0.  1.
         11   -1    0    0    0    0 -0.00000000000E+00 -0.00000000000E+00 -0.45593999997E+02  0.45594000000E+02  0.51100000000E-03 0. -1.
    9900012    2    1    2    0    0 -0.11725551312E+02 -0.11966431693E+02  0.83663188213E+01  0.72461565966E+02  0.69999994361E+02 0.  0.
         12    1    1    2    0    0  0.11725551312E+02  0.11966431693E+02 -0.83663188213E+01  0.18726434034E+02  0.00000000000E+00 0. -1.
         11    1    3    3    0    0  0.20165612798E+01 -0.17941130962E+02 -0.19022810241E+02  0.26226284702E+02  0.51100000000E-03 0. -1.
        -11    1    3    3    0    0 -0.56124740988E+01 -0.14154662255E+02  0.14280442645E+02  0.20875472964E+02  0.51100000000E-03 0.  1.
        -12    1    3    3    0    0 -0.81296384927E+01  0.20129361525E+02  0.13108686417E+02  0.25359808300E+02  0.00000000000E+00 0.  1.
</event>
<event>
 7    1  0.2932741E-013  0.7246170E+02  0.7816164E-02  0.1226708E+00
        -11   -1    0    0    0    0  0.00000000000E+00  0.00000000000E+00  0.45593999997E+02  0.45594000000E+02  0.51100000000E-03 0.  1.
         11   -1    0    0    0    0 -0.00000000000E+00 -0.00000000000E+00 -0.45593999997E+02  0.45594000000E+02  0.51100000000E-03 0. -1.
    9900012    2    1    2    0    0  0.13132162042E+02  0.77458094663E+01  0.10873038262E+02  0.72461702843E+02  0.70000172669E+02 0.  0.
         12    1    1    2    0    0 -0.13132162042E+02 -0.77458094663E+01 -0.10873038262E+02  0.18726297157E+02  0.00000000000E+00 0. -1.
         11    1    3    3    0    0 -0.16881580405E+02 -0.16569970637E+01  0.99047241596E+01  0.19642732935E+02  0.51100000000E-03 0.  1.
        -11    1    3    3    0    0  0.18068193171E+01 -0.14815761742E+02 -0.36231092866E+01  0.15358981516E+02  0.51100000000E-03 0. -1.
         12    1    3    3    0    0  0.28206923129E+02  0.24218568272E+02  0.45914233886E+01  0.37459988392E+02  0.00000000000E+00 0. -1.
</event>
<event>
 7    1  0.2932741E-013  0.7246169E+02  0.7816164E-02  0.1226708E+00
        -11   -1    0    0    0    0  0.00000000000E+00  0.00000000000E+00  0.45593999997E+02  0.45594000000E+02  0.51100000000E-03 0. -1.
         11   -1    0    0    0    0 -0.00000000000E+00 -0.00000000000E+00 -0.45593999997E+02  0.45594000000E+02  0.51100000000E-03 0.  1.
    9900012    2    1    2    0    0  0.15855233110E+02 -0.49185806827E+01  0.86656748674E+01  0.72461687661E+02  0.70000152891E+02 0.  0.
         12    1    1    2    0    0 -0.15855233110E+02  0.49185806827E+01 -0.86656748674E+01  0.18726312339E+02  0.00000000000E+00 0. -1.
         11    1    3    3    0    0  0.24910068005E+02 -0.18983632576E+02  0.43707081515E+01  0.31622664084E+02  0.51100000000E-03 0. -1.
        -11    1    3    3    0    0  0.16401005905E+01  0.10177125097E+02  0.19375277563E+02  0.21946871898E+02  0.51100000000E-03 0.  1.
        -12    1    3    3    0    0 -0.10694935485E+02  0.38879267960E+01 -0.15080310848E+02  0.18892151679E+02  0.00000000000E+00 0.  1.
</event>
<event>
 7    1  0.2932741E-013  0.7246149E+02  0.7816164E-02  0.1226708E+00
        -11   -1    0    0    0    0  0.00000000000E+00  0.00000000000E+00  0.45593999997E+02  0.45594000000E+02  0.51100000000E-03 0.  1.
         11   -1    0    0    0    0 -0.00000000000E+00 -0.00000000000E+00 -0.45593999997E+02  0.45594000000E+02  0.51100000000E-03 0. -1.
    9900012    2    1    2    0    0  0.10868267139E+02 -0.10818633772E+02  0.10748021985E+02  0.72461493548E+02  0.69999900024E+02 0.  0.
         12    1    1    2    0    0 -0.10868267139E+02  0.10818633772E+02 -0.10748021985E+02  0.18726506452E+02  0.00000000000E+00 0. -1.
         11    1    3    3    0    0  0.10071707511E+01  0.87415179143E+01 -0.17771149151E+02  0.19830337133E+02  0.51100000000E-03 0. -1.
        -11    1    3    3    0    0  0.15892533023E+02  0.44650293760E+01  0.24819781814E+01  0.16693391183E+02  0.51100000000E-03 0.  1.
         12    1    3    3    0    0 -0.60314366357E+01 -0.24025181063E+02  0.26037192955E+02  0.35937765233E+02  0.00000000000E+00 0. -1.
</event>
<event>
 7    1  0.2932741E-013  0.7246175E+02  0.7816164E-02  0.1226708E+00
        -11   -1    0    0    0    0  0.00000000000E+00  0.00000000000E+00  0.45593999997E+02  0.45594000000E+02  0.51100000000E-03 0.  1.
         11   -1    0    0    0    0 -0.00000000000E+00 -0.00000000000E+00 -0.45593999997E+02  0.45594000000E+02  0.51100000000E-03 0. -1.
    9900012    2    1    2    0    0 -0.90368646655E+01  0.80585182194E+01  0.14285235661E+02  0.72461745790E+02  0.70000228615E+02 0.  0.
         12    1    1    2    0    0  0.90368646655E+01 -0.80585182194E+01 -0.14285235661E+02  0.18726254210E+02  0.00000000000E+00 0. -1.
         11    1    3    3    0    0 -0.49641190967E+01  0.22408739501E+02  0.20066394284E+02  0.30486952361E+02  0.51100000000E-03 0. -1.
        -11    1    3    3    0    0 -0.45194283230E+01  0.90805087553E+00  0.15281870244E+02  0.15961996967E+02  0.51100000000E-03 0.  1.
         12    1    3    3    0    0  0.44668275425E+00 -0.15258272157E+02 -0.21063028867E+02  0.26012796462E+02  0.00000000000E+00 0. -1.
</event>
<event>
 7    1  0.2932741E-013  0.7246165E+02  0.7816164E-02  0.1226708E+00
        -11   -1    0    0    0    0  0.00000000000E+00  0.00000000000E+00  0.45593999997E+02  0.45594000000E+02  0.51100000000E-03 0.  1.
         11   -1    0    0    0    0 -0.00000000000E+00 -0.00000000000E+00 -0.45593999997E+02  0.45594000000E+02  0.51100000000E-03 0. -1.
    9900012    2    1    2    0    0 -0.77616450474E+01 -0.11172152016E+02  0.12869192259E+02  0.72461648943E+02  0.70000102455E+02 0.  0.
         12    1    1    2    0    0  0.77616450474E+01  0.11172152016E+02 -0.12869192259E+02  0.18726351057E+02  0.00000000000E+00 0. -1.
         11    1    3    3    0    0 -0.25637036730E+01  0.88647044123E+01  0.45111386976E+01  0.10271608124E+02  0.51100000000E-03 0. -1.
        -11    1    3    3    0    0  0.79257737485E+01  0.26268619824E+01  0.28150660464E+02  0.29362867337E+02  0.51100000000E-03 0.  1.
         12    1    3    3    0    0 -0.13123715123E+02 -0.22663718411E+02 -0.19792606903E+02  0.32827173483E+02  0.00000000000E+00 0. -1.
</event>
<event>
 7    1  0.2932741E-013  0.7246157E+02  0.7816164E-02  0.1226708E+00
        -11   -1    0    0    0    0  0.00000000000E+00  0.00000000000E+00  0.45593999997E+02  0.45594000000E+02  0.51100000000E-03 0.  1.
         11   -1    0    0    0    0 -0.00000000000E+00 -0.00000000000E+00 -0.45593999997E+02  0.45594000000E+02  0.51100000000E-03 0. -1.
    9900012    2    1    2    0    0 -0.90220817349E+01  0.11572869949E+02  0.11634003422E+02  0.72461566456E+02  0.69999994999E+02 0.  0.
         12    1    1    2    0    0  0.90220817349E+01 -0.11572869949E+02 -0.11634003422E+02  0.18726433544E+02  0.00000000000E+00 0. -1.
         11    1    3    3    0    0 -0.69110562179E+01  0.28346255926E+02 -0.13639793935E+02  0.32207404458E+02  0.51100000000E-03 0.  1.
        -11    1    3    3    0    0  0.88487315923E+01 -0.60859850916E+01  0.39543821697E-01  0.10739684786E+02  0.51100000000E-03 0. -1.
        -12    1    3    3    0    0 -0.10959757109E+02 -0.10687400886E+02  0.25234253535E+02  0.29514477212E+02  0.00000000000E+00 0.  1.
</event>
<event>
 7    1  0.2932741E-013  0.7246156E+02  0.7816164E-02  0.1226708E+00
        -11   -1    0    0    0    0  0.00000000000E+00  0.00000000000E+00  0.45593999997E+02  0.45594000000E+02  0.51100000000E-03 0. -1.
         11   -1    0    0    0    0 -0.00000000000E+00 -0.00000000000E+00 -0.45593999997E+02  0.45594000000E+02  0.51100000000E-03 0.  1.
    9900012    2    1    2    0    0  0.65701472626E+00  0.16180493428E+02 -0.94042194178E+01  0.72461564707E+02  0.69999992721E+02 0.  0.
         12    1    1    2    0    0 -0.65701472626E+00 -0.16180493428E+02  0.94042194178E+01  0.18726435293E+02  0.00000000000E+00 0. -1.
         11    1    3    3    0    0 -0.11215251053E+02  0.25669239961E+01 -0.10891563440E+02  0.15842888291E+02  0.51100000000E-03 0. -1.
        -11    1    3    3    0    0 -0.15763453661E+02 -0.10790922244E+02 -0.34773265938E+01  0.19417061433E+02  0.51100000000E-03 0.  1.
         12    1    3    3    0    0  0.27635719440E+02  0.24404491676E+02  0.49646706159E+01  0.37201614982E+02  0.00000000000E+00 0. -1.
</event>
<event>
 7    1  0.2932741E-013  0.7246154E+02  0.7816164E-02  0.1226708E+00
        -11   -1    0    0    0    0  0.00000000000E+00  0.00000000000E+00  0.45593999997E+02  0.45594000000E+02  0.51100000000E-03 0. -1.
         11   -1    0    0    0    0 -0.00000000000E+00 -0.00000000000E+00 -0.45593999997E+02  0.45594000000E+02  0.51100000000E-03 0.  1.
    9900012    2    1    2    0    0 -0.11378755529E+01 -0.13013370254E+02  0.13417810018E+02  0.72461542999E+02  0.69999964443E+02 0.  0.
         12    1    1    2    0    0  0.11378755529E+01  0.13013370254E+02 -0.13417810018E+02  0.18726457001E+02  0.00000000000E+00 0. -1.
         11    1    3    3    0    0  0.25986629132E+02 -0.10743625858E+02  0.87632077623E+01  0.29453763779E+02  0.51100000000E-03 0. -1.
        -11    1    3    3    0    0  0.26942438152E+01 -0.11118435361E+02  0.31567801647E+01  0.11867763727E+02  0.51100000000E-03 0.  1.
        -12    1    3    3    0    0 -0.29818748500E+02  0.88486909647E+01  0.14978220906E+01  0.31140015493E+02  0.00000000000E+00 0.  1.
</event>
<event>
 7    1  0.2932741E-013  0.7246157E+02  0.7816164E-02  0.1226708E+00
        -11   -1    0    0    0    0  0.00000000000E+00  0.00000000000E+00  0.45593999997E+02  0.45594000000E+02  0.51100000000E-03 0. -1.
         11   -1    0    0    0    0 -0.00000000000E+00 -0.00000000000E+00 -0.45593999997E+02  0.45594000000E+02  0.51100000000E-03 0.  1.
    9900012    2    1    2    0    0  0.56743426042E+01 -0.64804646466E+01 -0.16627826561E+02  0.72461569423E+02  0.69999998865E+02 0.  0.
         12    1    1    2    0    0 -0.56743426042E+01  0.64804646466E+01  0.16627826561E+02  0.18726430577E+02  0.00000000000E+00 0. -1.
         11    1    3    3    0    0 -0.22499634160E+02  0.98627338418E+01  0.77370568809E+01  0.25755952819E+02  0.51100000000E-03 0. -1.
        -11    1    3    3    0    0  0.44050146207E+01 -0.18475855004E+01 -0.17349330491E+02  0.17994915802E+02  0.51100000000E-03 0.  1.
        -12    1    3    3    0    0  0.23768962144E+02 -0.14495612988E+02 -0.70155529511E+01  0.28710700801E+02  0.00000000000E+00 0.  1.
</event>
<event>
 7    1  0.2932741E-013  0.7246157E+02  0.7816164E-02  0.1226708E+00
        -11   -1    0    0    0    0  0.00000000000E+00  0.00000000000E+00  0.45593999997E+02  0.45594000000E+02  0.51100000000E-03 0. -1.
         11   -1    0    0    0    0 -0.00000000000E+00 -0.00000000000E+00 -0.45593999997E+02  0.45594000000E+02  0.51100000000E-03 0.  1.
    9900012    2    1    2    0    0  0.16784680094E+02  0.19288287001E+01 -0.80767060935E+01  0.72461573557E+02  0.70000004250E+02 0.  0.
         12    1    1    2    0    0 -0.16784680094E+02 -0.19288287001E+01  0.80767060935E+01  0.18726426443E+02  0.00000000000E+00 0. -1.
         11    1    3    3    0    0  0.51024497970E+01  0.77128100672E+00 -0.14462352594E+02  0.15355439138E+02  0.51100000000E-03 0. -1.
        -11    1    3    3    0    0  0.30799181337E+02 -0.11334630334E+02 -0.17456740599E+01  0.32865039084E+02  0.51100000000E-03 0.  1.
         12    1    3    3    0    0 -0.19116951040E+02  0.12492178027E+02  0.81313205602E+01  0.24241095334E+02  0.00000000000E+00 0. -1.
</event>
<event>
 7    1  0.2932741E-013  0.7246158E+02  0.7816164E-02  0.1226708E+00
        -11   -1    0    0    0    0  0.00000000000E+00  0.00000000000E+00  0.45593999997E+02  0.45594000000E+02  0.51100000000E-03 0. -1.
         11   -1    0    0    0    0 -0.00000000000E+00 -0.00000000000E+00 -0.45593999997E+02  0.45594000000E+02  0.51100000000E-03 0.  1.
    9900012    2    1    2    0    0  0.18130871340E+02 -0.36387335831E+01  0.29512447432E+01  0.72461582212E+02  0.70000015525E+02 0.  0.
         12    1    1    2    0    0 -0.18130871340E+02  0.36387335831E+01 -0.29512447432E+01  0.18726417788E+02  0.00000000000E+00 0. -1.
         11    1    3    3    0    0  0.15600040088E+02  0.25480711058E+02  0.14676775977E+02  0.33287169301E+02  0.51100000000E-03 0. -1.
        -11    1    3    3    0    0  0.68919956540E+01 -0.26655836939E+01 -0.98283978232E+01  0.12296436254E+02  0.51100000000E-03 0.  1.
        -12    1    3    3    0    0 -0.43611644013E+01 -0.26453860947E+02 -0.18971334101E+01  0.26877976656E+02  0.00000000000E+00 0.  1.
</event>
<event>
 7    1  0.2932741E-013  0.7246156E+02  0.7816164E-02  0.1226708E+00
        -11   -1    0    0    0    0  0.00000000000E+00  0.00000000000E+00  0.45593999997E+02  0.45594000000E+02  0.51100000000E-03 0.  1.
         11   -1    0    0    0    0 -0.00000000000E+00 -0.00000000000E+00 -0.45593999997E+02  0.45594000000E+02  0.51100000000E-03 0. -1.
    9900012    2    1    2    0    0  0.15128206088E+02 -0.39817778206E+01  0.10293804543E+02  0.72461559174E+02  0.69999985513E+02 0.  0.
         12    1    1    2    0    0 -0.15128206088E+02  0.39817778206E+01 -0.10293804543E+02  0.18726440826E+02  0.00000000000E+00 0. -1.
         11    1    3    3    0    0 -0.68514799709E+01  0.11066694173E+01 -0.11471537930E+01  0.70344478871E+01  0.51100000000E-03 0. -1.
        -11    1    3    3    0    0 -0.14598534752E+02  0.15223235507E+02  0.10538483565E+02  0.23578035379E+02  0.51100000000E-03 0.  1.
        -12    1    3    3    0    0  0.36578220811E+02 -0.20311682745E+02  0.90247477027E+00  0.41849075908E+02  0.00000000000E+00 0.  1.
</event>
<event>
 7    1  0.2932741E-013  0.7246156E+02  0.7816164E-02  0.1226708E+00
        -11   -1    0    0    0    0  0.00000000000E+00  0.00000000000E+00  0.45593999997E+02  0.45594000000E+02  0.51100000000E-03 0. -1.
         11   -1    0    0    0    0 -0.00000000000E+00 -0.00000000000E+00 -0.45593999997E+02  0.45594000000E+02  0.51100000000E-03 0.  1.
    9900012    2    1    2    0    0 -0.66446575043E+01 -0.12699365811E+02 -0.12052144840E+02  0.72461559853E+02  0.69999986398E+02 0.  0.
         12    1    1    2    0    0  0.66446575043E+01  0.12699365811E+02  0.12052144840E+02  0.18726440147E+02  0.00000000000E+00 0. -1.
         11    1    3    3    0    0  0.83709600597E+00 -0.12706603324E+02  0.14654276003E+02  0.19414074873E+02  0.51100000000E-03 0. -1.
        -11    1    3    3    0    0 -0.26451189146E+02  0.17944252800E+01 -0.12681758990E+02  0.29388984001E+02  0.51100000000E-03 0.  1.
        -12    1    3    3    0    0  0.18969435635E+02 -0.17871877667E+01 -0.14024661853E+02  0.23658500978E+02  0.00000000000E+00 0.  1.
</event>
<event>
 7    1  0.2932741E-013  0.7246158E+02  0.7816164E-02  0.1226708E+00
        -11   -1    0    0    0    0  0.00000000000E+00  0.00000000000E+00  0.45593999997E+02  0.45594000000E+02  0.51100000000E-03 0.  1.
         11   -1    0    0    0    0 -0.00000000000E+00 -0.00000000000E+00 -0.45593999997E+02  0.45594000000E+02  0.51100000000E-03 0. -1.
    9900012    2    1    2    0    0 -0.11630720823E+02 -0.18949740973E+00  0.14675461485E+02  0.72461581604E+02  0.70000014734E+02 0.  0.
         12    1    1    2    0    0  0.11630720823E+02  0.18949740973E+00 -0.14675461485E+02  0.18726418396E+02  0.00000000000E+00 0. -1.
         11    1    3    3    0    0  0.13194834350E+02 -0.76362311974E+01 -0.81685200845E+01  0.17295675791E+02  0.51100000000E-03 0. -1.
        -11    1    3    3    0    0 -0.28996179189E+02 -0.99969501397E+01  0.20922951087E+02  0.37127985430E+02  0.51100000000E-03 0.  1.
         12    1    3    3    0    0  0.41706240158E+01  0.17443683927E+02  0.19210304823E+01  0.18037920383E+02  0.00000000000E+00 0. -1.
</event>
<event>
 7    1  0.2932741E-013  0.7246154E+02  0.7816164E-02  0.1226708E+00
        -11   -1    0    0    0    0  0.00000000000E+00  0.00000000000E+00  0.45593999997E+02  0.45594000000E+02  0.51100000000E-03 0. -1.
         11   -1    0    0    0    0 -0.00000000000E+00 -0.00000000000E+00 -0.45593999997E+02  0.45594000000E+02  0.51100000000E-03 0.  1.
    9900012    2    1    2    0    0  0.13424612715E+02 -0.81866006387E+01 -0.10170520441E+02  0.72461544312E+02  0.69999966154E+02 0.  0.
         12    1    1    2    0    0 -0.13424612715E+02  0.81866006387E+01  0.10170520441E+02  0.18726455688E+02  0.00000000000E+00 0. -1.
         11    1    3    3    0    0 -0.48757038230E+01 -0.10485156149E+02  0.11950351374E+02  0.16628947214E+02  0.51100000000E-03 0. -1.
        -11    1    3    3    0    0 -0.10112769390E+02  0.15206310589E+02 -0.12818935022E+01  0.18306917754E+02  0.51100000000E-03 0.  1.
         12    1    3    3    0    0  0.28413085928E+02 -0.12907755079E+02 -0.20838978313E+02  0.37525679344E+02  0.00000000000E+00 0. -1.
</event>
<event>
 7    1  0.2932741E-013  0.7246158E+02  0.7816164E-02  0.1226708E+00
        -11   -1    0    0    0    0  0.00000000000E+00  0.00000000000E+00  0.45593999997E+02  0.45594000000E+02  0.51100000000E-03 0.  1.
         11   -1    0    0    0    0 -0.00000000000E+00 -0.00000000000E+00 -0.45593999997E+02  0.45594000000E+02  0.51100000000E-03 0. -1.
    9900012    2    1    2    0    0  0.39811835539E+01  0.46851148321E-02  0.18298334989E+02  0.72461577282E+02  0.70000009103E+02 0.  0.
         12    1    1    2    0    0 -0.39811835539E+01 -0.46851148321E-02 -0.18298334989E+02  0.18726422718E+02  0.00000000000E+00 0. -1.
         11    1    3    3    0    0  0.99793061942E+00  0.96341563827E+01  0.64427226010E-01  0.96859168826E+01  0.51100000000E-03 0. -1.
        -11    1    3    3    0    0  0.30718857715E+02 -0.92619432191E+01  0.69413982126E+01  0.32827044048E+02  0.51100000000E-03 0.  1.
         12    1    3    3    0    0 -0.27735604781E+02 -0.36752804874E+00  0.11292509550E+02  0.29948616351E+02  0.00000000000E+00 0. -1.
</event>
<event>
 7    1  0.2932741E-013  0.7246142E+02  0.7816164E-02  0.1226708E+00
        -11   -1    0    0    0    0  0.00000000000E+00  0.00000000000E+00  0.45593999997E+02  0.45594000000E+02  0.51100000000E-03 0.  1.
         11   -1    0    0    0    0 -0.00000000000E+00 -0.00000000000E+00 -0.45593999997E+02  0.45594000000E+02  0.51100000000E-03 0. -1.
    9900012    2    1    2    0    0  0.10707687006E+02  0.23317236848E+01  0.15185298272E+02  0.72461420494E+02  0.69999804857E+02 0.  0.
         12    1    1    2    0    0 -0.10707687006E+02 -0.23317236848E+01 -0.15185298272E+02  0.18726579506E+02  0.00000000000E+00 0. -1.
         11    1    3    3    0    0  0.98461226654E+01  0.38031537316E+01 -0.19652453787E+02  0.22307600721E+02  0.51100000000E-03 0. -1.
        -11    1    3    3    0    0  0.15129854469E+02 -0.10039248398E+02  0.11512489550E+02  0.21499684197E+02  0.51100000000E-03 0.  1.
         12    1    3    3    0    0 -0.14268290129E+02  0.85678183513E+01  0.23325262509E+02  0.28654135576E+02  0.00000000000E+00 0. -1.
</event>
<event>
 7    1  0.2932741E-013  0.7246160E+02  0.7816164E-02  0.1226708E+00
        -11   -1    0    0    0    0  0.00000000000E+00  0.00000000000E+00  0.45593999997E+02  0.45594000000E+02  0.51100000000E-03 0. -1.
         11   -1    0    0    0    0 -0.00000000000E+00 -0.00000000000E+00 -0.45593999997E+02  0.45594000000E+02  0.51100000000E-03 0.  1.
    9900012    2    1    2    0    0  0.16917553596E+02 -0.79835880530E+01 -0.85837690146E+00  0.72461598617E+02  0.70000036895E+02 0.  0.
         12    1    1    2    0    0 -0.16917553596E+02  0.79835880530E+01  0.85837690146E+00  0.18726401383E+02  0.00000000000E+00 0. -1.
         11    1    3    3    0    0  0.21518579041E+02  0.92761237734E+01  0.46428969144E+01  0.23888327866E+02  0.51100000000E-03 0.  1.
        -11    1    3    3    0    0  0.87051044169E+01  0.73352642157E+01 -0.15186981934E+02  0.18979709285E+02  0.51100000000E-03 0. -1.
         12    1    3    3    0    0 -0.13306129862E+02 -0.24594976042E+02  0.96857081186E+01  0.29593561465E+02  0.00000000000E+00 0. -1.
</event>
<event>
 7    1  0.2932741E-013  0.7246155E+02  0.7816164E-02  0.1226708E+00
        -11   -1    0    0    0    0  0.00000000000E+00  0.00000000000E+00  0.45593999997E+02  0.45594000000E+02  0.51100000000E-03 0.  1.
         11   -1    0    0    0    0 -0.00000000000E+00 -0.00000000000E+00 -0.45593999997E+02  0.45594000000E+02  0.51100000000E-03 0. -1.
    9900012    2    1    2    0    0  0.75209884373E+01  0.61873113941E+00  0.17138601738E+02  0.72461554400E+02  0.69999979294E+02 0.  0.
         12    1    1    2    0    0 -0.75209884373E+01 -0.61873113941E+00 -0.17138601738E+02  0.18726445600E+02  0.00000000000E+00 0. -1.
         11    1    3    3    0    0  0.18518540194E+02 -0.71062387501E+01  0.97115453125E+01  0.22085041831E+02  0.51100000000E-03 0. -1.
        -11    1    3    3    0    0  0.38872870366E+01  0.23295273731E+02  0.14489399286E+02  0.27707823275E+02  0.51100000000E-03 0.  1.
         12    1    3    3    0    0 -0.14884838793E+02 -0.15570303841E+02 -0.70623428606E+01  0.22668689293E+02  0.00000000000E+00 0. -1.
</event>
<event>
 7    1  0.2932741E-013  0.7246153E+02  0.7816164E-02  0.1226708E+00
        -11   -1    0    0    0    0  0.00000000000E+00  0.00000000000E+00  0.45593999997E+02  0.45594000000E+02  0.51100000000E-03 0.  1.
         11   -1    0    0    0    0 -0.00000000000E+00 -0.00000000000E+00 -0.45593999997E+02  0.45594000000E+02  0.51100000000E-03 0. -1.
    9900012    2    1    2    0    0 -0.15141551138E+02 -0.88258718817E+01  0.65968116870E+01  0.72461534510E+02  0.69999953384E+02 0.  0.
         12    1    1    2    0    0  0.15141551138E+02  0.88258718817E+01 -0.65968116870E+01  0.18726465490E+02  0.00000000000E+00 0. -1.
         11    1    3    3    0    0 -0.61426735558E+01 -0.17001555290E+02 -0.10983933620E+02  0.21152591300E+02  0.51100000000E-03 0. -1.
        -11    1    3    3    0    0  0.82577115503E+01 -0.14137585714E+02  0.16253209029E+02  0.23070065754E+02  0.51100000000E-03 0.  1.
        -12    1    3    3    0    0 -0.17256589132E+02  0.22313269122E+02  0.13275362775E+01  0.28238877456E+02  0.00000000000E+00 0.  1.
</event>
<event>
 7    1  0.2932741E-013  0.7246156E+02  0.7816164E-02  0.1226708E+00
        -11   -1    0    0    0    0  0.00000000000E+00  0.00000000000E+00  0.45593999997E+02  0.45594000000E+02  0.51100000000E-03 0.  1.
         11   -1    0    0    0    0 -0.00000000000E+00 -0.00000000000E+00 -0.45593999997E+02  0.45594000000E+02  0.51100000000E-03 0. -1.
    9900012    2    1    2    0    0  0.11347837217E+02  0.11506300185E+02  0.94610301822E+01  0.72461562924E+02  0.69999990399E+02 0.  0.
         12    1    1    2    0    0 -0.11347837217E+02 -0.11506300185E+02 -0.94610301822E+01  0.18726437076E+02  0.00000000000E+00 0. -1.
         11    1    3    3    0    0 -0.18473139705E+02  0.18387446620E+02  0.17586412371E-01  0.26064446921E+02  0.51100000000E-03 0. -1.
        -11    1    3    3    0    0 -0.46752432897E+01  0.43596968230E+00  0.10088284042E+02  0.11127508461E+02  0.51100000000E-03 0.  1.
        -12    1    3    3    0    0  0.34496220212E+02 -0.73171161170E+01 -0.64484027231E+00  0.35269607542E+02  0.00000000000E+00 0.  1.
</event>
<event>
 7    1  0.2932741E-013  0.7246166E+02  0.7816164E-02  0.1226708E+00
        -11   -1    0    0    0    0  0.00000000000E+00  0.00000000000E+00  0.45593999997E+02  0.45594000000E+02  0.51100000000E-03 0. -1.
         11   -1    0    0    0    0 -0.00000000000E+00 -0.00000000000E+00 -0.45593999997E+02  0.45594000000E+02  0.51100000000E-03 0.  1.
    9900012    2    1    2    0    0 -0.14363807581E+02 -0.69861566783E+01 -0.97749982447E+01  0.72461656416E+02  0.70000112189E+02 0.  0.
         12    1    1    2    0    0  0.14363807581E+02  0.69861566783E+01  0.97749982447E+01  0.18726343584E+02  0.00000000000E+00 0. -1.
         11    1    3    3    0    0 -0.12526116521E+02 -0.48545794471E+01  0.58791281544E+01  0.14664060994E+02  0.51100000000E-03 0. -1.
        -11    1    3    3    0    0 -0.22288911478E+02 -0.18763301762E+02 -0.61568165187E+01  0.29778573804E+02  0.51100000000E-03 0.  1.
         12    1    3    3    0    0  0.20451220418E+02  0.16631724531E+02 -0.94973098803E+01  0.28019021618E+02  0.00000000000E+00 0. -1.
</event>
<event>
 7    1  0.2932741E-013  0.7246138E+02  0.7816164E-02  0.1226709E+00
        -11   -1    0    0    0    0  0.00000000000E+00  0.00000000000E+00  0.45593999997E+02  0.45594000000E+02  0.51100000000E-03 0.  1.
         11   -1    0    0    0    0 -0.00000000000E+00 -0.00000000000E+00 -0.45593999997E+02  0.45594000000E+02  0.51100000000E-03 0. -1.
    9900012    2    1    2    0    0  0.18842865069E+01 -0.92329642930E+01  0.16182956969E+02  0.72461380937E+02  0.69999753326E+02 0.  0.
         12    1    1    2    0    0 -0.18842865069E+01  0.92329642930E+01 -0.16182956969E+02  0.18726619063E+02  0.00000000000E+00 0. -1.
         11    1    3    3    0    0  0.15462159074E+02  0.60122175384E+01  0.13359697045E+02  0.21300390334E+02  0.51100000000E-03 0. -1.
        -11    1    3    3    0    0  0.73212488558E+00  0.14473304107E+02  0.97379768771E+01  0.17459688787E+02  0.51100000000E-03 0.  1.
         12    1    3    3    0    0 -0.14309997453E+02 -0.29718485938E+02 -0.69147169533E+01  0.33701301816E+02  0.00000000000E+00 0. -1.
</event>
<event>
 7    1  0.2932741E-013  0.7246148E+02  0.7816164E-02  0.1226708E+00
        -11   -1    0    0    0    0  0.00000000000E+00  0.00000000000E+00  0.45593999997E+02  0.45594000000E+02  0.51100000000E-03 0.  1.
         11   -1    0    0    0    0 -0.00000000000E+00 -0.00000000000E+00 -0.45593999997E+02  0.45594000000E+02  0.51100000000E-03 0. -1.
    9900012    2    1    2    0    0 -0.55231316287E+01  0.15391000422E+02 -0.91265828117E+01  0.72461484286E+02  0.69999887958E+02 0.  0.
         12    1    1    2    0    0  0.55231316287E+01 -0.15391000422E+02  0.91265828117E+01  0.18726515714E+02  0.00000000000E+00 0. -1.
         11    1    3    3    0    0 -0.12534399878E+01 -0.86472922036E+01 -0.89945227562E+01  0.12539864996E+02  0.51100000000E-03 0. -1.
        -11    1    3    3    0    0 -0.24997938049E+02  0.27231660527E+02  0.72835998554E+01  0.37676399362E+02  0.51100000000E-03 0.  1.
         12    1    3    3    0    0  0.20728246408E+02 -0.31933679021E+01 -0.74156599109E+01  0.22245219927E+02  0.00000000000E+00 0. -1.
</event>
<event>
 7    1  0.2932741E-013  0.7246156E+02  0.7816164E-02  0.1226708E+00
        -11   -1    0    0    0    0  0.00000000000E+00  0.00000000000E+00  0.45593999997E+02  0.45594000000E+02  0.51100000000E-03 0.  1.
         11   -1    0    0    0    0 -0.00000000000E+00 -0.00000000000E+00 -0.45593999997E+02  0.45594000000E+02  0.51100000000E-03 0. -1.
    9900012    2    1    2    0    0  0.11255009738E+02  0.11778118253E+02  0.92347200364E+01  0.72461564997E+02  0.69999993099E+02 0.  0.
         12    1    1    2    0    0 -0.11255009738E+02 -0.11778118253E+02 -0.92347200364E+01  0.18726435003E+02  0.00000000000E+00 0. -1.
         11    1    3    3    0    0 -0.46259545869E+01  0.21477200733E+02  0.57808427085E+01  0.22717564787E+02  0.51100000000E-03 0. -1.
        -11    1    3    3    0    0 -0.14189484874E+02  0.34647631506E+01 -0.56791042883E+01  0.15671575877E+02  0.51100000000E-03 0.  1.
        -12    1    3    3    0    0  0.30070449199E+02 -0.13163845631E+02  0.91329816161E+01  0.34072424334E+02  0.00000000000E+00 0.  1.
</event>
<event>
 7    1  0.2932741E-013  0.7246150E+02  0.7816164E-02  0.1226708E+00
        -11   -1    0    0    0    0  0.00000000000E+00  0.00000000000E+00  0.45593999997E+02  0.45594000000E+02  0.51100000000E-03 0.  1.
         11   -1    0    0    0    0 -0.00000000000E+00 -0.00000000000E+00 -0.45593999997E+02  0.45594000000E+02  0.51100000000E-03 0. -1.
    9900012    2    1    2    0    0  0.21478214741E+01  0.87392548550E+01  0.16422361205E+02  0.72461503796E+02  0.69999913374E+02 0.  0.
         12    1    1    2    0    0 -0.21478214741E+01 -0.87392548550E+01 -0.16422361205E+02  0.18726496204E+02  0.00000000000E+00 0. -1.
         11    1    3    3    0    0  0.76189378189E+01  0.32044232847E+02 -0.67970862393E+01  0.33631554437E+02  0.51100000000E-03 0. -1.
        -11    1    3    3    0    0  0.23825696990E+01 -0.25923258093E+01 -0.29147093127E+01  0.45708119750E+01  0.51100000000E-03 0.  1.
        -12    1    3    3    0    0 -0.78536860437E+01 -0.20712652183E+02  0.26134156757E+02  0.34259137384E+02  0.00000000000E+00 0.  1.
</event>
<event>
 7    1  0.2932741E-013  0.7246156E+02  0.7816164E-02  0.1226708E+00
        -11   -1    0    0    0    0  0.00000000000E+00  0.00000000000E+00  0.45593999997E+02  0.45594000000E+02  0.51100000000E-03 0. -1.
         11   -1    0    0    0    0 -0.00000000000E+00 -0.00000000000E+00 -0.45593999997E+02  0.45594000000E+02  0.51100000000E-03 0.  1.
    9900012    2    1    2    0    0  0.32178255375E+01 -0.11671434680E+02 -0.14286449137E+02  0.72461563670E+02  0.69999991371E+02 0.  0.
         12    1    1    2    0    0 -0.32178255375E+01  0.11671434680E+02  0.14286449137E+02  0.18726436330E+02  0.00000000000E+00 0. -1.
         11    1    3    3    0    0  0.74356361742E+01  0.12386329024E+02  0.49437068655E+00  0.14455249380E+02  0.51100000000E-03 0. -1.
        -11    1    3    3    0    0 -0.12644899751E+02  0.11192929056E+02  0.37519875254E+01  0.17298917920E+02  0.51100000000E-03 0.  1.
        -12    1    3    3    0    0  0.84270891142E+01 -0.35250692760E+02 -0.18532807349E+02  0.40707396370E+02  0.00000000000E+00 0.  1.
</event>
<event>
 7    1  0.2932741E-013  0.7246160E+02  0.7816164E-02  0.1226708E+00
        -11   -1    0    0    0    0  0.00000000000E+00  0.00000000000E+00  0.45593999997E+02  0.45594000000E+02  0.51100000000E-03 0.  1.
         11   -1    0    0    0    0 -0.00000000000E+00 -0.00000000000E+00 -0.45593999997E+02  0.45594000000E+02  0.51100000000E-03 0. -1.
    9900012    2    1    2    0    0  0.41824173456E+01  0.14309546237E+02 -0.11332363376E+02  0.72461596500E+02  0.70000034138E+02 0.  0.
         12    1    1    2    0    0 -0.41824173456E+01 -0.14309546237E+02  0.11332363376E+02  0.18726403500E+02  0.00000000000E+00 0. -1.
         11    1    3    3    0    0  0.77521593426E+01 -0.26992084263E+01 -0.15346424867E+01  0.83508579455E+01  0.51100000000E-03 0. -1.
        -11    1    3    3    0    0  0.11849482337E+01 -0.41882524651E+01  0.23748941369E+02  0.24144518580E+02  0.51100000000E-03 0.  1.
         12    1    3    3    0    0 -0.47546902307E+01  0.21197007128E+02 -0.33546662259E+02  0.39966219975E+02  0.00000000000E+00 0. -1.
</event>
<event>
 7    1  0.2932741E-013  0.7246189E+02  0.7816164E-02  0.1226707E+00
        -11   -1    0    0    0    0  0.00000000000E+00  0.00000000000E+00  0.45593999997E+02  0.45594000000E+02  0.51100000000E-03 0. -1.
         11   -1    0    0    0    0 -0.00000000000E+00 -0.00000000000E+00 -0.45593999997E+02  0.45594000000E+02  0.51100000000E-03 0.  1.
    9900012    2    1    2    0    0 -0.14636833746E+01  0.71470885818E+01 -0.17246564870E+02  0.72461888710E+02  0.70000414794E+02 0.  0.
         12    1    1    2    0    0  0.14636833746E+01 -0.71470885818E+01  0.17246564870E+02  0.18726111290E+02  0.00000000000E+00 0. -1.
         11    1    3    3    0    0 -0.21494631440E+02  0.17277541582E+02 -0.25971436788E+02  0.37882029420E+02  0.51100000000E-03 0.  1.
        -11    1    3    3    0    0  0.12527198303E+02 -0.12114987724E+02 -0.55852993327E+01  0.18300251194E+02  0.51100000000E-03 0. -1.
        -12    1    3    3    0    0  0.75037497623E+01  0.19845347232E+01  0.14310171250E+02  0.16279608096E+02  0.00000000000E+00 0.  1.
</event>
<event>
 7    1  0.2932741E-013  0.7246156E+02  0.7816164E-02  0.1226708E+00
        -11   -1    0    0    0    0  0.00000000000E+00  0.00000000000E+00  0.45593999997E+02  0.45594000000E+02  0.51100000000E-03 0.  1.
         11   -1    0    0    0    0 -0.00000000000E+00 -0.00000000000E+00 -0.45593999997E+02  0.45594000000E+02  0.51100000000E-03 0. -1.
    9900012    2    1    2    0    0 -0.51888537940E+01 -0.13611804547E+02  0.11767506495E+02  0.72461557844E+02  0.69999983781E+02 0.  0.
         12    1    1    2    0    0  0.51888537940E+01  0.13611804547E+02 -0.11767506495E+02  0.18726442156E+02  0.00000000000E+00 0. -1.
         11    1    3    3    0    0  0.19576823352E+02 -0.14057745484E+02  0.25143573655E+02  0.34829176233E+02  0.51100000000E-03 0. -1.
        -11    1    3    3    0    0 -0.17613072877E+01  0.99975041575E+01 -0.25114573699E+01  0.10457519358E+02  0.51100000000E-03 0.  1.
        -12    1    3    3    0    0 -0.23004369859E+02 -0.95515632202E+01 -0.10864609791E+02  0.27174862253E+02  0.00000000000E+00 0.  1.
</event>
<event>
 7    1  0.2932741E-013  0.7246162E+02  0.7816164E-02  0.1226708E+00
        -11   -1    0    0    0    0  0.00000000000E+00  0.00000000000E+00  0.45593999997E+02  0.45594000000E+02  0.51100000000E-03 0. -1.
         11   -1    0    0    0    0 -0.00000000000E+00 -0.00000000000E+00 -0.45593999997E+02  0.45594000000E+02  0.51100000000E-03 0.  1.
    9900012    2    1    2    0    0  0.46953128930E+01  0.17989866906E+02 -0.22352112666E+01  0.72461616370E+02  0.70000060022E+02 0.  0.
         12    1    1    2    0    0 -0.46953128930E+01 -0.17989866906E+02  0.22352112666E+01  0.18726383630E+02  0.00000000000E+00 0. -1.
         11    1    3    3    0    0  0.13664917213E+02  0.13445932806E+02 -0.49774698980E+01  0.19806521106E+02  0.51100000000E-03 0. -1.
        -11    1    3    3    0    0 -0.14155732923E+02  0.14714338589E+02 -0.19132004833E+02  0.27980888905E+02  0.51100000000E-03 0.  1.
         12    1    3    3    0    0  0.51861286027E+01 -0.10170404489E+02  0.21874263465E+02  0.24674206360E+02  0.00000000000E+00 0. -1.
</event>
<event>
 7    1  0.2932741E-013  0.7246162E+02  0.7816164E-02  0.1226708E+00
        -11   -1    0    0    0    0  0.00000000000E+00  0.00000000000E+00  0.45593999997E+02  0.45594000000E+02  0.51100000000E-03 0. -1.
         11   -1    0    0    0    0 -0.00000000000E+00 -0.00000000000E+00 -0.45593999997E+02  0.45594000000E+02  0.51100000000E-03 0.  1.
    9900012    2    1    2    0    0  0.58732925795E+00  0.77628787851E+00 -0.18701065093E+02  0.72461617163E+02  0.70000061056E+02 0.  0.
         12    1    1    2    0    0 -0.58732925795E+00 -0.77628787851E+00  0.18701065093E+02  0.18726382837E+02  0.00000000000E+00 0. -1.
         11    1    3    3    0    0  0.12681645532E+02  0.32692847030E+01 -0.18751439629E+00  0.13097614965E+02  0.51100000000E-03 0. -1.
        -11    1    3    3    0    0 -0.17898088169E+01 -0.23705386132E+02 -0.25406746326E+02  0.34794417748E+02  0.51100000000E-03 0.  1.
         12    1    3    3    0    0 -0.10304507457E+02  0.21212389307E+02  0.68931956292E+01  0.24569584450E+02  0.00000000000E+00 0. -1.
</event>
<event>
 7    1  0.2932741E-013  0.7246154E+02  0.7816164E-02  0.1226708E+00
        -11   -1    0    0    0    0  0.00000000000E+00  0.00000000000E+00  0.45593999997E+02  0.45594000000E+02  0.51100000000E-03 0. -1.
         11   -1    0    0    0    0 -0.00000000000E+00 -0.00000000000E+00 -0.45593999997E+02  0.45594000000E+02  0.51100000000E-03 0.  1.
    9900012    2    1    2    0    0  0.14590708354E+02  0.98150404288E+01 -0.64386859469E+01  0.72461535688E+02  0.69999954919E+02 0.  0.
         12    1    1    2    0    0 -0.14590708354E+02 -0.98150404288E+01  0.64386859469E+01  0.18726464312E+02  0.00000000000E+00 0. -1.
         11    1    3    3    0    0  0.18590033388E+02 -0.99594429356E+01 -0.13706139865E+02  0.25152298408E+02  0.51100000000E-03 0. -1.
        -11    1    3    3    0    0 -0.15450513474E+02  0.50482851761E+01 -0.12217644224E+02  0.20334069451E+02  0.51100000000E-03 0.  1.
         12    1    3    3    0    0  0.11451188440E+02  0.14726198188E+02  0.19485098142E+02  0.26975167828E+02  0.00000000000E+00 0. -1.
</event>
<event>
 7    1  0.2932741E-013  0.7246160E+02  0.7816164E-02  0.1226708E+00
        -11   -1    0    0    0    0  0.00000000000E+00  0.00000000000E+00  0.45593999997E+02  0.45594000000E+02  0.51100000000E-03 0.  1.
         11   -1    0    0    0    0 -0.00000000000E+00 -0.00000000000E+00 -0.45593999997E+02  0.45594000000E+02  0.51100000000E-03 0. -1.
    9900012    2    1    2    0    0  0.57462563362E+01 -0.17760411949E+02  0.14920584608E+01  0.72461603311E+02  0.70000043011E+02 0.  0.
         12    1    1    2    0    0 -0.57462563362E+01  0.17760411949E+02 -0.14920584608E+01  0.18726396689E+02  0.00000000000E+00 0. -1.
         11    1    3    3    0    0 -0.36028351082E+01 -0.19460345598E+02  0.92614918110E+01  0.21850874180E+02  0.51100000000E-03 0. -1.
        -11    1    3    3    0    0  0.11610198188E+02 -0.21924738951E+02  0.21211782685E+01  0.24899603964E+02  0.51100000000E-03 0.  1.
        -12    1    3    3    0    0 -0.22611067437E+01  0.23624672600E+02 -0.98906116188E+01  0.25711125167E+02  0.00000000000E+00 0.  1.
</event>
<event>
 7    1  0.2932741E-013  0.7246156E+02  0.7816164E-02  0.1226708E+00
        -11   -1    0    0    0    0  0.00000000000E+00  0.00000000000E+00  0.45593999997E+02  0.45594000000E+02  0.51100000000E-03 0. -1.
         11   -1    0    0    0    0 -0.00000000000E+00 -0.00000000000E+00 -0.45593999997E+02  0.45594000000E+02  0.51100000000E-03 0.  1.
    9900012    2    1    2    0    0 -0.12682014244E+02 -0.31369060907E+01 -0.13416624290E+02  0.72461562206E+02  0.69999989463E+02 0.  0.
         12    1    1    2    0    0  0.12682014244E+02  0.31369060907E+01  0.13416624290E+02  0.18726437794E+02  0.00000000000E+00 0. -1.
         11    1    3    3    0    0  0.72728077258E+01  0.13556262381E+02 -0.13900175299E+02  0.20733568326E+02  0.51100000000E-03 0. -1.
        -11    1    3    3    0    0 -0.12268599908E+02 -0.12038240140E+02 -0.21764831788E+02  0.27733475664E+02  0.51100000000E-03 0.  1.
        -12    1    3    3    0    0 -0.76862220619E+01 -0.46549283308E+01  0.22248382796E+02  0.23994518215E+02  0.00000000000E+00 0.  1.
</event>
<event>
 7    1  0.2932741E-013  0.7246160E+02  0.7816164E-02  0.1226708E+00
        -11   -1    0    0    0    0  0.00000000000E+00  0.00000000000E+00  0.45593999997E+02  0.45594000000E+02  0.51100000000E-03 0.  1.
         11   -1    0    0    0    0 -0.00000000000E+00 -0.00000000000E+00 -0.45593999997E+02  0.45594000000E+02  0.51100000000E-03 0. -1.
    9900012    2    1    2    0    0  0.51287970535E+01  0.77713899031E+01  0.16247430980E+02  0.72461599553E+02  0.70000038115E+02 0.  0.
         12    1    1    2    0    0 -0.51287970535E+01 -0.77713899031E+01 -0.16247430980E+02  0.18726400447E+02  0.00000000000E+00 0. -1.
         11    1    3    3    0    0 -0.30297057097E+02  0.43000373984E+01 -0.18176233270E+01  0.30654620291E+02  0.51100000000E-03 0. -1.
        -11    1    3    3    0    0  0.72277227050E+01 -0.38614809011E+01  0.16294301600E+01  0.83550016850E+01  0.51100000000E-03 0.  1.
        -12    1    3    3    0    0  0.28198131445E+02  0.73328334058E+01  0.16435624147E+02  0.33451977578E+02  0.00000000000E+00 0.  1.
</event>
<event>
 7    1  0.2932741E-013  0.7246173E+02  0.7816164E-02  0.1226708E+00
        -11   -1    0    0    0    0  0.00000000000E+00  0.00000000000E+00  0.45593999997E+02  0.45594000000E+02  0.51100000000E-03 0.  1.
         11   -1    0    0    0    0 -0.00000000000E+00 -0.00000000000E+00 -0.45593999997E+02  0.45594000000E+02  0.51100000000E-03 0. -1.
    9900012    2    1    2    0    0 -0.10565229779E+02  0.11011421262E+02  0.10853466504E+02  0.72461729318E+02  0.70000207158E+02 0.  0.
         12    1    1    2    0    0  0.10565229779E+02 -0.11011421262E+02 -0.10853466504E+02  0.18726270682E+02  0.00000000000E+00 0. -1.
         11    1    3    3    0    0  0.68210922942E+01  0.66344420169E+01 -0.15015468397E+02  0.17776597323E+02  0.51100000000E-03 0. -1.
        -11    1    3    3    0    0 -0.20971913816E+01 -0.15137272606E+02  0.25692856017E+02  0.29894114541E+02  0.51100000000E-03 0.  1.
         12    1    3    3    0    0 -0.15289130692E+02  0.19514251851E+02  0.17607888377E+00  0.24791017454E+02  0.00000000000E+00 0. -1.
</event>
<event>
 7    1  0.2932741E-013  0.7246155E+02  0.7816164E-02  0.1226708E+00
        -11   -1    0    0    0    0  0.00000000000E+00  0.00000000000E+00  0.45593999997E+02  0.45594000000E+02  0.51100000000E-03 0. -1.
         11   -1    0    0    0    0 -0.00000000000E+00 -0.00000000000E+00 -0.45593999997E+02  0.45594000000E+02  0.51100000000E-03 0.  1.
    9900012    2    1    2    0    0 -0.14725698013E+02 -0.71894988773E+01 -0.90633803144E+01  0.72461549755E+02  0.69999973243E+02 0.  0.
         12    1    1    2    0    0  0.14725698013E+02  0.71894988773E+01  0.90633803144E+01  0.18726450245E+02  0.00000000000E+00 0. -1.
         11    1    3    3    0    0  0.12303404770E+02 -0.21137887824E+01 -0.91310458902E+01  0.15466669689E+02  0.51100000000E-03 0. -1.
        -11    1    3    3    0    0 -0.51576887410E+01 -0.20746333473E+02 -0.15039334612E+02  0.26137974129E+02  0.51100000000E-03 0.  1.
         12    1    3    3    0    0 -0.21871414042E+02  0.15670623378E+02  0.15107000188E+02  0.30856905936E+02  0.00000000000E+00 0. -1.
</event>
<event>
 7    1  0.2932741E-013  0.7246160E+02  0.7816164E-02  0.1226708E+00
        -11   -1    0    0    0    0  0.00000000000E+00  0.00000000000E+00  0.45593999997E+02  0.45594000000E+02  0.51100000000E-03 0. -1.
         11   -1    0    0    0    0 -0.00000000000E+00 -0.00000000000E+00 -0.45593999997E+02  0.45594000000E+02  0.51100000000E-03 0.  1.
    9900012    2    1    2    0    0  0.15450828338E+02 -0.10098401074E+02 -0.31579028167E+01  0.72461597495E+02  0.70000035433E+02 0.  0.
         12    1    1    2    0    0 -0.15450828338E+02  0.10098401074E+02  0.31579028167E+01  0.18726402505E+02  0.00000000000E+00 0. -1.
         11    1    3    3    0    0  0.14717465700E+02 -0.13711216577E+02 -0.25361100438E+01  0.20273951540E+02  0.51100000000E-03 0. -1.
        -11    1    3    3    0    0  0.41438895627E+01  0.83987824411E+01 -0.25217052763E+02  0.26900020771E+02  0.51100000000E-03 0.  1.
         12    1    3    3    0    0 -0.34105269243E+01 -0.47859669387E+01  0.24595259990E+02  0.25287625183E+02  0.00000000000E+00 0. -1.
</event>
<event>
 7    1  0.2932741E-013  0.7246158E+02  0.7816164E-02  0.1226708E+00
        -11   -1    0    0    0    0  0.00000000000E+00  0.00000000000E+00  0.45593999997E+02  0.45594000000E+02  0.51100000000E-03 0.  1.
         11   -1    0    0    0    0 -0.00000000000E+00 -0.00000000000E+00 -0.45593999997E+02  0.45594000000E+02  0.51100000000E-03 0. -1.
    9900012    2    1    2    0    0 -0.68968234865E+00  0.13090877835E+02  0.13372805738E+02  0.72461583430E+02  0.70000017112E+02 0.  0.
         12    1    1    2    0    0  0.68968234865E+00 -0.13090877835E+02 -0.13372805738E+02  0.18726416570E+02  0.00000000000E+00 0. -1.
         11    1    3    3    0    0  0.17838552403E+02 -0.10100457326E+02 -0.13121118308E+02  0.24339205738E+02  0.51100000000E-03 0. -1.
        -11    1    3    3    0    0 -0.10727313021E+02  0.14643780545E+02 -0.11145340628E+01  0.18186746266E+02  0.51100000000E-03 0.  1.
         12    1    3    3    0    0 -0.78009217308E+01  0.85475546157E+01  0.27608458109E+02  0.29935631427E+02  0.00000000000E+00 0. -1.
</event>
<event>
 7    1  0.2932741E-013  0.7246154E+02  0.7816164E-02  0.1226708E+00
        -11   -1    0    0    0    0  0.00000000000E+00  0.00000000000E+00  0.45593999997E+02  0.45594000000E+02  0.51100000000E-03 0.  1.
         11   -1    0    0    0    0 -0.00000000000E+00 -0.00000000000E+00 -0.45593999997E+02  0.45594000000E+02  0.51100000000E-03 0. -1.
    9900012    2    1    2    0    0  0.80444653211E+01  0.77630285059E+01  0.15023389345E+02  0.72461541144E+02  0.69999962026E+02 0.  0.
         12    1    1    2    0    0 -0.80444653211E+01 -0.77630285059E+01 -0.15023389345E+02  0.18726458856E+02  0.00000000000E+00 0. -1.
         11    1    3    3    0    0  0.71157534529E+01  0.35627116634E+01 -0.94401680554E+01  0.12346806663E+02  0.51100000000E-03 0. -1.
        -11    1    3    3    0    0 -0.43686334601E+00 -0.25283558125E+02  0.94038685814E+01  0.26979286603E+02  0.51100000000E-03 0.  1.
         12    1    3    3    0    0  0.13655752142E+01  0.29483874967E+02  0.15059688819E+02  0.33135447878E+02  0.00000000000E+00 0. -1.
</event>
<event>
 7    1  0.2932741E-013  0.7246098E+02  0.7816164E-02  0.1226710E+00
        -11   -1    0    0    0    0  0.00000000000E+00  0.00000000000E+00  0.45593999997E+02  0.45594000000E+02  0.51100000000E-03 0.  1.
         11   -1    0    0    0    0 -0.00000000000E+00 -0.00000000000E+00 -0.45593999997E+02  0.45594000000E+02  0.51100000000E-03 0. -1.
    9900012    2    1    2    0    0  0.33159067819E+01 -0.15618896031E+02  0.97855126253E+01  0.72460976522E+02  0.69999226496E+02 0.  0.
         12    1    1    2    0    0 -0.33159067819E+01  0.15618896031E+02 -0.97855126253E+01  0.18727023478E+02  0.00000000000E+00 0. -1.
         11    1    3    3    0    0  0.16140429997E+02  0.18451832652E+01 -0.11876710623E+02  0.20123976676E+02  0.51100000000E-03 0.  1.
        -11    1    3    3    0    0 -0.16757538875E+02 -0.65474327112E+00 -0.75606855842E+01  0.18395862705E+02  0.51100000000E-03 0. -1.
        -12    1    3    3    0    0  0.39330156602E+01 -0.16809336025E+02  0.29222908833E+02  0.33941137141E+02  0.00000000000E+00 0.  1.
</event>
<event>
 7    1  0.2932741E-013  0.7246157E+02  0.7816164E-02  0.1226708E+00
        -11   -1    0    0    0    0  0.00000000000E+00  0.00000000000E+00  0.45593999997E+02  0.45594000000E+02  0.51100000000E-03 0. -1.
         11   -1    0    0    0    0 -0.00000000000E+00 -0.00000000000E+00 -0.45593999997E+02  0.45594000000E+02  0.51100000000E-03 0.  1.
    9900012    2    1    2    0    0 -0.17452149285E+02 -0.41523244646E+01 -0.53721491984E+01  0.72461566807E+02  0.69999995457E+02 0.  0.
         12    1    1    2    0    0  0.17452149285E+02  0.41523244646E+01  0.53721491984E+01  0.18726433193E+02  0.00000000000E+00 0. -1.
         11    1    3    3    0    0 -0.35273412514E+01  0.54395625318E+01  0.38655209925E+00  0.64946439184E+01  0.51100000000E-03 0. -1.
        -11    1    3    3    0    0 -0.38156065926E+02  0.25235567271E+01  0.14560824449E+00  0.38239703287E+02  0.51100000000E-03 0.  1.
         12    1    3    3    0    0  0.24231257892E+02 -0.12115443723E+02 -0.59043095422E+01  0.27727219602E+02  0.00000000000E+00 0. -1.
</event>
<event>
 7    1  0.2932741E-013  0.7246160E+02  0.7816164E-02  0.1226708E+00
        -11   -1    0    0    0    0  0.00000000000E+00  0.00000000000E+00  0.45593999997E+02  0.45594000000E+02  0.51100000000E-03 0.  1.
         11   -1    0    0    0    0 -0.00000000000E+00 -0.00000000000E+00 -0.45593999997E+02  0.45594000000E+02  0.51100000000E-03 0. -1.
    9900012    2    1    2    0    0  0.12546773200E+02  0.38041144523E+01  0.13371062544E+02  0.72461598369E+02  0.70000036572E+02 0.  0.
         12    1    1    2    0    0 -0.12546773200E+02 -0.38041144523E+01 -0.13371062544E+02  0.18726401631E+02  0.00000000000E+00 0. -1.
         11    1    3    3    0    0  0.24033554982E+02 -0.11365322931E+02 -0.37707868035E+01  0.26851464835E+02  0.51100000000E-03 0. -1.
        -11    1    3    3    0    0  0.57416194623E+01 -0.26059366007E+01 -0.80939441928E+01  0.10260069808E+02  0.51100000000E-03 0.  1.
        -12    1    3    3    0    0 -0.17228401245E+02  0.17775373984E+02  0.25235793541E+02  0.35350063725E+02  0.00000000000E+00 0.  1.
</event>
<event>
 7    1  0.2932741E-013  0.7246152E+02  0.7816164E-02  0.1226708E+00
        -11   -1    0    0    0    0  0.00000000000E+00  0.00000000000E+00  0.45593999997E+02  0.45594000000E+02  0.51100000000E-03 0.  1.
         11   -1    0    0    0    0 -0.00000000000E+00 -0.00000000000E+00 -0.45593999997E+02  0.45594000000E+02  0.51100000000E-03 0. -1.
    9900012    2    1    2    0    0  0.21791148889E+01  0.18280772040E+02  0.34272134757E+01  0.72461522481E+02  0.69999937714E+02 0.  0.
         12    1    1    2    0    0 -0.21791148889E+01 -0.18280772040E+02 -0.34272134757E+01  0.18726477519E+02  0.00000000000E+00 0. -1.
         11    1    3    3    0    0  0.13549660998E+02  0.14782645592E+02  0.76896754653E+01  0.21476755641E+02  0.51100000000E-03 0. -1.
        -11    1    3    3    0    0 -0.19818282761E+02  0.13823145204E+02  0.14336650814E+02  0.28095964688E+02  0.51100000000E-03 0.  1.
         12    1    3    3    0    0  0.84477366521E+01 -0.10325018756E+02 -0.18599112804E+02  0.22888802152E+02  0.00000000000E+00 0. -1.
</event>
<event>
 7    1  0.2932741E-013  0.7246156E+02  0.7816164E-02  0.1226708E+00
        -11   -1    0    0    0    0  0.00000000000E+00  0.00000000000E+00  0.45593999997E+02  0.45594000000E+02  0.51100000000E-03 0.  1.
         11   -1    0    0    0    0 -0.00000000000E+00 -0.00000000000E+00 -0.45593999997E+02  0.45594000000E+02  0.51100000000E-03 0. -1.
    9900012    2    1    2    0    0 -0.57529045407E+01 -0.11618322370E+02  0.13512886434E+02  0.72461563469E+02  0.69999991109E+02 0.  0.
         12    1    1    2    0    0  0.57529045407E+01  0.11618322370E+02 -0.13512886434E+02  0.18726436531E+02  0.00000000000E+00 0. -1.
         11    1    3    3    0    0  0.90091375663E+01  0.23848640048E+02  0.70580741398E+01  0.26452572704E+02  0.51100000000E-03 0. -1.
        -11    1    3    3    0    0  0.58977416074E+01 -0.20355796234E+01  0.48136173380E+00  0.62576872606E+01  0.51100000000E-03 0.  1.
        -12    1    3    3    0    0 -0.20659783714E+02 -0.33431382795E+02  0.59734505608E+01  0.39751303505E+02  0.00000000000E+00 0.  1.
</event>
<event>
 7    1  0.2932741E-013  0.7246162E+02  0.7816164E-02  0.1226708E+00
        -11   -1    0    0    0    0  0.00000000000E+00  0.00000000000E+00  0.45593999997E+02  0.45594000000E+02  0.51100000000E-03 0. -1.
         11   -1    0    0    0    0 -0.00000000000E+00 -0.00000000000E+00 -0.45593999997E+02  0.45594000000E+02  0.51100000000E-03 0.  1.
    9900012    2    1    2    0    0  0.75798357525E+01 -0.14252488062E+02 -0.94915831334E+01  0.72461615502E+02  0.70000058891E+02 0.  0.
         12    1    1    2    0    0 -0.75798357525E+01  0.14252488062E+02  0.94915831334E+01  0.18726384498E+02  0.00000000000E+00 0. -1.
         11    1    3    3    0    0 -0.69244682975E+01  0.33981585896E+01  0.53170355314E+01  0.93683835375E+01  0.51100000000E-03 0. -1.
        -11    1    3    3    0    0  0.70064821195E+01  0.20070140073E+02 -0.12283464977E+02  0.24551676651E+02  0.51100000000E-03 0.  1.
        -12    1    3    3    0    0  0.74978219305E+01 -0.37720786725E+02 -0.25251536875E+01  0.38541555314E+02  0.00000000000E+00 0.  1.
</event>
<event>
 7    1  0.2932741E-013  0.7246166E+02  0.7816164E-02  0.1226708E+00
        -11   -1    0    0    0    0  0.00000000000E+00  0.00000000000E+00  0.45593999997E+02  0.45594000000E+02  0.51100000000E-03 0. -1.
         11   -1    0    0    0    0 -0.00000000000E+00 -0.00000000000E+00 -0.45593999997E+02  0.45594000000E+02  0.51100000000E-03 0.  1.
    9900012    2    1    2    0    0  0.18523323337E+02 -0.23121029231E+01  0.14887388834E+01  0.72461663710E+02  0.70000121691E+02 0.  0.
         12    1    1    2    0    0 -0.18523323337E+02  0.23121029231E+01 -0.14887388834E+01  0.18726336290E+02  0.00000000000E+00 0. -1.
         11    1    3    3    0    0 -0.14114506906E+02 -0.81563139456E+01  0.67282577201E+01  0.17635595102E+02  0.51100000000E-03 0. -1.
        -11    1    3    3    0    0 -0.29138740141E+01  0.15691292902E+02 -0.79622714814E+01  0.17835501173E+02  0.51100000000E-03 0.  1.
         12    1    3    3    0    0  0.35551704258E+02 -0.98470818790E+01  0.27227526448E+01  0.36990567435E+02  0.00000000000E+00 0. -1.
</event>
<event>
 7    1  0.2932741E-013  0.7246150E+02  0.7816164E-02  0.1226708E+00
        -11   -1    0    0    0    0  0.00000000000E+00  0.00000000000E+00  0.45593999997E+02  0.45594000000E+02  0.51100000000E-03 0.  1.
         11   -1    0    0    0    0 -0.00000000000E+00 -0.00000000000E+00 -0.45593999997E+02  0.45594000000E+02  0.51100000000E-03 0. -1.
    9900012    2    1    2    0    0  0.18329515916E+02  0.32896006864E+01 -0.19721070297E+01  0.72461499191E+02  0.69999907375E+02 0.  0.
         12    1    1    2    0    0 -0.18329515916E+02 -0.32896006864E+01  0.19721070297E+01  0.18726500809E+02  0.00000000000E+00 0. -1.
         11    1    3    3    0    0  0.18977004432E+02  0.12925668794E+02  0.13874921749E+02  0.26827468475E+02  0.51100000000E-03 0. -1.
        -11    1    3    3    0    0  0.17687686939E+02 -0.15233344053E+02 -0.11286006201E+02  0.25928420247E+02  0.51100000000E-03 0.  1.
         12    1    3    3    0    0 -0.18335175455E+02  0.55972759456E+01 -0.45610225778E+01  0.19705610469E+02  0.00000000000E+00 0. -1.
</event>
<event>
 7    1  0.2932741E-013  0.7246161E+02  0.7816164E-02  0.1226708E+00
        -11   -1    0    0    0    0  0.00000000000E+00  0.00000000000E+00  0.45593999997E+02  0.45594000000E+02  0.51100000000E-03 0.  1.
         11   -1    0    0    0    0 -0.00000000000E+00 -0.00000000000E+00 -0.45593999997E+02  0.45594000000E+02  0.51100000000E-03 0. -1.
    9900012    2    1    2    0    0 -0.16277830449E+02 -0.15153501049E+01  0.91331040138E+01  0.72461611160E+02  0.70000053235E+02 0.  0.
         12    1    1    2    0    0  0.16277830449E+02  0.15153501049E+01 -0.91331040138E+01  0.18726388840E+02  0.00000000000E+00 0. -1.
         11    1    3    3    0    0  0.12227930593E+02 -0.16306174051E+02 -0.13296458896E+02  0.24335353258E+02  0.51100000000E-03 0. -1.
        -11    1    3    3    0    0 -0.75637413730E+01 -0.80014714439E+01  0.96443147719E+01  0.14637162857E+02  0.51100000000E-03 0.  1.
        -12    1    3    3    0    0 -0.20942019669E+02  0.22792295390E+02  0.12785248138E+02  0.33489095045E+02  0.00000000000E+00 0.  1.
</event>
<event>
 7    1  0.2932741E-013  0.7246157E+02  0.7816164E-02  0.1226708E+00
        -11   -1    0    0    0    0  0.00000000000E+00  0.00000000000E+00  0.45593999997E+02  0.45594000000E+02  0.51100000000E-03 0. -1.
         11   -1    0    0    0    0 -0.00000000000E+00 -0.00000000000E+00 -0.45593999997E+02  0.45594000000E+02  0.51100000000E-03 0.  1.
    9900012    2    1    2    0    0 -0.20026975035E+01 -0.17155002481E+02 -0.72370132581E+01  0.72461567657E+02  0.69999996564E+02 0.  0.
         12    1    1    2    0    0  0.20026975035E+01  0.17155002481E+02  0.72370132581E+01  0.18726432343E+02  0.00000000000E+00 0. -1.
         11    1    3    3    0    0  0.15013524872E+02 -0.47716917985E+01 -0.43697851411E+01  0.16348394237E+02  0.51100000000E-03 0. -1.
        -11    1    3    3    0    0 -0.89897534921E+01  0.91758885287E+01 -0.22474257028E+02  0.25886383049E+02  0.51100000000E-03 0.  1.
         12    1    3    3    0    0 -0.80264688831E+01 -0.21559199211E+02  0.19607028911E+02  0.30226790370E+02  0.00000000000E+00 0. -1.
</event>
<event>
 7    1  0.2932741E-013  0.7246150E+02  0.7816164E-02  0.1226708E+00
        -11   -1    0    0    0    0  0.00000000000E+00  0.00000000000E+00  0.45593999997E+02  0.45594000000E+02  0.51100000000E-03 0. -1.
         11   -1    0    0    0    0 -0.00000000000E+00 -0.00000000000E+00 -0.45593999997E+02  0.45594000000E+02  0.51100000000E-03 0.  1.
    9900012    2    1    2    0    0 -0.67175537375E+01  0.17399647285E+02  0.16758334128E+01  0.72461503491E+02  0.69999912977E+02 0.  0.
         12    1    1    2    0    0  0.67175537375E+01 -0.17399647285E+02 -0.16758334128E+01  0.18726496509E+02  0.00000000000E+00 0. -1.
         11    1    3    3    0    0  0.10335181915E+02 -0.11450087343E+02  0.18056310428E+01  0.15529996430E+02  0.51100000000E-03 0. -1.
        -11    1    3    3    0    0  0.77957118515E+01  0.20772779845E+02  0.14959243443E+02  0.26759306239E+02  0.51100000000E-03 0.  1.
         12    1    3    3    0    0 -0.24848447504E+02  0.80769547832E+01 -0.15089041073E+02  0.30172200822E+02  0.00000000000E+00 0. -1.
</event>
<event>
 7    1  0.2932741E-013  0.7246158E+02  0.7816164E-02  0.1226708E+00
        -11   -1    0    0    0    0  0.00000000000E+00  0.00000000000E+00  0.45593999997E+02  0.45594000000E+02  0.51100000000E-03 0.  1.
         11   -1    0    0    0    0 -0.00000000000E+00 -0.00000000000E+00 -0.45593999997E+02  0.45594000000E+02  0.51100000000E-03 0. -1.
    9900012    2    1    2    0    0  0.32135119604E+01  0.14157753195E+01  0.18394233228E+02  0.72461577627E+02  0.70000009552E+02 0.  0.
         12    1    1    2    0    0 -0.32135119604E+01 -0.14157753195E+01 -0.18394233228E+02  0.18726422373E+02  0.00000000000E+00 0. -1.
         11    1    3    3    0    0 -0.64498269638E+01  0.22425972690E+02 -0.75145253292E+01  0.24515150625E+02  0.51100000000E-03 0. -1.
        -11    1    3    3    0    0  0.17911772360E+02 -0.99421923219E+01  0.23217060577E+01  0.20617203897E+02  0.51100000000E-03 0.  1.
        -12    1    3    3    0    0 -0.82484334360E+01 -0.11068005049E+02  0.23587052499E+02  0.27329223105E+02  0.00000000000E+00 0.  1.
</event>
<event>
 7    1  0.2932741E-013  0.7246156E+02  0.7816164E-02  0.1226708E+00
        -11   -1    0    0    0    0  0.00000000000E+00  0.00000000000E+00  0.45593999997E+02  0.45594000000E+02  0.51100000000E-03 0.  1.
         11   -1    0    0    0    0 -0.00000000000E+00 -0.00000000000E+00 -0.45593999997E+02  0.45594000000E+02  0.51100000000E-03 0. -1.
    9900012    2    1    2    0    0 -0.18142402290E+02  0.52989228504E+00 -0.46099844597E+01  0.72461561380E+02  0.69999988387E+02 0.  0.
         12    1    1    2    0    0  0.18142402290E+02 -0.52989228504E+00  0.46099844597E+01  0.18726438620E+02  0.00000000000E+00 0. -1.
         11    1    3    3    0    0  0.10706026910E+02 -0.19636680090E+02 -0.20732946582E+02  0.30497103000E+02  0.51100000000E-03 0. -1.
        -11    1    3    3    0    0 -0.90527280625E+00  0.29618652119E+01 -0.27220016872E+01  0.41232824101E+01  0.51100000000E-03 0.  1.
        -12    1    3    3    0    0 -0.27943156393E+02  0.17204707163E+02  0.18844963809E+02  0.37841175970E+02  0.00000000000E+00 0.  1.
</event>
<event>
 7    1  0.2932741E-013  0.7246111E+02  0.7816164E-02  0.1226709E+00
        -11   -1    0    0    0    0  0.00000000000E+00  0.00000000000E+00  0.45593999997E+02  0.45594000000E+02  0.51100000000E-03 0. -1.
         11   -1    0    0    0    0 -0.00000000000E+00 -0.00000000000E+00 -0.45593999997E+02  0.45594000000E+02  0.51100000000E-03 0.  1.
    9900012    2    1    2    0    0  0.48859717251E+00 -0.17131827808E+02  0.75470638467E+01  0.72461109603E+02  0.69999399861E+02 0.  0.
         12    1    1    2    0    0 -0.48859717251E+00  0.17131827808E+02 -0.75470638467E+01  0.18726890397E+02  0.00000000000E+00 0. -1.
         11    1    3    3    0    0  0.59466032959E+01  0.67681342222E+01 -0.15452673406E+02  0.17887281718E+02  0.51100000000E-03 0. -1.
        -11    1    3    3    0    0 -0.66912144931E+01 -0.26675581319E+02 -0.36574993923E+01  0.27744121758E+02  0.51100000000E-03 0.  1.
         12    1    3    3    0    0  0.12332083697E+01  0.27756192883E+01  0.26657236645E+02  0.26829706127E+02  0.00000000000E+00 0. -1.
</event>
<event>
 7    1  0.2932741E-013  0.7246159E+02  0.7816164E-02  0.1226708E+00
        -11   -1    0    0    0    0  0.00000000000E+00  0.00000000000E+00  0.45593999997E+02  0.45594000000E+02  0.51100000000E-03 0. -1.
         11   -1    0    0    0    0 -0.00000000000E+00 -0.00000000000E+00 -0.45593999997E+02  0.45594000000E+02  0.51100000000E-03 0.  1.
    9900012    2    1    2    0    0  0.32308906064E+01 -0.18198856005E+02 -0.30069061647E+01  0.72461588206E+02  0.70000023334E+02 0.  0.
         12    1    1    2    0    0 -0.32308906064E+01  0.18198856005E+02  0.30069061647E+01  0.18726411794E+02  0.00000000000E+00 0. -1.
         11    1    3    3    0    0 -0.73110002234E+01  0.23260768196E+02 -0.10559876831E+01  0.24405515188E+02  0.51100000000E-03 0. -1.
        -11    1    3    3    0    0  0.14592392126E+01  0.91804233494E+00 -0.43200080976E+01  0.46513063792E+01  0.51100000000E-03 0.  1.
        -12    1    3    3    0    0  0.90826516172E+01 -0.42377666536E+02  0.23690896160E+01  0.43404766639E+02  0.00000000000E+00 0.  1.
</event>
<event>
 7    1  0.2932741E-013  0.7246149E+02  0.7816164E-02  0.1226708E+00
        -11   -1    0    0    0    0  0.00000000000E+00  0.00000000000E+00  0.45593999997E+02  0.45594000000E+02  0.51100000000E-03 0. -1.
         11   -1    0    0    0    0 -0.00000000000E+00 -0.00000000000E+00 -0.45593999997E+02  0.45594000000E+02  0.51100000000E-03 0.  1.
    9900012    2    1    2    0    0  0.32596208677E+01 -0.64359524340E+01 -0.17281072133E+02  0.72461492958E+02  0.69999899255E+02 0.  0.
         12    1    1    2    0    0 -0.32596208677E+01  0.64359524340E+01  0.17281072133E+02  0.18726507042E+02  0.00000000000E+00 0. -1.
         11    1    3    3    0    0 -0.10671623872E+02 -0.20177232475E+01 -0.22699880592E+02  0.25164247303E+02  0.51100000000E-03 0. -1.
        -11    1    3    3    0    0 -0.77866583265E+01  0.81450048967E+01 -0.12223996777E+02  0.16625259401E+02  0.51100000000E-03 0.  1.
         12    1    3    3    0    0  0.21717903066E+02 -0.12563234083E+02  0.17642805236E+02  0.30671986255E+02  0.00000000000E+00 0. -1.
</event>
<event>
 7    1  0.2932741E-013  0.7246152E+02  0.7816164E-02  0.1226708E+00
        -11   -1    0    0    0    0  0.00000000000E+00  0.00000000000E+00  0.45593999997E+02  0.45594000000E+02  0.51100000000E-03 0.  1.
         11   -1    0    0    0    0 -0.00000000000E+00 -0.00000000000E+00 -0.45593999997E+02  0.45594000000E+02  0.51100000000E-03 0. -1.
    9900012    2    1    2    0    0  0.13185448697E+02  0.83306762461E+01  0.10364589807E+02  0.72461522864E+02  0.69999938214E+02 0.  0.
         12    1    1    2    0    0 -0.13185448697E+02 -0.83306762461E+01 -0.10364589807E+02  0.18726477136E+02  0.00000000000E+00 0. -1.
         11    1    3    3    0    0  0.53256691042E+01 -0.13816076522E+02  0.75855752162E+01  0.16636937022E+02  0.51100000000E-03 0. -1.
        -11    1    3    3    0    0  0.29102324794E+02  0.10876110562E+02  0.57453836846E+01  0.31595007886E+02  0.51100000000E-03 0.  1.
         12    1    3    3    0    0 -0.21242545201E+02  0.11270642206E+02 -0.29663690938E+01  0.24229577957E+02  0.00000000000E+00 0. -1.
</event>
<event>
 7    1  0.2932741E-013  0.7246160E+02  0.7816164E-02  0.1226708E+00
        -11   -1    0    0    0    0  0.00000000000E+00  0.00000000000E+00  0.45593999997E+02  0.45594000000E+02  0.51100000000E-03 0. -1.
         11   -1    0    0    0    0 -0.00000000000E+00 -0.00000000000E+00 -0.45593999997E+02  0.45594000000E+02  0.51100000000E-03 0.  1.
    9900012    2    1    2    0    0 -0.12124341262E+02 -0.28848919242E+01 -0.13976970287E+02  0.72461602833E+02  0.70000042388E+02 0.  0.
         12    1    1    2    0    0  0.12124341262E+02  0.28848919242E+01  0.13976970287E+02  0.18726397167E+02  0.00000000000E+00 0. -1.
         11    1    3    3    0    0  0.13606448402E+01 -0.10068948884E+02 -0.26610113405E+02  0.28483911629E+02  0.51100000000E-03 0. -1.
        -11    1    3    3    0    0 -0.10056122772E+02 -0.11876050485E+02 -0.63981229944E+01  0.16825639911E+02  0.51100000000E-03 0.  1.
         12    1    3    3    0    0 -0.34288633305E+01  0.19060107445E+02  0.19031266113E+02  0.27152051293E+02  0.00000000000E+00 0. -1.
</event>
<event>
 7    1  0.2932741E-013  0.7246156E+02  0.7816164E-02  0.1226708E+00
        -11   -1    0    0    0    0  0.00000000000E+00  0.00000000000E+00  0.45593999997E+02  0.45594000000E+02  0.51100000000E-03 0.  1.
         11   -1    0    0    0    0 -0.00000000000E+00 -0.00000000000E+00 -0.45593999997E+02  0.45594000000E+02  0.51100000000E-03 0. -1.
    9900012    2    1    2    0    0 -0.12458555774E+02  0.12439704384E+02  0.63810552711E+01  0.72461555503E+02  0.69999980732E+02 0.  0.
         12    1    1    2    0    0  0.12458555774E+02 -0.12439704384E+02 -0.63810552711E+01  0.18726444497E+02  0.00000000000E+00 0. -1.
         11    1    3    3    0    0  0.11631179872E+00 -0.41720263318E+01  0.15877333205E+02  0.16416730555E+02  0.51100000000E-03 0. -1.
        -11    1    3    3    0    0 -0.90239358985E+01  0.33979338237E+02  0.14914890652E+01  0.35188796314E+02  0.51100000000E-03 0.  1.
         12    1    3    3    0    0 -0.35509316739E+01 -0.17367607521E+02 -0.10987767000E+02  0.20856028634E+02  0.00000000000E+00 0. -1.
</event>
<event>
 7    1  0.2932741E-013  0.7246137E+02  0.7816164E-02  0.1226709E+00
        -11   -1    0    0    0    0  0.00000000000E+00  0.00000000000E+00  0.45593999997E+02  0.45594000000E+02  0.51100000000E-03 0. -1.
         11   -1    0    0    0    0 -0.00000000000E+00 -0.00000000000E+00 -0.45593999997E+02  0.45594000000E+02  0.51100000000E-03 0.  1.
    9900012    2    1    2    0    0 -0.14430882305E+02 -0.64577701461E+01 -0.10036611815E+02  0.72461368266E+02  0.69999736820E+02 0.  0.
         12    1    1    2    0    0  0.14430882305E+02  0.64577701461E+01  0.10036611815E+02  0.18726631734E+02  0.00000000000E+00 0. -1.
         11    1    3    3    0    0 -0.15698133406E+01  0.95867968892E+01  0.29058454223E+01  0.10139769544E+02  0.51100000000E-03 0. -1.
        -11    1    3    3    0    0  0.12560758655E+02  0.15676888383E+02 -0.17871410849E+01  0.20167581929E+02  0.51100000000E-03 0.  1.
        -12    1    3    3    0    0 -0.25421827619E+02 -0.31721455418E+02 -0.11155316152E+02  0.42154016793E+02  0.00000000000E+00 0.  1.
</event>
<event>
 7    1  0.2932741E-013  0.7246160E+02  0.7816164E-02  0.1226708E+00
        -11   -1    0    0    0    0  0.00000000000E+00  0.00000000000E+00  0.45593999997E+02  0.45594000000E+02  0.51100000000E-03 0. -1.
         11   -1    0    0    0    0 -0.00000000000E+00 -0.00000000000E+00 -0.45593999997E+02  0.45594000000E+02  0.51100000000E-03 0.  1.
    9900012    2    1    2    0    0 -0.11593465245E+02 -0.14685754524E+02 -0.77347202082E+00  0.72461599350E+02  0.70000037851E+02 0.  0.
         12    1    1    2    0    0  0.11593465245E+02  0.14685754524E+02  0.77347202082E+00  0.18726400650E+02  0.00000000000E+00 0. -1.
         11    1    3    3    0    0 -0.25284185794E+02  0.44340859796E+00  0.17898553448E+02  0.30981363402E+02  0.51100000000E-03 0. -1.
        -11    1    3    3    0    0 -0.35504073372E+01  0.76459546165E+01 -0.51242656170E+01  0.98652984057E+01  0.51100000000E-03 0.  1.
        -12    1    3    3    0    0  0.17241127887E+02 -0.22775117739E+02 -0.13547759852E+02  0.31614937543E+02  0.00000000000E+00 0.  1.
</event>
<event>
 7    1  0.2932741E-013  0.7246167E+02  0.7816164E-02  0.1226708E+00
        -11   -1    0    0    0    0  0.00000000000E+00  0.00000000000E+00  0.45593999997E+02  0.45594000000E+02  0.51100000000E-03 0. -1.
         11   -1    0    0    0    0 -0.00000000000E+00 -0.00000000000E+00 -0.45593999997E+02  0.45594000000E+02  0.51100000000E-03 0.  1.
    9900012    2    1    2    0    0 -0.13587190624E+02  0.11125712389E+02 -0.65024869385E+01  0.72461666627E+02  0.70000125491E+02 0.  0.
         12    1    1    2    0    0  0.13587190624E+02 -0.11125712389E+02  0.65024869385E+01  0.18726333373E+02  0.00000000000E+00 0. -1.
         11    1    3    3    0    0 -0.85598067942E+00  0.10015597130E+02 -0.11103892037E+01  0.10113251369E+02  0.51100000000E-03 0. -1.
        -11    1    3    3    0    0  0.83858011073E+01  0.29573899578E-01 -0.29273786090E+02  0.30451224723E+02  0.51100000000E-03 0.  1.
        -12    1    3    3    0    0 -0.21117011052E+02  0.10805413591E+01  0.23881688355E+02  0.31897190536E+02  0.00000000000E+00 0.  1.
</event>
<event>
 7    1  0.2932741E-013  0.7246154E+02  0.7816164E-02  0.1226708E+00
        -11   -1    0    0    0    0  0.00000000000E+00  0.00000000000E+00  0.45593999997E+02  0.45594000000E+02  0.51100000000E-03 0.  1.
         11   -1    0    0    0    0 -0.00000000000E+00 -0.00000000000E+00 -0.45593999997E+02  0.45594000000E+02  0.51100000000E-03 0. -1.
    9900012    2    1    2    0    0 -0.22697110698E+01  0.12854798003E+02  0.13426950041E+02  0.72461537241E+02  0.69999956942E+02 0.  0.
         12    1    1    2    0    0  0.22697110698E+01 -0.12854798003E+02 -0.13426950041E+02  0.18726462759E+02  0.00000000000E+00 0. -1.
         11    1    3    3    0    0  0.13827455190E+02  0.13162371242E+02  0.13893378425E+02  0.23610855513E+02  0.51100000000E-03 0. -1.
        -11    1    3    3    0    0  0.20919707017E+01  0.16352972919E+02  0.12773619908E+02  0.20855728961E+02  0.51100000000E-03 0.  1.
         12    1    3    3    0    0 -0.18189136961E+02 -0.16660546157E+02 -0.13240048291E+02  0.27994952767E+02  0.00000000000E+00 0. -1.
</event>
<event>
 7    1  0.2932741E-013  0.7246156E+02  0.7816164E-02  0.1226708E+00
        -11   -1    0    0    0    0  0.00000000000E+00  0.00000000000E+00  0.45593999997E+02  0.45594000000E+02  0.51100000000E-03 0. -1.
         11   -1    0    0    0    0 -0.00000000000E+00 -0.00000000000E+00 -0.45593999997E+02  0.45594000000E+02  0.51100000000E-03 0.  1.
    9900012    2    1    2    0    0  0.31568235704E+01 -0.16754161963E+02 -0.77467352420E+01  0.72461564540E+02  0.69999992504E+02 0.  0.
         12    1    1    2    0    0 -0.31568235704E+01  0.16754161963E+02  0.77467352420E+01  0.18726435460E+02  0.00000000000E+00 0. -1.
         11    1    3    3    0    0 -0.38985271469E+01 -0.12629242982E+02  0.36103664320E+01  0.13701497664E+02  0.51100000000E-03 0. -1.
        -11    1    3    3    0    0 -0.86097448719E+01 -0.19549278609E+02  0.13737866692E+02  0.25397460157E+02  0.51100000000E-03 0.  1.
        -12    1    3    3    0    0  0.15665095589E+02  0.15424359628E+02 -0.25094968366E+02  0.33362606719E+02  0.00000000000E+00 0.  1.
</event>
<event>
 7    1  0.2932741E-013  0.7246156E+02  0.7816164E-02  0.1226708E+00
        -11   -1    0    0    0    0  0.00000000000E+00  0.00000000000E+00  0.45593999997E+02  0.45594000000E+02  0.51100000000E-03 0. -1.
         11   -1    0    0    0    0 -0.00000000000E+00 -0.00000000000E+00 -0.45593999997E+02  0.45594000000E+02  0.51100000000E-03 0.  1.
    9900012    2    1    2    0    0  0.86451944147E+01  0.40194183536E+00 -0.16606583427E+02  0.72461559954E+02  0.69999986529E+02 0.  0.
         12    1    1    2    0    0 -0.86451944147E+01 -0.40194183536E+00  0.16606583427E+02  0.18726440046E+02  0.00000000000E+00 0. -1.
         11    1    3    3    0    0  0.40067015765E+01  0.46684043889E+01  0.18830549533E+02  0.19810029102E+02  0.51100000000E-03 0. -1.
        -11    1    3    3    0    0  0.15992675993E+02 -0.15981502099E+02 -0.19806356781E+02  0.30057708894E+02  0.51100000000E-03 0.  1.
         12    1    3    3    0    0 -0.11354183155E+02  0.11715039546E+02 -0.15630776179E+02  0.22593821957E+02  0.00000000000E+00 0. -1.
</event>
<event>
 7    1  0.2932741E-013  0.7246152E+02  0.7816164E-02  0.1226708E+00
        -11   -1    0    0    0    0  0.00000000000E+00  0.00000000000E+00  0.45593999997E+02  0.45594000000E+02  0.51100000000E-03 0.  1.
         11   -1    0    0    0    0 -0.00000000000E+00 -0.00000000000E+00 -0.45593999997E+02  0.45594000000E+02  0.51100000000E-03 0. -1.
    9900012    2    1    2    0    0 -0.87327289033E+01  0.14015073929E+02  0.88316618612E+01  0.72461518682E+02  0.69999932765E+02 0.  0.
         12    1    1    2    0    0  0.87327289033E+01 -0.14015073929E+02 -0.88316618612E+01  0.18726481318E+02  0.00000000000E+00 0. -1.
         11    1    3    3    0    0 -0.32384182257E+02  0.61924149315E+01  0.62171411810E+01  0.33551961312E+02  0.51100000000E-03 0. -1.
        -11    1    3    3    0    0 -0.44383128416E+01 -0.41987803768E+01  0.54986274532E+01  0.82196886597E+01  0.51100000000E-03 0.  1.
         12    1    3    3    0    0  0.28089766196E+02  0.12021439374E+02 -0.28841067729E+01  0.30689868710E+02  0.00000000000E+00 0. -1.
</event>
<event>
 7    1  0.2932741E-013  0.7246155E+02  0.7816164E-02  0.1226708E+00
        -11   -1    0    0    0    0  0.00000000000E+00  0.00000000000E+00  0.45593999997E+02  0.45594000000E+02  0.51100000000E-03 0. -1.
         11   -1    0    0    0    0 -0.00000000000E+00 -0.00000000000E+00 -0.45593999997E+02  0.45594000000E+02  0.51100000000E-03 0.  1.
    9900012    2    1    2    0    0  0.16833061772E+02  0.29198184869E+01 -0.76682915668E+01  0.72461548009E+02  0.69999970969E+02 0.  0.
         12    1    1    2    0    0 -0.16833061772E+02 -0.29198184869E+01  0.76682915668E+01  0.18726451991E+02  0.00000000000E+00 0. -1.
         11    1    3    3    0    0  0.29818031169E+02 -0.65942066674E+01  0.11765055851E+02  0.32726366799E+02  0.51100000000E-03 0. -1.
        -11    1    3    3    0    0  0.37470253327E+01 -0.61004412339E+01  0.29311402904E+01  0.77360949939E+01  0.51100000000E-03 0.  1.
        -12    1    3    3    0    0 -0.16731994730E+02  0.15614466388E+02 -0.22364487709E+02  0.31999086217E+02  0.00000000000E+00 0.  1.
</event>
<event>
 7    1  0.2932741E-013  0.7246158E+02  0.7816164E-02  0.1226708E+00
        -11   -1    0    0    0    0  0.00000000000E+00  0.00000000000E+00  0.45593999997E+02  0.45594000000E+02  0.51100000000E-03 0.  1.
         11   -1    0    0    0    0 -0.00000000000E+00 -0.00000000000E+00 -0.45593999997E+02  0.45594000000E+02  0.51100000000E-03 0. -1.
    9900012    2    1    2    0    0  0.99250448979E+01 -0.14726032314E+02  0.59427386760E+01  0.72461583180E+02  0.70000016786E+02 0.  0.
         12    1    1    2    0    0 -0.99250448979E+01  0.14726032314E+02 -0.59427386760E+01  0.18726416820E+02  0.00000000000E+00 0. -1.
         11    1    3    3    0    0  0.50109813022E+01  0.18051355565E+02  0.93232880858E+01  0.20925703628E+02  0.51100000000E-03 0. -1.
        -11    1    3    3    0    0 -0.85820616055E+01 -0.69108667487E+01  0.13814053141E+02  0.17670311969E+02  0.51100000000E-03 0.  1.
        -12    1    3    3    0    0  0.13496125201E+02 -0.25866521130E+02 -0.17194602551E+02  0.33865567583E+02  0.00000000000E+00 0.  1.
</event>
<event>
 7    1  0.2932741E-013  0.7246154E+02  0.7816164E-02  0.1226708E+00
        -11   -1    0    0    0    0  0.00000000000E+00  0.00000000000E+00  0.45593999997E+02  0.45594000000E+02  0.51100000000E-03 0.  1.
         11   -1    0    0    0    0 -0.00000000000E+00 -0.00000000000E+00 -0.45593999997E+02  0.45594000000E+02  0.51100000000E-03 0. -1.
    9900012    2    1    2    0    0  0.10343641629E+02 -0.15136634085E+00  0.15609821703E+02  0.72461538308E+02  0.69999958332E+02 0.  0.
         12    1    1    2    0    0 -0.10343641629E+02  0.15136634085E+00 -0.15609821703E+02  0.18726461692E+02  0.00000000000E+00 0. -1.
         11    1    3    3    0    0 -0.61870661402E+01 -0.22414696619E+01  0.13800825794E+02  0.15289433166E+02  0.51100000000E-03 0. -1.
        -11    1    3    3    0    0  0.25910271385E-02  0.26957925423E+02  0.39044620774E+01  0.27239210234E+02  0.51100000000E-03 0.  1.
         12    1    3    3    0    0  0.16528116742E+02 -0.24867822102E+02 -0.20954661691E+01  0.29932894908E+02  0.00000000000E+00 0. -1.
</event>
<event>
 7    1  0.2932741E-013  0.7246159E+02  0.7816164E-02  0.1226708E+00
        -11   -1    0    0    0    0  0.00000000000E+00  0.00000000000E+00  0.45593999997E+02  0.45594000000E+02  0.51100000000E-03 0.  1.
         11   -1    0    0    0    0 -0.00000000000E+00 -0.00000000000E+00 -0.45593999997E+02  0.45594000000E+02  0.51100000000E-03 0. -1.
    9900012    2    1    2    0    0 -0.16190051375E+01 -0.86890273634E+01  0.16509327848E+02  0.72461594041E+02  0.70000030934E+02 0.  0.
         12    1    1    2    0    0  0.16190051375E+01  0.86890273634E+01 -0.16509327848E+02  0.18726405959E+02  0.00000000000E+00 0. -1.
         11    1    3    3    0    0  0.16128989973E+02 -0.10928744411E+02 -0.31681181029E+01  0.19738762487E+02  0.51100000000E-03 0. -1.
        -11    1    3    3    0    0  0.70036244082E+01  0.88190074231E+01  0.24221656399E+02  0.26711688187E+02  0.51100000000E-03 0.  1.
        -12    1    3    3    0    0 -0.24751619519E+02 -0.65792903755E+01 -0.45442104488E+01  0.26011143367E+02  0.00000000000E+00 0.  1.
</event>
<event>
 7    1  0.2932741E-013  0.7246110E+02  0.7816164E-02  0.1226709E+00
        -11   -1    0    0    0    0  0.00000000000E+00  0.00000000000E+00  0.45593999997E+02  0.45594000000E+02  0.51100000000E-03 0.  1.
         11   -1    0    0    0    0 -0.00000000000E+00 -0.00000000000E+00 -0.45593999997E+02  0.45594000000E+02  0.51100000000E-03 0. -1.
    9900012    2    1    2    0    0 -0.86186548749E+01 -0.14618742686E+02  0.79188341663E+01  0.72461099986E+02  0.69999387334E+02 0.  0.
         12    1    1    2    0    0  0.86186548749E+01  0.14618742686E+02 -0.79188341663E+01  0.18726900014E+02  0.00000000000E+00 0. -1.
         11    1    3    3    0    0 -0.16574284449E+02 -0.16593569174E+02  0.79465763171E+01  0.24762906097E+02  0.51100000000E-03 0. -1.
        -11    1    3    3    0    0 -0.18596881714E+02  0.75426237088E+01  0.33941195828E+01  0.20353260916E+02  0.51100000000E-03 0.  1.
         12    1    3    3    0    0  0.26552511288E+02 -0.55677972203E+01 -0.34218617335E+01  0.27344932974E+02  0.00000000000E+00 0. -1.
</event>
<event>
 7    1  0.2932741E-013  0.7246161E+02  0.7816164E-02  0.1226708E+00
        -11   -1    0    0    0    0  0.00000000000E+00  0.00000000000E+00  0.45593999997E+02  0.45594000000E+02  0.51100000000E-03 0.  1.
         11   -1    0    0    0    0 -0.00000000000E+00 -0.00000000000E+00 -0.45593999997E+02  0.45594000000E+02  0.51100000000E-03 0. -1.
    9900012    2    1    2    0    0  0.74023527902E+01  0.10876960456E+02  0.13325704522E+02  0.72461614962E+02  0.70000058188E+02 0.  0.
         12    1    1    2    0    0 -0.74023527902E+01 -0.10876960456E+02 -0.13325704522E+02  0.18726385038E+02  0.00000000000E+00 0. -1.
         11    1    3    3    0    0  0.74572169396E+01 -0.96513222967E+01  0.18468576351E+02  0.22132474314E+02  0.51100000000E-03 0. -1.
        -11    1    3    3    0    0  0.93951051032E+01 -0.11848919506E+02  0.34784949305E+01  0.15516598229E+02  0.51100000000E-03 0.  1.
         12    1    3    3    0    0 -0.94499692526E+01  0.32377202258E+02 -0.86213667589E+01  0.34812542420E+02  0.00000000000E+00 0. -1.
</event>
<event>
 7    1  0.2932741E-013  0.7246158E+02  0.7816164E-02  0.1226708E+00
        -11   -1    0    0    0    0  0.00000000000E+00  0.00000000000E+00  0.45593999997E+02  0.45594000000E+02  0.51100000000E-03 0.  1.
         11   -1    0    0    0    0 -0.00000000000E+00 -0.00000000000E+00 -0.45593999997E+02  0.45594000000E+02  0.51100000000E-03 0. -1.
    9900012    2    1    2    0    0 -0.66939643779E+01  0.17483317163E+02  0.45084784861E+00  0.72461580110E+02  0.70000012787E+02 0.  0.
         12    1    1    2    0    0  0.66939643779E+01 -0.17483317163E+02 -0.45084784861E+00  0.18726419890E+02  0.00000000000E+00 0. -1.
         11    1    3    3    0    0 -0.15176057024E+01  0.11582732138E+02 -0.23748003114E+01  0.11920674797E+02  0.51100000000E-03 0. -1.
        -11    1    3    3    0    0  0.23504694296E+02  0.17670066514E+02  0.28008790732E+01  0.29538903643E+02  0.51100000000E-03 0.  1.
        -12    1    3    3    0    0 -0.28681052971E+02 -0.11769481489E+02  0.24769086785E-01  0.31002001670E+02  0.00000000000E+00 0.  1.
</event>
<event>
 7    1  0.2932741E-013  0.7246164E+02  0.7816164E-02  0.1226708E+00
        -11   -1    0    0    0    0  0.00000000000E+00  0.00000000000E+00  0.45593999997E+02  0.45594000000E+02  0.51100000000E-03 0. -1.
         11   -1    0    0    0    0 -0.00000000000E+00 -0.00000000000E+00 -0.45593999997E+02  0.45594000000E+02  0.51100000000E-03 0.  1.
    9900012    2    1    2    0    0  0.10251426261E+01 -0.15520353261E+02 -0.10428043672E+02  0.72461644840E+02  0.70000097110E+02 0.  0.
         12    1    1    2    0    0 -0.10251426261E+01  0.15520353261E+02  0.10428043672E+02  0.18726355160E+02  0.00000000000E+00 0. -1.
         11    1    3    3    0    0 -0.34535019296E+01 -0.22124850559E+02  0.14005953467E+02  0.26412164255E+02  0.51100000000E-03 0. -1.
        -11    1    3    3    0    0 -0.80362655171E+01 -0.12608098443E+02 -0.43586430310E+01  0.15573807471E+02  0.51100000000E-03 0.  1.
         12    1    3    3    0    0  0.12514910073E+02  0.19212595741E+02 -0.20075354108E+02  0.30475673115E+02  0.00000000000E+00 0. -1.
</event>
<event>
 7    1  0.3964740E-013  0.7246161E+02  0.7816164E-02  0.1226708E+00
        -11   -1    0    0    0    0  0.00000000000E+00  0.00000000000E+00  0.45593999997E+02  0.45594000000E+02  0.51100000000E-03 0. -1.
         11   -1    0    0    0    0 -0.00000000000E+00 -0.00000000000E+00 -0.45593999997E+02  0.45594000000E+02  0.51100000000E-03 0.  1.
    9900012    2    1    2    0    0 -0.60295595187E+01  0.71906642047E+01 -0.16205440389E+02  0.72461613859E+02  0.70000056751E+02 0.  0.
         12    1    1    2    0    0  0.60295595187E+01 -0.71906642047E+01  0.16205440389E+02  0.18726386141E+02  0.00000000000E+00 0. -1.
         11    1    3    3    0    0  0.14524875699E+02 -0.17376477292E+02 -0.12996417500E+00  0.22647977130E+02  0.51100000000E-03 0. -1.
        -11    1    3    3    0    0 -0.10084397825E+02  0.25484995921E+01  0.97789111389E+01  0.14276450294E+02  0.51100000000E-03 0.  1.
        -12    1    3    3    0    0 -0.10470037393E+02  0.22018641904E+02 -0.25854387353E+02  0.35537186435E+02  0.00000000000E+00 0.  1.
</event>
<event>
 7    1  0.2932741E-013  0.7246156E+02  0.7816164E-02  0.1226708E+00
        -11   -1    0    0    0    0  0.00000000000E+00  0.00000000000E+00  0.45593999997E+02  0.45594000000E+02  0.51100000000E-03 0.  1.
         11   -1    0    0    0    0 -0.00000000000E+00 -0.00000000000E+00 -0.45593999997E+02  0.45594000000E+02  0.51100000000E-03 0. -1.
    9900012    2    1    2    0    0 -0.21734969297E+01 -0.18599693695E+02 -0.83573934923E-01  0.72461556690E+02  0.69999982278E+02 0.  0.
         12    1    1    2    0    0  0.21734969297E+01  0.18599693695E+02  0.83573934923E-01  0.18726443310E+02  0.00000000000E+00 0. -1.
         11    1    3    3    0    0  0.10328220423E+02 -0.25947091077E+02 -0.11823615867E+02  0.30326911562E+02  0.51100000000E-03 0. -1.
        -11    1    3    3    0    0  0.11253034163E+02  0.95803600457E+01  0.10712621295E+02  0.18253063627E+02  0.51100000000E-03 0.  1.
        -12    1    3    3    0    0 -0.23754751516E+02 -0.22329626639E+01  0.10274206363E+01  0.23881581501E+02  0.00000000000E+00 0.  1.
</event>
<event>
 7    1  0.2932741E-013  0.7246161E+02  0.7816164E-02  0.1226708E+00
        -11   -1    0    0    0    0  0.00000000000E+00  0.00000000000E+00  0.45593999997E+02  0.45594000000E+02  0.51100000000E-03 0.  1.
         11   -1    0    0    0    0 -0.00000000000E+00 -0.00000000000E+00 -0.45593999997E+02  0.45594000000E+02  0.51100000000E-03 0. -1.
    9900012    2    1    2    0    0  0.35304693141E+01  0.13426802562E+02  0.12567202784E+02  0.72461606155E+02  0.70000046715E+02 0.  0.
         12    1    1    2    0    0 -0.35304693141E+01 -0.13426802562E+02 -0.12567202784E+02  0.18726393845E+02  0.00000000000E+00 0. -1.
         11    1    3    3    0    0 -0.14455221546E+02 -0.11940014312E+01 -0.24919262458E+01  0.14716955053E+02  0.51100000000E-03 0. -1.
        -11    1    3    3    0    0  0.15901551697E+02  0.52111987950E+01 -0.17247527849E+02  0.24031087292E+02  0.51100000000E-03 0.  1.
        -12    1    3    3    0    0  0.20841391626E+01  0.94096051984E+01  0.32306656879E+02  0.33713563810E+02  0.00000000000E+00 0.  1.
</event>
<event>
 7    1  0.2932741E-013  0.7246156E+02  0.7816164E-02  0.1226708E+00
        -11   -1    0    0    0    0  0.00000000000E+00  0.00000000000E+00  0.45593999997E+02  0.45594000000E+02  0.51100000000E-03 0.  1.
         11   -1    0    0    0    0 -0.00000000000E+00 -0.00000000000E+00 -0.45593999997E+02  0.45594000000E+02  0.51100000000E-03 0. -1.
    9900012    2    1    2    0    0 -0.18216820217E+02  0.30839494525E+00 -0.43280541483E+01  0.72461556158E+02  0.69999981585E+02 0.  0.
         12    1    1    2    0    0  0.18216820217E+02 -0.30839494525E+00  0.43280541483E+01  0.18726443842E+02  0.00000000000E+00 0. -1.
         11    1    3    3    0    0 -0.32902887959E+02  0.91238240885E+01 -0.55867704720E+01  0.34598500063E+02  0.51100000000E-03 0. -1.
        -11    1    3    3    0    0 -0.10037539541E+02 -0.56685641509E+00  0.54957350487E+01  0.11457601417E+02  0.51100000000E-03 0.  1.
        -12    1    3    3    0    0  0.24723607283E+02 -0.82485727282E+01 -0.42370187251E+01  0.26405454679E+02  0.00000000000E+00 0.  1.
</event>
<event>
 7    1  0.2932741E-013  0.7246149E+02  0.7816164E-02  0.1226708E+00
        -11   -1    0    0    0    0  0.00000000000E+00  0.00000000000E+00  0.45593999997E+02  0.45594000000E+02  0.51100000000E-03 0.  1.
         11   -1    0    0    0    0 -0.00000000000E+00 -0.00000000000E+00 -0.45593999997E+02  0.45594000000E+02  0.51100000000E-03 0. -1.
    9900012    2    1    2    0    0 -0.22364513632E+01  0.41031193034E+01  0.18134076633E+02  0.72461493704E+02  0.69999900227E+02 0.  0.
         12    1    1    2    0    0  0.22364513632E+01 -0.41031193034E+01 -0.18134076633E+02  0.18726506296E+02  0.00000000000E+00 0. -1.
         11    1    3    3    0    0 -0.45935792712E+01  0.49783293831E+01  0.18884421837E+02  0.20062555230E+02  0.51100000000E-03 0. -1.
        -11    1    3    3    0    0  0.17722253591E+02  0.10606493450E+02  0.16628508089E+02  0.26515717173E+02  0.51100000000E-03 0.  1.
         12    1    3    3    0    0 -0.15365125683E+02 -0.11481703530E+02 -0.17378853293E+02  0.25883221302E+02  0.00000000000E+00 0. -1.
</event>
<event>
 7    1  0.2932741E-013  0.7246155E+02  0.7816164E-02  0.1226708E+00
        -11   -1    0    0    0    0  0.00000000000E+00  0.00000000000E+00  0.45593999997E+02  0.45594000000E+02  0.51100000000E-03 0. -1.
         11   -1    0    0    0    0 -0.00000000000E+00 -0.00000000000E+00 -0.45593999997E+02  0.45594000000E+02  0.51100000000E-03 0.  1.
    9900012    2    1    2    0    0 -0.14820294150E+02  0.54680056418E+01  0.10056830316E+02  0.72461547042E+02  0.69999969709E+02 0.  0.
         12    1    1    2    0    0  0.14820294150E+02 -0.54680056418E+01 -0.10056830316E+02  0.18726452958E+02  0.00000000000E+00 0. -1.
         11    1    3    3    0    0  0.67903321218E+01  0.16146041223E+02  0.21455046858E+02  0.27696972640E+02  0.51100000000E-03 0. -1.
        -11    1    3    3    0    0 -0.28077018718E+01  0.11336892260E+02  0.35159174032E+01  0.12197130456E+02  0.51100000000E-03 0.  1.
         12    1    3    3    0    0 -0.18802924400E+02 -0.22014927841E+02 -0.14914133945E+02  0.32567443946E+02  0.00000000000E+00 0. -1.
</event>
<event>
 7    1  0.2932741E-013  0.7246155E+02  0.7816164E-02  0.1226708E+00
        -11   -1    0    0    0    0  0.00000000000E+00  0.00000000000E+00  0.45593999997E+02  0.45594000000E+02  0.51100000000E-03 0.  1.
         11   -1    0    0    0    0 -0.00000000000E+00 -0.00000000000E+00 -0.45593999997E+02  0.45594000000E+02  0.51100000000E-03 0. -1.
    9900012    2    1    2    0    0 -0.12389145215E+02  0.59478344144E+01  0.12720549912E+02  0.72461546961E+02  0.69999969603E+02 0.  0.
         12    1    1    2    0    0  0.12389145215E+02 -0.59478344144E+01 -0.12720549912E+02  0.18726453039E+02  0.00000000000E+00 0. -1.
         11    1    3    3    0    0 -0.28578141067E+01 -0.52928595806E+01 -0.87793117598E+01  0.10642263821E+02  0.51100000000E-03 0. -1.
        -11    1    3    3    0    0 -0.30391744794E+02 -0.21486615020E+01  0.21041555752E+02  0.37027313792E+02  0.51100000000E-03 0.  1.
        -12    1    3    3    0    0  0.20860413687E+02  0.13389355497E+02  0.45830591958E+00  0.24791969347E+02  0.00000000000E+00 0.  1.
</event>
<event>
 7    1  0.2932741E-013  0.7246157E+02  0.7816164E-02  0.1226708E+00
        -11   -1    0    0    0    0  0.00000000000E+00  0.00000000000E+00  0.45593999997E+02  0.45594000000E+02  0.51100000000E-03 0.  1.
         11   -1    0    0    0    0 -0.00000000000E+00 -0.00000000000E+00 -0.45593999997E+02  0.45594000000E+02  0.51100000000E-03 0. -1.
    9900012    2    1    2    0    0  0.17732220669E+02  0.30423788002E-01  0.60205139823E+01  0.72461570440E+02  0.70000000190E+02 0.  0.
         12    1    1    2    0    0 -0.17732220669E+02 -0.30423788002E-01 -0.60205139823E+01  0.18726429560E+02  0.00000000000E+00 0. -1.
         11    1    3    3    0    0 -0.37097592724E-02 -0.14176842586E+01 -0.52084278145E+00  0.15103376720E+01  0.51100000000E-03 0. -1.
        -11    1    3    3    0    0  0.29939775870E+02 -0.53033853190E+01  0.30602833666E+02  0.43139882981E+02  0.51100000000E-03 0.  1.
         12    1    3    3    0    0 -0.12203845442E+02  0.67514933656E+01 -0.24061476903E+02  0.27811349787E+02  0.00000000000E+00 0. -1.
</event>
<event>
 7    1  0.2932741E-013  0.7246144E+02  0.7816164E-02  0.1226708E+00
        -11   -1    0    0    0    0  0.00000000000E+00  0.00000000000E+00  0.45593999997E+02  0.45594000000E+02  0.51100000000E-03 0.  1.
         11   -1    0    0    0    0 -0.00000000000E+00 -0.00000000000E+00 -0.45593999997E+02  0.45594000000E+02  0.51100000000E-03 0. -1.
    9900012    2    1    2    0    0 -0.17046494506E+02 -0.73619309548E+01 -0.24296050196E+01  0.72461441777E+02  0.69999832582E+02 0.  0.
         12    1    1    2    0    0  0.17046494506E+02  0.73619309548E+01  0.24296050196E+01  0.18726558223E+02  0.00000000000E+00 0. -1.
         11    1    3    3    0    0 -0.10129434467E+02 -0.33850205672E+01 -0.29541650366E+02  0.31412941815E+02  0.51100000000E-03 0. -1.
        -11    1    3    3    0    0 -0.11770474215E+02 -0.34148790151E+01 -0.12032572149E+01  0.12314759036E+02  0.51100000000E-03 0.  1.
         12    1    3    3    0    0  0.48534141763E+01 -0.56203137256E+00  0.28315302561E+02  0.28733740925E+02  0.00000000000E+00 0. -1.
</event>
<event>
 7    1  0.2932741E-013  0.7246158E+02  0.7816164E-02  0.1226708E+00
        -11   -1    0    0    0    0  0.00000000000E+00  0.00000000000E+00  0.45593999997E+02  0.45594000000E+02  0.51100000000E-03 0.  1.
         11   -1    0    0    0    0 -0.00000000000E+00 -0.00000000000E+00 -0.45593999997E+02  0.45594000000E+02  0.51100000000E-03 0. -1.
    9900012    2    1    2    0    0 -0.20936488434E+01 -0.76789382223E+01  0.16950791645E+02  0.72461580292E+02  0.70000013024E+02 0.  0.
         12    1    1    2    0    0  0.20936488434E+01  0.76789382223E+01 -0.16950791645E+02  0.18726419708E+02  0.00000000000E+00 0. -1.
         11    1    3    3    0    0  0.12112774455E+02  0.14732899364E+02  0.10017090755E+01  0.19099242132E+02  0.51100000000E-03 0.  1.
        -11    1    3    3    0    0  0.32758623619E+01  0.48785455736E+01 -0.10164743558E+02  0.11741102716E+02  0.51100000000E-03 0. -1.
        -12    1    3    3    0    0 -0.17482285661E+02 -0.27290383160E+02  0.26113826127E+02  0.41621235444E+02  0.00000000000E+00 0.  1.
</event>
<event>
 7    1  0.2932741E-013  0.7246143E+02  0.7816164E-02  0.1226708E+00
        -11   -1    0    0    0    0  0.00000000000E+00  0.00000000000E+00  0.45593999997E+02  0.45594000000E+02  0.51100000000E-03 0.  1.
         11   -1    0    0    0    0 -0.00000000000E+00 -0.00000000000E+00 -0.45593999997E+02  0.45594000000E+02  0.51100000000E-03 0. -1.
    9900012    2    1    2    0    0 -0.52658639065E+01  0.41879694132E+00  0.17966071344E+02  0.72461429756E+02  0.69999816922E+02 0.  0.
         12    1    1    2    0    0  0.52658639065E+01 -0.41879694132E+00 -0.17966071344E+02  0.18726570244E+02  0.00000000000E+00 0. -1.
         11    1    3    3    0    0 -0.40816004251E+01  0.30126193272E+02  0.69275159424E+01  0.31180722578E+02  0.51100000000E-03 0. -1.
        -11    1    3    3    0    0 -0.40969212850E+01  0.65734726747E+00  0.99236812559E+01  0.10756222356E+02  0.51100000000E-03 0.  1.
        -12    1    3    3    0    0  0.29126578036E+01 -0.30364743598E+02  0.11148741462E+01  0.30524484822E+02  0.00000000000E+00 0.  1.
</event>
<event>
 7    1  0.2932741E-013  0.7246146E+02  0.7816164E-02  0.1226708E+00
        -11   -1    0    0    0    0  0.00000000000E+00  0.00000000000E+00  0.45593999997E+02  0.45594000000E+02  0.51100000000E-03 0.  1.
         11   -1    0    0    0    0 -0.00000000000E+00 -0.00000000000E+00 -0.45593999997E+02  0.45594000000E+02  0.51100000000E-03 0. -1.
    9900012    2    1    2    0    0 -0.10548980630E+02  0.85593481955E+01  0.12889519071E+02  0.72461464396E+02  0.69999862047E+02 0.  0.
         12    1    1    2    0    0  0.10548980630E+02 -0.85593481955E+01 -0.12889519071E+02  0.18726535604E+02  0.00000000000E+00 0. -1.
         11    1    3    3    0    0  0.10979100945E+02  0.14250875303E+02 -0.12554074734E+02  0.21937021155E+02  0.51100000000E-03 0. -1.
        -11    1    3    3    0    0  0.63249303208E+01  0.47815536355E+01  0.18268071728E+02  0.19914578671E+02  0.51100000000E-03 0.  1.
         12    1    3    3    0    0 -0.27853011896E+02 -0.10473080743E+02  0.71755220765E+01  0.30609864570E+02  0.00000000000E+00 0. -1.
</event>
<event>
 7    1  0.2932741E-013  0.7246133E+02  0.7816164E-02  0.1226709E+00
        -11   -1    0    0    0    0  0.00000000000E+00  0.00000000000E+00  0.45593999997E+02  0.45594000000E+02  0.51100000000E-03 0. -1.
         11   -1    0    0    0    0 -0.00000000000E+00 -0.00000000000E+00 -0.45593999997E+02  0.45594000000E+02  0.51100000000E-03 0.  1.
    9900012    2    1    2    0    0 -0.95178786998E+01  0.76457324524E+01 -0.14200031804E+02  0.72461330705E+02  0.69999687889E+02 0.  0.
         12    1    1    2    0    0  0.95178786998E+01 -0.76457324524E+01  0.14200031804E+02  0.18726669295E+02  0.00000000000E+00 0. -1.
         11    1    3    3    0    0 -0.11461856629E+02  0.21253096014E+01  0.14313429245E+02  0.18459830858E+02  0.51100000000E-03 0. -1.
        -11    1    3    3    0    0 -0.16114620134E+02  0.13070688132E+02 -0.27435881416E+02  0.34398422342E+02  0.51100000000E-03 0.  1.
        -12    1    3    3    0    0  0.18058598063E+02 -0.75502652810E+01 -0.10775796328E+01  0.19603077505E+02  0.00000000000E+00 0.  1.
</event>
<event>
 7    1  0.2932741E-013  0.7246149E+02  0.7816164E-02  0.1226708E+00
        -11   -1    0    0    0    0  0.00000000000E+00  0.00000000000E+00  0.45593999997E+02  0.45594000000E+02  0.51100000000E-03 0.  1.
         11   -1    0    0    0    0 -0.00000000000E+00 -0.00000000000E+00 -0.45593999997E+02  0.45594000000E+02  0.51100000000E-03 0. -1.
    9900012    2    1    2    0    0 -0.16598638261E+02 -0.15267373004E+01 -0.85344366943E+01  0.72461485947E+02  0.69999890121E+02 0.  0.
         12    1    1    2    0    0  0.16598638261E+02  0.15267373004E+01  0.85344366943E+01  0.18726514053E+02  0.00000000000E+00 0. -1.
         11    1    3    3    0    0 -0.98624631919E+01 -0.86845102254E+01  0.11756239194E+01  0.13193596550E+02  0.51100000000E-03 0. -1.
        -11    1    3    3    0    0  0.10478308333E+01 -0.79263714821E+01  0.21941101944E+02  0.23352457453E+02  0.51100000000E-03 0.  1.
         12    1    3    3    0    0 -0.77840059024E+01  0.15084144407E+02 -0.31651162558E+02  0.35915431943E+02  0.00000000000E+00 0. -1.
</event>
<event>
 7    1  0.2932741E-013  0.7246160E+02  0.7816164E-02  0.1226708E+00
        -11   -1    0    0    0    0  0.00000000000E+00  0.00000000000E+00  0.45593999997E+02  0.45594000000E+02  0.51100000000E-03 0.  1.
         11   -1    0    0    0    0 -0.00000000000E+00 -0.00000000000E+00 -0.45593999997E+02  0.45594000000E+02  0.51100000000E-03 0. -1.
    9900012    2    1    2    0    0  0.18290656410E+02 -0.35446503778E+01 -0.18882295655E+01  0.72461599676E+02  0.70000038275E+02 0.  0.
         12    1    1    2    0    0 -0.18290656410E+02  0.35446503778E+01  0.18882295655E+01  0.18726400324E+02  0.00000000000E+00 0. -1.
         11    1    3    3    0    0 -0.11461747788E+02  0.15066788998E+02 -0.85766024234E+01  0.20783115802E+02  0.51100000000E-03 0. -1.
        -11    1    3    3    0    0  0.13035254606E+02  0.53166417967E+01  0.15740781266E+02  0.21117687794E+02  0.51100000000E-03 0.  1.
        -12    1    3    3    0    0  0.16717149592E+02 -0.23928081172E+02 -0.90524084081E+01  0.30560796080E+02  0.00000000000E+00 0.  1.
</event>
<event>
 7    1  0.2932741E-013  0.7246159E+02  0.7816164E-02  0.1226708E+00
        -11   -1    0    0    0    0  0.00000000000E+00  0.00000000000E+00  0.45593999997E+02  0.45594000000E+02  0.51100000000E-03 0.  1.
         11   -1    0    0    0    0 -0.00000000000E+00 -0.00000000000E+00 -0.45593999997E+02  0.45594000000E+02  0.51100000000E-03 0. -1.
    9900012    2    1    2    0    0 -0.67229029684E+01 -0.15374763196E+02  0.83125069191E+01  0.72461587131E+02  0.70000021933E+02 0.  0.
         12    1    1    2    0    0  0.67229029684E+01  0.15374763196E+02 -0.83125069191E+01  0.18726412869E+02  0.00000000000E+00 0. -1.
         11    1    3    3    0    0  0.59238418885E+01 -0.41662517458E+01 -0.15480765408E+02  0.17091040173E+02  0.51100000000E-03 0. -1.
        -11    1    3    3    0    0  0.10914166306E+02  0.39623716163E+01 -0.71406247636E+01  0.13631138517E+02  0.51100000000E-03 0.  1.
        -12    1    3    3    0    0 -0.23560911163E+02 -0.15170883066E+02  0.30933897090E+02  0.41739408441E+02  0.00000000000E+00 0.  1.
</event>
<event>
 7    1  0.2932741E-013  0.7246177E+02  0.7816164E-02  0.1226707E+00
        -11   -1    0    0    0    0  0.00000000000E+00  0.00000000000E+00  0.45593999997E+02  0.45594000000E+02  0.51100000000E-03 0.  1.
         11   -1    0    0    0    0 -0.00000000000E+00 -0.00000000000E+00 -0.45593999997E+02  0.45594000000E+02  0.51100000000E-03 0. -1.
    9900012    2    1    2    0    0  0.10973699498E+02 -0.79861947483E+01  0.12902338900E+02  0.72461768764E+02  0.70000258543E+02 0.  0.
         12    1    1    2    0    0 -0.10973699498E+02  0.79861947483E+01 -0.12902338900E+02  0.18726231236E+02  0.00000000000E+00 0. -1.
         11    1    3    3    0    0  0.43182609001E+01 -0.11665358727E+02 -0.61082077563E+01  0.13857783867E+02  0.51100000000E-03 0. -1.
        -11    1    3    3    0    0 -0.24469746558E+01 -0.60428174893E+01  0.36243116919E+02  0.36824812999E+02  0.51100000000E-03 0.  1.
         12    1    3    3    0    0  0.91024132536E+01  0.97219814684E+01 -0.17232570263E+02  0.21779171898E+02  0.00000000000E+00 0. -1.
</event>
<event>
 7    1  0.2932741E-013  0.7246167E+02  0.7816164E-02  0.1226708E+00
        -11   -1    0    0    0    0  0.00000000000E+00  0.00000000000E+00  0.45593999997E+02  0.45594000000E+02  0.51100000000E-03 0.  1.
         11   -1    0    0    0    0 -0.00000000000E+00 -0.00000000000E+00 -0.45593999997E+02  0.45594000000E+02  0.51100000000E-03 0. -1.
    9900012    2    1    2    0    0 -0.10424816025E+02  0.15555633462E+02 -0.14396814434E+00  0.72461674989E+02  0.70000136384E+02 0.  0.
         12    1    1    2    0    0  0.10424816025E+02 -0.15555633462E+02  0.14396814434E+00  0.18726325011E+02  0.00000000000E+00 0. -1.
         11    1    3    3    0    0 -0.10626571384E+02  0.28288806498E+01  0.39381233618E+01  0.11680556536E+02  0.51100000000E-03 0. -1.
        -11    1    3    3    0    0  0.16213997167E+02  0.22617667743E+02  0.16928612966E+02  0.32573463671E+02  0.51100000000E-03 0.  1.
         12    1    3    3    0    0 -0.16012241809E+02 -0.98909149307E+01 -0.21010704472E+02  0.28207654783E+02  0.00000000000E+00 0. -1.
</event>
<event>
 7    1  0.2932741E-013  0.7246158E+02  0.7816164E-02  0.1226708E+00
        -11   -1    0    0    0    0  0.00000000000E+00  0.00000000000E+00  0.45593999997E+02  0.45594000000E+02  0.51100000000E-03 0. -1.
         11   -1    0    0    0    0 -0.00000000000E+00 -0.00000000000E+00 -0.45593999997E+02  0.45594000000E+02  0.51100000000E-03 0.  1.
    9900012    2    1    2    0    0  0.78851467698E+01  0.10374012026E+02 -0.13449274419E+02  0.72461584233E+02  0.70000018157E+02 0.  0.
         12    1    1    2    0    0 -0.78851467698E+01 -0.10374012026E+02  0.13449274419E+02  0.18726415767E+02  0.00000000000E+00 0. -1.
         11    1    3    3    0    0  0.10799552097E+02  0.13791843988E+02 -0.21166277515E+02  0.27474653595E+02  0.51100000000E-03 0. -1.
        -11    1    3    3    0    0  0.95610337009E+01 -0.13346797861E+02 -0.11478929076E+02  0.20032877766E+02  0.51100000000E-03 0.  1.
        -12    1    3    3    0    0 -0.12475439028E+02  0.99289658985E+01  0.19195932172E+02  0.24954052871E+02  0.00000000000E+00 0.  1.
</event>
<event>
 7    1  0.2932741E-013  0.7246155E+02  0.7816164E-02  0.1226708E+00
        -11   -1    0    0    0    0  0.00000000000E+00  0.00000000000E+00  0.45593999997E+02  0.45594000000E+02  0.51100000000E-03 0.  1.
         11   -1    0    0    0    0 -0.00000000000E+00 -0.00000000000E+00 -0.45593999997E+02  0.45594000000E+02  0.51100000000E-03 0. -1.
    9900012    2    1    2    0    0 -0.20103597576E+01  0.18209860442E+02  0.38780692940E+01  0.72461548518E+02  0.69999971632E+02 0.  0.
         12    1    1    2    0    0  0.20103597576E+01 -0.18209860442E+02 -0.38780692940E+01  0.18726451482E+02  0.00000000000E+00 0. -1.
         11    1    3    3    0    0 -0.20162964044E+02 -0.88230284758E+01 -0.18810453859E+02  0.28952100531E+02  0.51100000000E-03 0. -1.
        -11    1    3    3    0    0  0.34746690374E-01  0.18349661038E+01 -0.28008002834E+01  0.33485504959E+01  0.51100000000E-03 0.  1.
        -12    1    3    3    0    0  0.18117857596E+02  0.25197922814E+02  0.25489323436E+02  0.40160897491E+02  0.00000000000E+00 0.  1.
</event>
<event>
 7    1  0.2932741E-013  0.7246163E+02  0.7816164E-02  0.1226708E+00
        -11   -1    0    0    0    0  0.00000000000E+00  0.00000000000E+00  0.45593999997E+02  0.45594000000E+02  0.51100000000E-03 0.  1.
         11   -1    0    0    0    0 -0.00000000000E+00 -0.00000000000E+00 -0.45593999997E+02  0.45594000000E+02  0.51100000000E-03 0. -1.
    9900012    2    1    2    0    0 -0.84695934306E+01 -0.34853666814E+01  0.16333863661E+02  0.72461631001E+02  0.70000079082E+02 0.  0.
         12    1    1    2    0    0  0.84695934306E+01  0.34853666814E+01 -0.16333863661E+02  0.18726368999E+02  0.00000000000E+00 0. -1.
         11    1    3    3    0    0 -0.96295303225E+01 -0.22107095372E+01  0.52150386554E+01  0.11171916547E+02  0.51100000000E-03 0. -1.
        -11    1    3    3    0    0  0.19447376598E+02 -0.23577395436E+02  0.10896100633E+02  0.32447173088E+02  0.51100000000E-03 0.  1.
         12    1    3    3    0    0 -0.18287439706E+02  0.22302738292E+02  0.22272437220E+00  0.28842541367E+02  0.00000000000E+00 0. -1.
</event>
<event>
 7    1  0.2932741E-013  0.7246153E+02  0.7816164E-02  0.1226708E+00
        -11   -1    0    0    0    0  0.00000000000E+00  0.00000000000E+00  0.45593999997E+02  0.45594000000E+02  0.51100000000E-03 0. -1.
         11   -1    0    0    0    0 -0.00000000000E+00 -0.00000000000E+00 -0.45593999997E+02  0.45594000000E+02  0.51100000000E-03 0.  1.
    9900012    2    1    2    0    0  0.16507464572E+02  0.40899079127E+01 -0.78394462697E+01  0.72461530734E+02  0.69999948466E+02 0.  0.
         12    1    1    2    0    0 -0.16507464572E+02 -0.40899079127E+01  0.78394462697E+01  0.18726469266E+02  0.00000000000E+00 0. -1.
         11    1    3    3    0    0  0.29084087479E+02  0.21682924793E+02  0.70843346675E+01  0.36962429168E+02  0.51100000000E-03 0. -1.
        -11    1    3    3    0    0  0.54911927089E+01 -0.10879389044E+02 -0.21475469892E+01  0.12374419650E+02  0.51100000000E-03 0.  1.
        -12    1    3    3    0    0 -0.18067815616E+02 -0.67136278359E+01 -0.12776233948E+02  0.23124681917E+02  0.00000000000E+00 0.  1.
</event>
<event>
 7    1  0.2932741E-013  0.7246157E+02  0.7816164E-02  0.1226708E+00
        -11   -1    0    0    0    0  0.00000000000E+00  0.00000000000E+00  0.45593999997E+02  0.45594000000E+02  0.51100000000E-03 0.  1.
         11   -1    0    0    0    0 -0.00000000000E+00 -0.00000000000E+00 -0.45593999997E+02  0.45594000000E+02  0.51100000000E-03 0. -1.
    9900012    2    1    2    0    0  0.13438996645E+02 -0.11818140718E+02  0.55139797368E+01  0.72461573395E+02  0.70000004040E+02 0.  0.
         12    1    1    2    0    0 -0.13438996645E+02  0.11818140718E+02 -0.55139797368E+01  0.18726426605E+02  0.00000000000E+00 0. -1.
         11    1    3    3    0    0 -0.64933086795E+01  0.29429578168E+01 -0.21983520702E+02  0.23110587206E+02  0.51100000000E-03 0. -1.
        -11    1    3    3    0    0 -0.50090130183E+01 -0.15034449795E+02  0.83921026988E+01  0.17931878876E+02  0.51100000000E-03 0.  1.
        -12    1    3    3    0    0  0.24941318343E+02  0.27335126034E+00  0.19105397740E+02  0.31419107313E+02  0.00000000000E+00 0.  1.
</event>
<event>
 7    1  0.2932741E-013  0.7246157E+02  0.7816164E-02  0.1226708E+00
        -11   -1    0    0    0    0  0.00000000000E+00  0.00000000000E+00  0.45593999997E+02  0.45594000000E+02  0.51100000000E-03 0. -1.
         11   -1    0    0    0    0 -0.00000000000E+00 -0.00000000000E+00 -0.45593999997E+02  0.45594000000E+02  0.51100000000E-03 0.  1.
    9900012    2    1    2    0    0  0.10180970989E+01  0.75829394973E+01 -0.17092148196E+02  0.72461574205E+02  0.70000005094E+02 0.  0.
         12    1    1    2    0    0 -0.10180970989E+01 -0.75829394973E+01  0.17092148196E+02  0.18726425795E+02  0.00000000000E+00 0. -1.
         11    1    3    3    0    0 -0.32921021359E+01 -0.65311069352E+01  0.12110990573E+02  0.14148123098E+02  0.51100000000E-03 0.  1.
        -11    1    3    3    0    0 -0.15204143896E+02  0.21635429584E+02 -0.60759103185E+01  0.27132535660E+02  0.51100000000E-03 0. -1.
        -12    1    3    3    0    0  0.19514343131E+02 -0.75213831516E+01 -0.23127228450E+02  0.31180915447E+02  0.00000000000E+00 0.  1.
</event>
<event>
 7    1  0.2932741E-013  0.7246159E+02  0.7816164E-02  0.1226708E+00
        -11   -1    0    0    0    0  0.00000000000E+00  0.00000000000E+00  0.45593999997E+02  0.45594000000E+02  0.51100000000E-03 0. -1.
         11   -1    0    0    0    0 -0.00000000000E+00 -0.00000000000E+00 -0.45593999997E+02  0.45594000000E+02  0.51100000000E-03 0.  1.
    9900012    2    1    2    0    0  0.17507857225E+02  0.50202973213E+01 -0.43531742026E+01  0.72461586156E+02  0.70000020663E+02 0.  0.
         12    1    1    2    0    0 -0.17507857225E+02 -0.50202973213E+01  0.43531742026E+01  0.18726413844E+02  0.00000000000E+00 0. -1.
         11    1    3    3    0    0 -0.12565697410E+01 -0.23744209847E+01  0.11247660883E+02  0.11564026899E+02  0.51100000000E-03 0. -1.
        -11    1    3    3    0    0  0.24114960080E+02  0.28294046549E+02 -0.80251541041E+01  0.38032715764E+02  0.51100000000E-03 0.  1.
         12    1    3    3    0    0 -0.53505331133E+01 -0.20899328243E+02 -0.75756809815E+01  0.22864843493E+02  0.00000000000E+00 0. -1.
</event>
<event>
 7    1  0.2932741E-013  0.7246158E+02  0.7816164E-02  0.1226708E+00
        -11   -1    0    0    0    0  0.00000000000E+00  0.00000000000E+00  0.45593999997E+02  0.45594000000E+02  0.51100000000E-03 0.  1.
         11   -1    0    0    0    0 -0.00000000000E+00 -0.00000000000E+00 -0.45593999997E+02  0.45594000000E+02  0.51100000000E-03 0. -1.
    9900012    2    1    2    0    0 -0.53931950777E+01 -0.13807374159E+02  0.11443288271E+02  0.72461575334E+02  0.70000006565E+02 0.  0.
         12    1    1    2    0    0  0.53931950777E+01  0.13807374159E+02 -0.11443288271E+02  0.18726424666E+02  0.00000000000E+00 0. -1.
         11    1    3    3    0    0 -0.20782344464E+02  0.16420942583E+02  0.28688154849E+01  0.26641758562E+02  0.51100000000E-03 0. -1.
        -11    1    3    3    0    0  0.69086905759E+01  0.31246852603E+01 -0.47148511346E+01  0.89288008675E+01  0.51100000000E-03 0.  1.
        -12    1    3    3    0    0  0.84804588101E+01 -0.33353002002E+02  0.13289323921E+02  0.36891015905E+02  0.00000000000E+00 0.  1.
</event>
<event>
 7    1  0.2932741E-013  0.7246158E+02  0.7816164E-02  0.1226708E+00
        -11   -1    0    0    0    0  0.00000000000E+00  0.00000000000E+00  0.45593999997E+02  0.45594000000E+02  0.51100000000E-03 0.  1.
         11   -1    0    0    0    0 -0.00000000000E+00 -0.00000000000E+00 -0.45593999997E+02  0.45594000000E+02  0.51100000000E-03 0. -1.
    9900012    2    1    2    0    0  0.10763347427E+02  0.46896887878E+01  0.14588895824E+02  0.72461582560E+02  0.70000015979E+02 0.  0.
         12    1    1    2    0    0 -0.10763347427E+02 -0.46896887878E+01 -0.14588895824E+02  0.18726417440E+02  0.00000000000E+00 0. -1.
         11    1    3    3    0    0  0.78106558729E+01 -0.27300060270E+02  0.13661765739E+02  0.31511005685E+02  0.51100000000E-03 0. -1.
        -11    1    3    3    0    0  0.31013573375E+01 -0.97088178046E+00 -0.64065073078E+01  0.71836178151E+01  0.51100000000E-03 0.  1.
        -12    1    3    3    0    0 -0.14866578311E+00  0.32960630838E+02  0.73336373928E+01  0.33766959060E+02  0.00000000000E+00 0.  1.
</event>
<event>
 7    1  0.2932741E-013  0.7246161E+02  0.7816164E-02  0.1226708E+00
        -11   -1    0    0    0    0  0.00000000000E+00  0.00000000000E+00  0.45593999997E+02  0.45594000000E+02  0.51100000000E-03 0.  1.
         11   -1    0    0    0    0 -0.00000000000E+00 -0.00000000000E+00 -0.45593999997E+02  0.45594000000E+02  0.51100000000E-03 0. -1.
    9900012    2    1    2    0    0 -0.13402485491E+02 -0.36630501890E+01  0.12555198908E+02  0.72461612905E+02  0.70000055508E+02 0.  0.
         12    1    1    2    0    0  0.13402485491E+02  0.36630501890E+01 -0.12555198908E+02  0.18726387095E+02  0.00000000000E+00 0. -1.
         11    1    3    3    0    0  0.14397133565E+02  0.59260344267E+01  0.13402994865E+02  0.20543505312E+02  0.51100000000E-03 0. -1.
        -11    1    3    3    0    0 -0.24108558313E+01 -0.19052880795E+02  0.11236236986E+02  0.22250337398E+02  0.51100000000E-03 0.  1.
        -12    1    3    3    0    0 -0.25388763224E+02  0.94637961794E+01 -0.12084032943E+02  0.29667770195E+02  0.00000000000E+00 0.  1.
</event>
<event>
 7    1  0.2932741E-013  0.7246161E+02  0.7816164E-02  0.1226708E+00
        -11   -1    0    0    0    0  0.00000000000E+00  0.00000000000E+00  0.45593999997E+02  0.45594000000E+02  0.51100000000E-03 0. -1.
         11   -1    0    0    0    0 -0.00000000000E+00 -0.00000000000E+00 -0.45593999997E+02  0.45594000000E+02  0.51100000000E-03 0.  1.
    9900012    2    1    2    0    0 -0.88571442200E+00  0.25670952958E+01 -0.18528445989E+02  0.72461607420E+02  0.70000048362E+02 0.  0.
         12    1    1    2    0    0  0.88571442200E+00 -0.25670952958E+01  0.18528445989E+02  0.18726392580E+02  0.00000000000E+00 0. -1.
         11    1    3    3    0    0  0.49024676551E+01  0.18588020844E+02 -0.17850406962E+01  0.19306348141E+02  0.51100000000E-03 0. -1.
        -11    1    3    3    0    0  0.20753681827E+02 -0.39671250658E+01 -0.48977763409E+01  0.21689665834E+02  0.51100000000E-03 0.  1.
         12    1    3    3    0    0 -0.26541863904E+02 -0.12053800482E+02 -0.11845628952E+02  0.31465593445E+02  0.00000000000E+00 0. -1.
</event>
<event>
 7    1  0.2932741E-013  0.7246154E+02  0.7816164E-02  0.1226708E+00
        -11   -1    0    0    0    0  0.00000000000E+00  0.00000000000E+00  0.45593999997E+02  0.45594000000E+02  0.51100000000E-03 0.  1.
         11   -1    0    0    0    0 -0.00000000000E+00 -0.00000000000E+00 -0.45593999997E+02  0.45594000000E+02  0.51100000000E-03 0. -1.
    9900012    2    1    2    0    0 -0.12912080521E+02  0.15964556806E+01  0.13468846764E+02  0.72461539382E+02  0.69999959731E+02 0.  0.
         12    1    1    2    0    0  0.12912080521E+02 -0.15964556806E+01 -0.13468846764E+02  0.18726460618E+02  0.00000000000E+00 0. -1.
         11    1    3    3    0    0 -0.14359933471E+01  0.23709023650E+01  0.23327483829E+01  0.36228400733E+01  0.51100000000E-03 0. -1.
        -11    1    3    3    0    0 -0.20080495563E+02 -0.30165736830E+02 -0.40463756204E-01  0.36238096226E+02  0.51100000000E-03 0.  1.
         12    1    3    3    0    0  0.86044083886E+01  0.29391290145E+02  0.11176562137E+02  0.32600603082E+02  0.00000000000E+00 0. -1.
</event>
<event>
 7    1  0.2932741E-013  0.7246157E+02  0.7816164E-02  0.1226708E+00
        -11   -1    0    0    0    0  0.00000000000E+00  0.00000000000E+00  0.45593999997E+02  0.45594000000E+02  0.51100000000E-03 0.  1.
         11   -1    0    0    0    0 -0.00000000000E+00 -0.00000000000E+00 -0.45593999997E+02  0.45594000000E+02  0.51100000000E-03 0. -1.
    9900012    2    1    2    0    0 -0.14011374831E+02  0.64656386080E+01  0.10609237932E+02  0.72461573839E+02  0.70000004617E+02 0.  0.
         12    1    1    2    0    0  0.14011374831E+02 -0.64656386080E+01 -0.10609237932E+02  0.18726426161E+02  0.00000000000E+00 0. -1.
         11    1    3    3    0    0 -0.20217399780E+02 -0.24504721238E+02  0.15121559104E+01  0.31804264377E+02  0.51100000000E-03 0. -1.
        -11    1    3    3    0    0  0.43387035331E+00 -0.16016064767E+01  0.73464958588E+01  0.75315594968E+01  0.51100000000E-03 0.  1.
        -12    1    3    3    0    0  0.57721545951E+01  0.32571966323E+02  0.17505861625E+01  0.33125749965E+02  0.00000000000E+00 0.  1.
</event>
<event>
 7    1  0.2932741E-013  0.7246151E+02  0.7816164E-02  0.1226708E+00
        -11   -1    0    0    0    0  0.00000000000E+00  0.00000000000E+00  0.45593999997E+02  0.45594000000E+02  0.51100000000E-03 0. -1.
         11   -1    0    0    0    0 -0.00000000000E+00 -0.00000000000E+00 -0.45593999997E+02  0.45594000000E+02  0.51100000000E-03 0.  1.
    9900012    2    1    2    0    0 -0.14776149698E+02  0.78663383766E+01  0.83944963877E+01  0.72461509433E+02  0.69999920717E+02 0.  0.
         12    1    1    2    0    0  0.14776149698E+02 -0.78663383766E+01 -0.83944963877E+01  0.18726490567E+02  0.00000000000E+00 0. -1.
         11    1    3    3    0    0 -0.94022576478E+01  0.42864025047E-01 -0.37952433529E+01  0.10139435811E+02  0.51100000000E-03 0. -1.
        -11    1    3    3    0    0 -0.81999215561E+01 -0.13467887910E+02  0.30346067424E+02  0.34198048579E+02  0.51100000000E-03 0.  1.
        -12    1    3    3    0    0  0.28260295064E+01  0.21291362261E+02 -0.18156327683E+02  0.28124025043E+02  0.00000000000E+00 0.  1.
</event>
<event>
 7    1  0.2932741E-013  0.7246145E+02  0.7816164E-02  0.1226708E+00
        -11   -1    0    0    0    0  0.00000000000E+00  0.00000000000E+00  0.45593999997E+02  0.45594000000E+02  0.51100000000E-03 0. -1.
         11   -1    0    0    0    0 -0.00000000000E+00 -0.00000000000E+00 -0.45593999997E+02  0.45594000000E+02  0.51100000000E-03 0.  1.
    9900012    2    1    2    0    0 -0.80255577742E+01  0.38048146890E+01 -0.16486279354E+02  0.72461452018E+02  0.69999845922E+02 0.  0.
         12    1    1    2    0    0  0.80255577742E+01 -0.38048146890E+01  0.16486279354E+02  0.18726547982E+02  0.00000000000E+00 0. -1.
         11    1    3    3    0    0 -0.63775686590E+01 -0.12528044676E+02 -0.15019610747E+02  0.20572165483E+02  0.51100000000E-03 0. -1.
        -11    1    3    3    0    0  0.12402974225E+01 -0.17608710751E+02 -0.23846505011E+01  0.17812680603E+02  0.51100000000E-03 0.  1.
         12    1    3    3    0    0 -0.28882865377E+01  0.33941570116E+02  0.91798189482E+00  0.34076605931E+02  0.00000000000E+00 0. -1.
</event>
<event>
 7    1  0.2932741E-013  0.7246190E+02  0.7816164E-02  0.1226707E+00
        -11   -1    0    0    0    0  0.00000000000E+00  0.00000000000E+00  0.45593999997E+02  0.45594000000E+02  0.51100000000E-03 0.  1.
         11   -1    0    0    0    0 -0.00000000000E+00 -0.00000000000E+00 -0.45593999997E+02  0.45594000000E+02  0.51100000000E-03 0. -1.
    9900012    2    1    2    0    0 -0.25149503769E+00  0.18235991193E+02  0.42487921757E+01  0.72461898978E+02  0.70000428170E+02 0.  0.
         12    1    1    2    0    0  0.25149503769E+00 -0.18235991193E+02 -0.42487921757E+01  0.18726101022E+02  0.00000000000E+00 0. -1.
         11    1    3    3    0    0 -0.81339545018E+01  0.14548036191E+02 -0.15225240991E+02  0.22574643660E+02  0.51100000000E-03 0. -1.
        -11    1    3    3    0    0  0.40943546328E+00  0.21699570857E+02 -0.85138878263E+00  0.21720126056E+02  0.51100000000E-03 0.  1.
        -12    1    3    3    0    0  0.74730240008E+01 -0.18011615855E+02  0.20325421950E+02  0.28167129262E+02  0.00000000000E+00 0.  1.
</event>
<event>
 7    1  0.2932741E-013  0.7246162E+02  0.7816164E-02  0.1226708E+00
        -11   -1    0    0    0    0  0.00000000000E+00  0.00000000000E+00  0.45593999997E+02  0.45594000000E+02  0.51100000000E-03 0. -1.
         11   -1    0    0    0    0 -0.00000000000E+00 -0.00000000000E+00 -0.45593999997E+02  0.45594000000E+02  0.51100000000E-03 0.  1.
    9900012    2    1    2    0    0  0.12754000892E+02 -0.42967207310E+01 -0.13021171911E+02  0.72461621126E+02  0.70000066218E+02 0.  0.
         12    1    1    2    0    0 -0.12754000892E+02  0.42967207310E+01  0.13021171911E+02  0.18726378874E+02  0.00000000000E+00 0. -1.
         11    1    3    3    0    0 -0.80157004863E+01 -0.58152895084E+01  0.44242762095E+00  0.99128597697E+01  0.51100000000E-03 0. -1.
        -11    1    3    3    0    0  0.23221088080E+02 -0.46363362146E+01 -0.33738467972E+02  0.41218912728E+02  0.51100000000E-03 0.  1.
         12    1    3    3    0    0 -0.24513867012E+01  0.61549049920E+01  0.20274868440E+02  0.21329848628E+02  0.00000000000E+00 0. -1.
</event>
<event>
 7    1  0.2932741E-013  0.7246155E+02  0.7816164E-02  0.1226708E+00
        -11   -1    0    0    0    0  0.00000000000E+00  0.00000000000E+00  0.45593999997E+02  0.45594000000E+02  0.51100000000E-03 0.  1.
         11   -1    0    0    0    0 -0.00000000000E+00 -0.00000000000E+00 -0.45593999997E+02  0.45594000000E+02  0.51100000000E-03 0. -1.
    9900012    2    1    2    0    0 -0.10625750991E+02 -0.15383326165E+02  0.10614646137E+01  0.72461547716E+02  0.69999970587E+02 0.  0.
         12    1    1    2    0    0  0.10625750991E+02  0.15383326165E+02 -0.10614646137E+01  0.18726452284E+02  0.00000000000E+00 0. -1.
         11    1    3    3    0    0 -0.86948719960E+01  0.13953621964E+02 -0.45629914598E+01  0.17062393040E+02  0.51100000000E-03 0. -1.
        -11    1    3    3    0    0 -0.11682567456E+01 -0.35707850971E+01  0.23648661642E+02  0.23945240190E+02  0.51100000000E-03 0.  1.
         12    1    3    3    0    0 -0.76262224955E+00 -0.25766163032E+02 -0.18024205568E+02  0.31453914486E+02  0.00000000000E+00 0. -1.
</event>
<event>
 7    1  0.2932741E-013  0.7246141E+02  0.7816164E-02  0.1226708E+00
        -11   -1    0    0    0    0  0.00000000000E+00  0.00000000000E+00  0.45593999997E+02  0.45594000000E+02  0.51100000000E-03 0.  1.
         11   -1    0    0    0    0 -0.00000000000E+00 -0.00000000000E+00 -0.45593999997E+02  0.45594000000E+02  0.51100000000E-03 0. -1.
    9900012    2    1    2    0    0  0.54773309556E+01  0.43764519066E+01  0.17364641810E+02  0.72461407387E+02  0.69999787783E+02 0.  0.
         12    1    1    2    0    0 -0.54773309556E+01 -0.43764519066E+01 -0.17364641810E+02  0.18726592613E+02  0.00000000000E+00 0. -1.
         11    1    3    3    0    0  0.59427713650E+01  0.17642400445E+02  0.77062493308E+01  0.20148377204E+02  0.51100000000E-03 0. -1.
        -11    1    3    3    0    0  0.15114790674E+02  0.10898332647E+02 -0.59971540626E+01  0.19575403156E+02  0.51100000000E-03 0.  1.
         12    1    3    3    0    0 -0.15580231083E+02 -0.24164281186E+02  0.15655546542E+02  0.32737627027E+02  0.00000000000E+00 0. -1.
</event>
<event>
 7    1  0.2932741E-013  0.7246155E+02  0.7816164E-02  0.1226708E+00
        -11   -1    0    0    0    0  0.00000000000E+00  0.00000000000E+00  0.45593999997E+02  0.45594000000E+02  0.51100000000E-03 0.  1.
         11   -1    0    0    0    0 -0.00000000000E+00 -0.00000000000E+00 -0.45593999997E+02  0.45594000000E+02  0.51100000000E-03 0. -1.
    9900012    2    1    2    0    0 -0.25967774931E+00 -0.13038426655E+02  0.13439188039E+02  0.72461554066E+02  0.69999978860E+02 0.  0.
         12    1    1    2    0    0  0.25967774931E+00  0.13038426655E+02 -0.13439188039E+02  0.18726445934E+02  0.00000000000E+00 0. -1.
         11    1    3    3    0    0 -0.21741628944E+02  0.11160554659E+02  0.25592343314E+02  0.35386783493E+02  0.51100000000E-03 0. -1.
        -11    1    3    3    0    0 -0.19364015988E+00  0.11634136655E+01 -0.17822173536E+01  0.21371305120E+01  0.51100000000E-03 0.  1.
        -12    1    3    3    0    0  0.21675591355E+02 -0.25362394979E+02 -0.10370937921E+02  0.34937640061E+02  0.00000000000E+00 0.  1.
</event>
<event>
 7    1  0.2932741E-013  0.7246159E+02  0.7816164E-02  0.1226708E+00
        -11   -1    0    0    0    0  0.00000000000E+00  0.00000000000E+00  0.45593999997E+02  0.45594000000E+02  0.51100000000E-03 0.  1.
         11   -1    0    0    0    0 -0.00000000000E+00 -0.00000000000E+00 -0.45593999997E+02  0.45594000000E+02  0.51100000000E-03 0. -1.
    9900012    2    1    2    0    0  0.11377453483E+02  0.14280129091E+02  0.41605328349E+01  0.72461586353E+02  0.70000020919E+02 0.  0.
         12    1    1    2    0    0 -0.11377453483E+02 -0.14280129091E+02 -0.41605328349E+01  0.18726413647E+02  0.00000000000E+00 0. -1.
         11    1    3    3    0    0  0.62183621605E+01 -0.32008018706E+01 -0.61856935498E+01  0.93368070306E+01  0.51100000000E-03 0.  1.
        -11    1    3    3    0    0  0.20919664148E+02  0.28664502962E+02 -0.81108504417E+01  0.36401538062E+02  0.51100000000E-03 0. -1.
        -12    1    3    3    0    0 -0.15760572826E+02 -0.11183572000E+02  0.18457076826E+02  0.26723241260E+02  0.00000000000E+00 0.  1.
</event>
<event>
 7    1  0.2932741E-013  0.7246158E+02  0.7816164E-02  0.1226708E+00
        -11   -1    0    0    0    0  0.00000000000E+00  0.00000000000E+00  0.45593999997E+02  0.45594000000E+02  0.51100000000E-03 0. -1.
         11   -1    0    0    0    0 -0.00000000000E+00 -0.00000000000E+00 -0.45593999997E+02  0.45594000000E+02  0.51100000000E-03 0.  1.
    9900012    2    1    2    0    0  0.86210482482E+01  0.15696015165E+02 -0.54764574870E+01  0.72461576114E+02  0.70000007581E+02 0.  0.
         12    1    1    2    0    0 -0.86210482482E+01 -0.15696015165E+02  0.54764574870E+01  0.18726423886E+02  0.00000000000E+00 0. -1.
         11    1    3    3    0    0  0.11923408091E+02  0.40236635166E+01  0.22047582688E+02  0.25386087356E+02  0.51100000000E-03 0. -1.
        -11    1    3    3    0    0 -0.14342204156E+02 -0.68357028292E+01 -0.71644053265E+01  0.17428550059E+02  0.51100000000E-03 0.  1.
        -12    1    3    3    0    0  0.11039844313E+02  0.18508054478E+02 -0.20359634849E+02  0.29646938699E+02  0.00000000000E+00 0.  1.
</event>
<event>
 7    1  0.2932741E-013  0.7246150E+02  0.7816164E-02  0.1226708E+00
        -11   -1    0    0    0    0  0.00000000000E+00  0.00000000000E+00  0.45593999997E+02  0.45594000000E+02  0.51100000000E-03 0.  1.
         11   -1    0    0    0    0 -0.00000000000E+00 -0.00000000000E+00 -0.45593999997E+02  0.45594000000E+02  0.51100000000E-03 0. -1.
    9900012    2    1    2    0    0  0.45364369637E+01  0.22911129441E+00  0.18167284320E+02  0.72461495471E+02  0.69999902529E+02 0.  0.
         12    1    1    2    0    0 -0.45364369637E+01 -0.22911129441E+00 -0.18167284320E+02  0.18726504529E+02  0.00000000000E+00 0. -1.
         11    1    3    3    0    0  0.54128618263E+01 -0.26545370721E+01  0.18775694420E+02  0.19719846385E+02  0.51100000000E-03 0. -1.
        -11    1    3    3    0    0 -0.22707164083E+02  0.80424671147E+01  0.12102559100E+02  0.26958644532E+02  0.51100000000E-03 0.  1.
         12    1    3    3    0    0  0.21830739221E+02 -0.51588187482E+01 -0.12710969200E+02  0.25783004554E+02  0.00000000000E+00 0. -1.
</event>
<event>
 7    1  0.2932741E-013  0.7246162E+02  0.7816164E-02  0.1226708E+00
        -11   -1    0    0    0    0  0.00000000000E+00  0.00000000000E+00  0.45593999997E+02  0.45594000000E+02  0.51100000000E-03 0.  1.
         11   -1    0    0    0    0 -0.00000000000E+00 -0.00000000000E+00 -0.45593999997E+02  0.45594000000E+02  0.51100000000E-03 0. -1.
    9900012    2    1    2    0    0 -0.16433458408E+02  0.31364291855E+00  0.89733246403E+01  0.72461615345E+02  0.70000058687E+02 0.  0.
         12    1    1    2    0    0  0.16433458408E+02 -0.31364291855E+00 -0.89733246403E+01  0.18726384655E+02  0.00000000000E+00 0. -1.
         11    1    3    3    0    0  0.90067179963E+01 -0.33821555083E+01 -0.94203340743E+01  0.13464866850E+02  0.51100000000E-03 0. -1.
        -11    1    3    3    0    0 -0.38011436495E+02  0.64527220148E+01  0.26275679746E+01  0.38644676730E+02  0.51100000000E-03 0.  1.
         12    1    3    3    0    0  0.12571260091E+02 -0.27569235880E+01  0.15766090740E+02  0.20352071766E+02  0.00000000000E+00 0. -1.
</event>
<event>
 7    1  0.2932741E-013  0.7246159E+02  0.7816164E-02  0.1226708E+00
        -11   -1    0    0    0    0  0.00000000000E+00  0.00000000000E+00  0.45593999997E+02  0.45594000000E+02  0.51100000000E-03 0.  1.
         11   -1    0    0    0    0 -0.00000000000E+00 -0.00000000000E+00 -0.45593999997E+02  0.45594000000E+02  0.51100000000E-03 0. -1.
    9900012    2    1    2    0    0 -0.16733599531E+01 -0.47959542785E+01  0.18024349512E+02  0.72461588536E+02  0.70000023763E+02 0.  0.
         12    1    1    2    0    0  0.16733599531E+01  0.47959542785E+01 -0.18024349512E+02  0.18726411464E+02  0.00000000000E+00 0. -1.
         11    1    3    3    0    0  0.16161270203E+02  0.50616005723E+01  0.18185365561E+02  0.24849828485E+02  0.51100000000E-03 0. -1.
        -11    1    3    3    0    0 -0.20641243140E+02 -0.10595871640E+02  0.17909226467E+02  0.29309960885E+02  0.51100000000E-03 0.  1.
         12    1    3    3    0    0  0.28066129845E+01  0.73831678911E+00 -0.18070242515E+02  0.18301799165E+02  0.00000000000E+00 0. -1.
</event>
<event>
 7    1  0.2932741E-013  0.7246156E+02  0.7816164E-02  0.1226708E+00
        -11   -1    0    0    0    0  0.00000000000E+00  0.00000000000E+00  0.45593999997E+02  0.45594000000E+02  0.51100000000E-03 0.  1.
         11   -1    0    0    0    0 -0.00000000000E+00 -0.00000000000E+00 -0.45593999997E+02  0.45594000000E+02  0.51100000000E-03 0. -1.
    9900012    2    1    2    0    0  0.57446092497E+01 -0.10590547297E+02  0.14335949042E+02  0.72461557134E+02  0.69999982857E+02 0.  0.
         12    1    1    2    0    0 -0.57446092497E+01  0.10590547297E+02 -0.14335949042E+02  0.18726442866E+02  0.00000000000E+00 0. -1.
         11    1    3    3    0    0  0.77614881088E+01 -0.78095839545E+00 -0.21505765152E+02  0.22876812031E+02  0.51100000000E-03 0. -1.
        -11    1    3    3    0    0  0.46365961696E+01  0.48590734432E+01 -0.31343215931E+01  0.74116523716E+01  0.51100000000E-03 0.  1.
        -12    1    3    3    0    0 -0.66534750287E+01 -0.14668662344E+02  0.38976035787E+02  0.42173092732E+02  0.00000000000E+00 0.  1.
</event>
<event>
 7    1  0.2932741E-013  0.7246157E+02  0.7816164E-02  0.1226708E+00
        -11   -1    0    0    0    0  0.00000000000E+00  0.00000000000E+00  0.45593999997E+02  0.45594000000E+02  0.51100000000E-03 0.  1.
         11   -1    0    0    0    0 -0.00000000000E+00 -0.00000000000E+00 -0.45593999997E+02  0.45594000000E+02  0.51100000000E-03 0. -1.
    9900012    2    1    2    0    0 -0.15888270294E+02  0.99097155550E+01  0.19919134431E+00  0.72461567545E+02  0.69999996418E+02 0.  0.
         12    1    1    2    0    0  0.15888270294E+02 -0.99097155550E+01 -0.19919134431E+00  0.18726432455E+02  0.00000000000E+00 0. -1.
         11    1    3    3    0    0 -0.29916886225E+02  0.28871421343E+01 -0.22008304056E+02  0.37252129050E+02  0.51100000000E-03 0. -1.
        -11    1    3    3    0    0 -0.83222553298E+00  0.60102795308E+01 -0.23342493924E+01  0.65011368132E+01  0.51100000000E-03 0.  1.
        -12    1    3    3    0    0  0.14860841464E+02  0.10122938899E+01  0.24541744793E+02  0.28708301681E+02  0.00000000000E+00 0.  1.
</event>
<event>
 7    1  0.2932741E-013  0.7246157E+02  0.7816164E-02  0.1226708E+00
        -11   -1    0    0    0    0  0.00000000000E+00  0.00000000000E+00  0.45593999997E+02  0.45594000000E+02  0.51100000000E-03 0.  1.
         11   -1    0    0    0    0 -0.00000000000E+00 -0.00000000000E+00 -0.45593999997E+02  0.45594000000E+02  0.51100000000E-03 0. -1.
    9900012    2    1    2    0    0  0.81452027180E+01  0.16307489226E+02 -0.42895980419E+01  0.72461569920E+02  0.69999999512E+02 0.  0.
         12    1    1    2    0    0 -0.81452027180E+01 -0.16307489226E+02  0.42895980419E+01  0.18726430080E+02  0.00000000000E+00 0. -1.
         11    1    3    3    0    0  0.77535140891E+01 -0.17859681454E+02  0.14768880404E+02  0.24437778766E+02  0.51100000000E-03 0. -1.
        -11    1    3    3    0    0 -0.42200855435E+01  0.18073820239E-01  0.45863944263E+01  0.62325326115E+01  0.51100000000E-03 0.  1.
        -12    1    3    3    0    0  0.46117741725E+01  0.34149096860E+02 -0.23644872872E+02  0.41791258542E+02  0.00000000000E+00 0.  1.
</event>
<event>
 7    1  0.2932741E-013  0.7246153E+02  0.7816164E-02  0.1226708E+00
        -11   -1    0    0    0    0  0.00000000000E+00  0.00000000000E+00  0.45593999997E+02  0.45594000000E+02  0.51100000000E-03 0. -1.
         11   -1    0    0    0    0 -0.00000000000E+00 -0.00000000000E+00 -0.45593999997E+02  0.45594000000E+02  0.51100000000E-03 0.  1.
    9900012    2    1    2    0    0 -0.82788958298E+01  0.15741776401E+02 -0.58597888963E+01  0.72461527659E+02  0.69999944460E+02 0.  0.
         12    1    1    2    0    0  0.82788958298E+01 -0.15741776401E+02  0.58597888963E+01  0.18726472341E+02  0.00000000000E+00 0. -1.
         11    1    3    3    0    0  0.45714778822E+01  0.60650889480E+01  0.79176216857E+01  0.10971437800E+02  0.51100000000E-03 0. -1.
        -11    1    3    3    0    0 -0.90034396987E+01  0.26053740146E+02  0.12517272439E+02  0.30274434951E+02  0.51100000000E-03 0.  1.
         12    1    3    3    0    0 -0.38469340133E+01 -0.16377052694E+02 -0.26294683021E+02  0.31215654909E+02  0.00000000000E+00 0. -1.
</event>
<event>
 7    1  0.2932741E-013  0.7246146E+02  0.7816164E-02  0.1226708E+00
        -11   -1    0    0    0    0  0.00000000000E+00  0.00000000000E+00  0.45593999997E+02  0.45594000000E+02  0.51100000000E-03 0.  1.
         11   -1    0    0    0    0 -0.00000000000E+00 -0.00000000000E+00 -0.45593999997E+02  0.45594000000E+02  0.51100000000E-03 0. -1.
    9900012    2    1    2    0    0  0.18354989226E+02  0.33081342773E+01  0.16834760716E+01  0.72461455376E+02  0.69999850297E+02 0.  0.
         12    1    1    2    0    0 -0.18354989226E+02 -0.33081342773E+01 -0.16834760716E+01  0.18726544624E+02  0.00000000000E+00 0. -1.
         11    1    3    3    0    0  0.91250606563E+01  0.65368450300E+01 -0.69402917745E+01  0.13197148370E+02  0.51100000000E-03 0. -1.
        -11    1    3    3    0    0  0.16237451320E+02  0.15946133257E+02  0.24472667085E+02  0.33419237360E+02  0.51100000000E-03 0.  1.
         12    1    3    3    0    0 -0.70075227499E+01 -0.19174844010E+02 -0.15848899239E+02  0.25845069645E+02  0.00000000000E+00 0. -1.
</event>
<event>
 7    1  0.2932741E-013  0.7246160E+02  0.7816164E-02  0.1226708E+00
        -11   -1    0    0    0    0  0.00000000000E+00  0.00000000000E+00  0.45593999997E+02  0.45594000000E+02  0.51100000000E-03 0. -1.
         11   -1    0    0    0    0 -0.00000000000E+00 -0.00000000000E+00 -0.45593999997E+02  0.45594000000E+02  0.51100000000E-03 0.  1.
    9900012    2    1    2    0    0 -0.10812729605E+02 -0.14105517307E+02 -0.58989133332E+01  0.72461603696E+02  0.70000043512E+02 0.  0.
         12    1    1    2    0    0  0.10812729605E+02  0.14105517307E+02  0.58989133332E+01  0.18726396304E+02  0.00000000000E+00 0. -1.
         11    1    3    3    0    0  0.34409574003E+01 -0.22768041652E+01  0.22433877250E+02  0.22810148482E+02  0.51100000000E-03 0. -1.
        -11    1    3    3    0    0 -0.32101855510E+01 -0.17588726750E+01  0.88502087938E+01  0.95773232332E+01  0.51100000000E-03 0.  1.
        -12    1    3    3    0    0 -0.11043501455E+02 -0.10069840467E+02 -0.37182999377E+02  0.40074131981E+02  0.00000000000E+00 0.  1.
</event>
<event>
 7    1  0.2932741E-013  0.7246155E+02  0.7816164E-02  0.1226708E+00
        -11   -1    0    0    0    0  0.00000000000E+00  0.00000000000E+00  0.45593999997E+02  0.45594000000E+02  0.51100000000E-03 0. -1.
         11   -1    0    0    0    0 -0.00000000000E+00 -0.00000000000E+00 -0.45593999997E+02  0.45594000000E+02  0.51100000000E-03 0.  1.
    9900012    2    1    2    0    0  0.16704023070E+02  0.30650940683E+01 -0.78905471906E+01  0.72461550167E+02  0.69999973781E+02 0.  0.
         12    1    1    2    0    0 -0.16704023070E+02 -0.30650940683E+01  0.78905471906E+01  0.18726449833E+02  0.00000000000E+00 0. -1.
         11    1    3    3    0    0 -0.89431287421E+01 -0.97551290562E+00  0.23087950177E+01  0.92877183324E+01  0.51100000000E-03 0. -1.
        -11    1    3    3    0    0 -0.89529624940E+01  0.87227418347E+01 -0.22843244585E+02  0.26039500494E+02  0.51100000000E-03 0.  1.
         12    1    3    3    0    0  0.34600114306E+02 -0.46821348608E+01  0.12643902377E+02  0.37134331341E+02  0.00000000000E+00 0. -1.
</event>
<event>
 7    1  0.2932741E-013  0.7246124E+02  0.7816164E-02  0.1226709E+00
        -11   -1    0    0    0    0  0.00000000000E+00  0.00000000000E+00  0.45593999997E+02  0.45594000000E+02  0.51100000000E-03 0.  1.
         11   -1    0    0    0    0 -0.00000000000E+00 -0.00000000000E+00 -0.45593999997E+02  0.45594000000E+02  0.51100000000E-03 0. -1.
    9900012    2    1    2    0    0  0.10772294316E+02 -0.65504945968E+01  0.13847026032E+02  0.72461242827E+02  0.69999573411E+02 0.  0.
         12    1    1    2    0    0 -0.10772294316E+02  0.65504945968E+01 -0.13847026032E+02  0.18726757173E+02  0.00000000000E+00 0. -1.
         11    1    3    3    0    0  0.28187600033E+02 -0.12697000541E+02  0.27530164050E+02  0.41396431625E+02  0.51100000000E-03 0. -1.
        -11    1    3    3    0    0  0.48728037480E+01  0.12570859358E+01 -0.18560069281E+01  0.53636968030E+01  0.51100000000E-03 0.  1.
        -12    1    3    3    0    0 -0.22288109465E+02  0.48894200089E+01 -0.11827131090E+02  0.25701114399E+02  0.00000000000E+00 0.  1.
</event>
<event>
 7    1  0.2932741E-013  0.7246160E+02  0.7816164E-02  0.1226708E+00
        -11   -1    0    0    0    0  0.00000000000E+00  0.00000000000E+00  0.45593999997E+02  0.45594000000E+02  0.51100000000E-03 0. -1.
         11   -1    0    0    0    0 -0.00000000000E+00 -0.00000000000E+00 -0.45593999997E+02  0.45594000000E+02  0.51100000000E-03 0.  1.
    9900012    2    1    2    0    0 -0.56881226524E+01 -0.81801735348E+01 -0.15855854584E+02  0.72461598771E+02  0.70000037097E+02 0.  0.
         12    1    1    2    0    0  0.56881226524E+01  0.81801735348E+01  0.15855854584E+02  0.18726401229E+02  0.00000000000E+00 0. -1.
         11    1    3    3    0    0 -0.18739451788E+02 -0.36874498815E+00 -0.20872570801E+02  0.28052936358E+02  0.51100000000E-03 0. -1.
        -11    1    3    3    0    0  0.65626518936E+01  0.15225827657E+02 -0.65496602025E+01  0.17826729278E+02  0.51100000000E-03 0.  1.
         12    1    3    3    0    0  0.64886772418E+01 -0.23037256204E+02  0.11566376419E+02  0.26581933136E+02  0.00000000000E+00 0. -1.
</event>
<event>
 7    1  0.2932741E-013  0.7246154E+02  0.7816164E-02  0.1226708E+00
        -11   -1    0    0    0    0  0.00000000000E+00  0.00000000000E+00  0.45593999997E+02  0.45594000000E+02  0.51100000000E-03 0.  1.
         11   -1    0    0    0    0 -0.00000000000E+00 -0.00000000000E+00 -0.45593999997E+02  0.45594000000E+02  0.51100000000E-03 0. -1.
    9900012    2    1    2    0    0  0.17026734004E+02  0.93964447455E-01  0.77949952207E+01  0.72461536088E+02  0.69999955440E+02 0.  0.
         12    1    1    2    0    0 -0.17026734004E+02 -0.93964447455E-01 -0.77949952207E+01  0.18726463912E+02  0.00000000000E+00 0. -1.
         11    1    3    3    0    0 -0.68583858524E+00  0.25880787154E+01 -0.10714692574E+02  0.11044146106E+02  0.51100000000E-03 0. -1.
        -11    1    3    3    0    0  0.30510060615E+02  0.17154735023E+02  0.92265462774E+01  0.36197760828E+02  0.51100000000E-03 0.  1.
        -12    1    3    3    0    0 -0.12797488026E+02 -0.19648849291E+02  0.92831415171E+01  0.25219629154E+02  0.00000000000E+00 0.  1.
</event>
<event>
 7    1  0.2932741E-013  0.7246143E+02  0.7816164E-02  0.1226708E+00
        -11   -1    0    0    0    0  0.00000000000E+00  0.00000000000E+00  0.45593999997E+02  0.45594000000E+02  0.51100000000E-03 0.  1.
         11   -1    0    0    0    0 -0.00000000000E+00 -0.00000000000E+00 -0.45593999997E+02  0.45594000000E+02  0.51100000000E-03 0. -1.
    9900012    2    1    2    0    0 -0.13982994143E+02  0.12453512902E+02 -0.26504640500E+00  0.72461431750E+02  0.69999819520E+02 0.  0.
         12    1    1    2    0    0  0.13982994143E+02 -0.12453512902E+02  0.26504640500E+00  0.18726568250E+02  0.00000000000E+00 0. -1.
         11    1    3    3    0    0 -0.96945683587E+01  0.25262238979E+02 -0.38024502868E+01  0.27324421355E+02  0.51100000000E-03 0. -1.
        -11    1    3    3    0    0 -0.18051795856E+02 -0.28925233525E+01  0.15833777081E+02  0.24185585002E+02  0.51100000000E-03 0.  1.
         12    1    3    3    0    0  0.13763370071E+02 -0.99162027248E+01 -0.12296373199E+02  0.20951425394E+02  0.00000000000E+00 0. -1.
</event>
<event>
 7    1  0.2932741E-013  0.7246197E+02  0.7816164E-02  0.1226707E+00
        -11   -1    0    0    0    0  0.00000000000E+00  0.00000000000E+00  0.45593999997E+02  0.45594000000E+02  0.51100000000E-03 0. -1.
         11   -1    0    0    0    0 -0.00000000000E+00 -0.00000000000E+00 -0.45593999997E+02  0.45594000000E+02  0.51100000000E-03 0.  1.
    9900012    2    1    2    0    0  0.18095404445E+01  0.18626395077E+02  0.66869267107E+00  0.72461970521E+02  0.70000521367E+02 0.  0.
         12    1    1    2    0    0 -0.18095404445E+01 -0.18626395077E+02 -0.66869267107E+00  0.18726029479E+02  0.00000000000E+00 0. -1.
         11    1    3    3    0    0 -0.10797583506E+02 -0.17006959004E+02 -0.12384795986E+02  0.23647571461E+02  0.51100000000E-03 0. -1.
        -11    1    3    3    0    0 -0.62114409765E+01  0.14347510176E+02 -0.33755509007E+01  0.15994605072E+02  0.51100000000E-03 0.  1.
        -12    1    3    3    0    0  0.18818564927E+02  0.21285843904E+02  0.16429039557E+02  0.32819793988E+02  0.00000000000E+00 0.  1.
</event>
<event>
 7    1  0.2932741E-013  0.7246158E+02  0.7816164E-02  0.1226708E+00
        -11   -1    0    0    0    0  0.00000000000E+00  0.00000000000E+00  0.45593999997E+02  0.45594000000E+02  0.51100000000E-03 0.  1.
         11   -1    0    0    0    0 -0.00000000000E+00 -0.00000000000E+00 -0.45593999997E+02  0.45594000000E+02  0.51100000000E-03 0. -1.
    9900012    2    1    2    0    0 -0.89867812138E+01  0.88081539466E+01  0.13868421646E+02  0.72461576650E+02  0.70000008279E+02 0.  0.
         12    1    1    2    0    0  0.89867812138E+01 -0.88081539466E+01 -0.13868421646E+02  0.18726423350E+02  0.00000000000E+00 0. -1.
         11    1    3    3    0    0  0.48739984334E+01  0.49915341860E+01  0.50875665713E+01  0.86345010358E+01  0.51100000000E-03 0. -1.
        -11    1    3    3    0    0  0.66392755871E+01 -0.19128811008E+01  0.31760794772E+02  0.32503648707E+02  0.51100000000E-03 0.  1.
         12    1    3    3    0    0 -0.20500055234E+02  0.57295008614E+01 -0.22979939697E+02  0.31323426907E+02  0.00000000000E+00 0. -1.
</event>
<event>
 7    1  0.2932741E-013  0.7246156E+02  0.7816164E-02  0.1226708E+00
        -11   -1    0    0    0    0  0.00000000000E+00  0.00000000000E+00  0.45593999997E+02  0.45594000000E+02  0.51100000000E-03 0. -1.
         11   -1    0    0    0    0 -0.00000000000E+00 -0.00000000000E+00 -0.45593999997E+02  0.45594000000E+02  0.51100000000E-03 0.  1.
    9900012    2    1    2    0    0  0.33062808983E+01  0.29452348350E+01 -0.18195431353E+02  0.72461558167E+02  0.69999984201E+02 0.  0.
         12    1    1    2    0    0 -0.33062808983E+01 -0.29452348350E+01  0.18195431353E+02  0.18726441833E+02  0.00000000000E+00 0. -1.
         11    1    3    3    0    0 -0.10515387381E+02 -0.54916312505E+01 -0.10619599022E+02  0.15921911607E+02  0.51100000000E-03 0.  1.
        -11    1    3    3    0    0 -0.78760850557E+01 -0.10422868271E+02  0.15069065348E+02  0.19943561104E+02  0.51100000000E-03 0. -1.
        -12    1    3    3    0    0  0.21697753335E+02  0.18859734356E+02 -0.22644897679E+02  0.36596085455E+02  0.00000000000E+00 0.  1.
</event>
<event>
 7    1  0.2932741E-013  0.7246157E+02  0.7816164E-02  0.1226708E+00
        -11   -1    0    0    0    0  0.00000000000E+00  0.00000000000E+00  0.45593999997E+02  0.45594000000E+02  0.51100000000E-03 0.  1.
         11   -1    0    0    0    0 -0.00000000000E+00 -0.00000000000E+00 -0.45593999997E+02  0.45594000000E+02  0.51100000000E-03 0. -1.
    9900012    2    1    2    0    0  0.95826115410E+01 -0.12889595139E+01  0.16037185406E+02  0.72461570113E+02  0.69999999764E+02 0.  0.
         12    1    1    2    0    0 -0.95826115410E+01  0.12889595139E+01 -0.16037185406E+02  0.18726429887E+02  0.00000000000E+00 0. -1.
         11    1    3    3    0    0 -0.38046329570E+01  0.49949050675E+01  0.33544187809E+02  0.34126776065E+02  0.51100000000E-03 0. -1.
        -11    1    3    3    0    0  0.77907422911E+01 -0.19168481329E+01  0.83151147682E+01  0.11554700605E+02  0.51100000000E-03 0.  1.
        -12    1    3    3    0    0  0.55965022069E+01 -0.43670164485E+01 -0.25822117171E+02  0.26780093443E+02  0.00000000000E+00 0.  1.
</event>
<event>
 7    1  0.2932741E-013  0.7246161E+02  0.7816164E-02  0.1226708E+00
        -11   -1    0    0    0    0  0.00000000000E+00  0.00000000000E+00  0.45593999997E+02  0.45594000000E+02  0.51100000000E-03 0.  1.
         11   -1    0    0    0    0 -0.00000000000E+00 -0.00000000000E+00 -0.45593999997E+02  0.45594000000E+02  0.51100000000E-03 0. -1.
    9900012    2    1    2    0    0  0.80804152634E+01 -0.14118012187E+02  0.92771852637E+01  0.72461613660E+02  0.70000056492E+02 0.  0.
         12    1    1    2    0    0 -0.80804152634E+01  0.14118012187E+02 -0.92771852637E+01  0.18726386340E+02  0.00000000000E+00 0. -1.
         11    1    3    3    0    0  0.21670672423E+02 -0.36747483970E+01  0.12549013399E+02  0.25310068285E+02  0.51100000000E-03 0. -1.
        -11    1    3    3    0    0 -0.20204071817E+01 -0.26869827606E+02 -0.18288400496E+01  0.27007671817E+02  0.51100000000E-03 0.  1.
         12    1    3    3    0    0 -0.11569849977E+02  0.16426563816E+02 -0.14429880858E+01  0.20143873558E+02  0.00000000000E+00 0. -1.
</event>
<event>
 7    1  0.2932741E-013  0.7246157E+02  0.7816164E-02  0.1226708E+00
        -11   -1    0    0    0    0  0.00000000000E+00  0.00000000000E+00  0.45593999997E+02  0.45594000000E+02  0.51100000000E-03 0.  1.
         11   -1    0    0    0    0 -0.00000000000E+00 -0.00000000000E+00 -0.45593999997E+02  0.45594000000E+02  0.51100000000E-03 0. -1.
    9900012    2    1    2    0    0 -0.28308222633E+00  0.40305499085E+01  0.18285345735E+02  0.72461565829E+02  0.69999994183E+02 0.  0.
         12    1    1    2    0    0  0.28308222633E+00 -0.40305499085E+01 -0.18285345735E+02  0.18726434171E+02  0.00000000000E+00 0. -1.
         11    1    3    3    0    0 -0.18214177877E+02 -0.23675046438E+02  0.98911109601E+01  0.31465825523E+02  0.51100000000E-03 0. -1.
        -11    1    3    3    0    0 -0.46011968863E+01  0.29181748292E+00  0.45389345251E+00  0.46327302703E+01  0.51100000000E-03 0.  1.
        -12    1    3    3    0    0  0.22532292537E+02  0.27413778863E+02  0.79403413226E+01  0.36363010036E+02  0.00000000000E+00 0.  1.
</event>
<event>
 7    1  0.2932741E-013  0.7246168E+02  0.7816164E-02  0.1226708E+00
        -11   -1    0    0    0    0  0.00000000000E+00  0.00000000000E+00  0.45593999997E+02  0.45594000000E+02  0.51100000000E-03 0.  1.
         11   -1    0    0    0    0 -0.00000000000E+00 -0.00000000000E+00 -0.45593999997E+02  0.45594000000E+02  0.51100000000E-03 0. -1.
    9900012    2    1    2    0    0 -0.14211145119E+02  0.56932938575E+01  0.10784470069E+02  0.72461680681E+02  0.70000143799E+02 0.  0.
         12    1    1    2    0    0  0.14211145119E+02 -0.56932938575E+01 -0.10784470069E+02  0.18726319319E+02  0.00000000000E+00 0. -1.
         11    1    3    3    0    0  0.22504363414E+02  0.60539784842E+01 -0.73562916356E+01  0.24437922478E+02  0.51100000000E-03 0. -1.
        -11    1    3    3    0    0  0.37136988801E+01  0.14492333262E+01  0.19135422083E+01  0.44219317781E+01  0.51100000000E-03 0.  1.
        -12    1    3    3    0    0 -0.40429207413E+02 -0.18099179528E+01  0.16227219497E+02  0.43601826425E+02  0.00000000000E+00 0.  1.
</event>
<event>
 7    1  0.3332511E-013  0.7246148E+02  0.7816164E-02  0.1226708E+00
        -11   -1    0    0    0    0  0.00000000000E+00  0.00000000000E+00  0.45593999997E+02  0.45594000000E+02  0.51100000000E-03 0. -1.
         11   -1    0    0    0    0 -0.00000000000E+00 -0.00000000000E+00 -0.45593999997E+02  0.45594000000E+02  0.51100000000E-03 0.  1.
    9900012    2    1    2    0    0 -0.10561752833E+02 -0.12195822976E+01 -0.15415726383E+02  0.72461478065E+02  0.69999879853E+02 0.  0.
         12    1    1    2    0    0  0.10561752833E+02  0.12195822976E+01  0.15415726383E+02  0.18726521935E+02  0.00000000000E+00 0. -1.
         11    1    3    3    0    0 -0.46769459255E+01  0.27759469990E+02  0.27960840714E+01  0.28289222041E+02  0.51100000000E-03 0. -1.
        -11    1    3    3    0    0 -0.12244708897E+02 -0.54707767892E+01 -0.14126278933E+02  0.19478553627E+02  0.51100000000E-03 0.  1.
        -12    1    3    3    0    0  0.63599019896E+01 -0.23508275498E+02 -0.40855315218E+01  0.24693702396E+02  0.00000000000E+00 0.  1.
</event>
<event>
 7    1  0.2932741E-013  0.7246157E+02  0.7816164E-02  0.1226708E+00
        -11   -1    0    0    0    0  0.00000000000E+00  0.00000000000E+00  0.45593999997E+02  0.45594000000E+02  0.51100000000E-03 0.  1.
         11   -1    0    0    0    0 -0.00000000000E+00 -0.00000000000E+00 -0.45593999997E+02  0.45594000000E+02  0.51100000000E-03 0. -1.
    9900012    2    1    2    0    0  0.12594609211E+02  0.42765557033E+01  0.13182031391E+02  0.72461573179E+02  0.70000003758E+02 0.  0.
         12    1    1    2    0    0 -0.12594609211E+02 -0.42765557033E+01 -0.13182031391E+02  0.18726426821E+02  0.00000000000E+00 0. -1.
         11    1    3    3    0    0 -0.42901777030E+01 -0.36623752449E+01 -0.56836415013E+01  0.80076462294E+01  0.51100000000E-03 0. -1.
        -11    1    3    3    0    0  0.84076629294E+01 -0.25082613619E+02  0.23114200913E+01  0.26555017699E+02  0.51100000000E-03 0.  1.
         12    1    3    3    0    0  0.84771239851E+01  0.33021544567E+02  0.16554252801E+02  0.37898909251E+02  0.00000000000E+00 0. -1.
</event>
<event>
 7    1  0.2932741E-013  0.7246154E+02  0.7816164E-02  0.1226708E+00
        -11   -1    0    0    0    0  0.00000000000E+00  0.00000000000E+00  0.45593999997E+02  0.45594000000E+02  0.51100000000E-03 0. -1.
         11   -1    0    0    0    0 -0.00000000000E+00 -0.00000000000E+00 -0.45593999997E+02  0.45594000000E+02  0.51100000000E-03 0.  1.
    9900012    2    1    2    0    0 -0.23728930711E+01  0.88346370217E+01 -0.16340102050E+02  0.72461538299E+02  0.69999958320E+02 0.  0.
         12    1    1    2    0    0  0.23728930711E+01 -0.88346370217E+01  0.16340102050E+02  0.18726461701E+02  0.00000000000E+00 0. -1.
         11    1    3    3    0    0 -0.51591573958E+01 -0.39525448636E-01 -0.88205765795E+01  0.10218661299E+02  0.51100000000E-03 0. -1.
        -11    1    3    3    0    0  0.16957871742E+02 -0.88402274116E+01 -0.26489328293E+02  0.32671142441E+02  0.51100000000E-03 0.  1.
         12    1    3    3    0    0 -0.14171607418E+02  0.17714389882E+02  0.18969802822E+02  0.29571734559E+02  0.00000000000E+00 0. -1.
</event>
<event>
 7    1  0.2932741E-013  0.7246156E+02  0.7816164E-02  0.1226708E+00
        -11   -1    0    0    0    0  0.00000000000E+00  0.00000000000E+00  0.45593999997E+02  0.45594000000E+02  0.51100000000E-03 0.  1.
         11   -1    0    0    0    0 -0.00000000000E+00 -0.00000000000E+00 -0.45593999997E+02  0.45594000000E+02  0.51100000000E-03 0. -1.
    9900012    2    1    2    0    0 -0.11753449748E+02 -0.19834817546E+01  0.14443057580E+02  0.72461556314E+02  0.69999981788E+02 0.  0.
         12    1    1    2    0    0  0.11753449748E+02  0.19834817546E+01 -0.14443057580E+02  0.18726443686E+02  0.00000000000E+00 0. -1.
         11    1    3    3    0    0 -0.55454145653E+01 -0.13018439481E+02 -0.54510170904E+01  0.15163936719E+02  0.51100000000E-03 0. -1.
        -11    1    3    3    0    0 -0.23379812834E+02  0.23623551746E+01 -0.67364704154E+01  0.24445375923E+02  0.51100000000E-03 0.  1.
        -12    1    3    3    0    0  0.17171777651E+02  0.86726025520E+01  0.26630545086E+02  0.32852243672E+02  0.00000000000E+00 0.  1.
</event>
<event>
 7    1  0.2932741E-013  0.7246169E+02  0.7816164E-02  0.1226708E+00
        -11   -1    0    0    0    0  0.00000000000E+00  0.00000000000E+00  0.45593999997E+02  0.45594000000E+02  0.51100000000E-03 0.  1.
         11   -1    0    0    0    0 -0.00000000000E+00 -0.00000000000E+00 -0.45593999997E+02  0.45594000000E+02  0.51100000000E-03 0. -1.
    9900012    2    1    2    0    0  0.54109580525E+01 -0.17920358080E+02  0.50699556037E+00  0.72461688423E+02  0.70000153885E+02 0.  0.
         12    1    1    2    0    0 -0.54109580525E+01  0.17920358080E+02 -0.50699556037E+00  0.18726311577E+02  0.00000000000E+00 0. -1.
         11    1    3    3    0    0  0.92166677736E+00 -0.32687751277E+01 -0.22208750235E+02  0.22466930092E+02  0.51100000000E-03 0. -1.
        -11    1    3    3    0    0 -0.18020971970E+02 -0.10181842301E+02  0.58346599000E+01  0.21505083116E+02  0.51100000000E-03 0.  1.
        -12    1    3    3    0    0  0.22510263246E+02 -0.44697406509E+01  0.16881085896E+02  0.28489675216E+02  0.00000000000E+00 0.  1.
</event>
<event>
 7    1  0.2932741E-013  0.7246156E+02  0.7816164E-02  0.1226708E+00
        -11   -1    0    0    0    0  0.00000000000E+00  0.00000000000E+00  0.45593999997E+02  0.45594000000E+02  0.51100000000E-03 0.  1.
         11   -1    0    0    0    0 -0.00000000000E+00 -0.00000000000E+00 -0.45593999997E+02  0.45594000000E+02  0.51100000000E-03 0. -1.
    9900012    2    1    2    0    0 -0.58468075100E+01  0.12255323965E+02  0.12895786954E+02  0.72461562947E+02  0.69999990429E+02 0.  0.
         12    1    1    2    0    0  0.58468075100E+01 -0.12255323965E+02 -0.12895786954E+02  0.18726437053E+02  0.00000000000E+00 0. -1.
         11    1    3    3    0    0  0.14280903470E+02  0.65996278972E+01  0.27066993276E+02  0.31306890896E+02  0.51100000000E-03 0. -1.
        -11    1    3    3    0    0 -0.67609008594E+01  0.15018407111E+02  0.37756444705E+01  0.16897272680E+02  0.51100000000E-03 0.  1.
        -12    1    3    3    0    0 -0.13366810121E+02 -0.93627110440E+01 -0.17946850792E+02  0.24257399371E+02  0.00000000000E+00 0.  1.
</event>
<event>
 7    1  0.2932741E-013  0.7246164E+02  0.7816164E-02  0.1226708E+00
        -11   -1    0    0    0    0  0.00000000000E+00  0.00000000000E+00  0.45593999997E+02  0.45594000000E+02  0.51100000000E-03 0.  1.
         11   -1    0    0    0    0 -0.00000000000E+00 -0.00000000000E+00 -0.45593999997E+02  0.45594000000E+02  0.51100000000E-03 0. -1.
    9900012    2    1    2    0    0 -0.96306091899E+01 -0.32528129085E-01  0.16060107434E+02  0.72461635103E+02  0.70000084425E+02 0.  0.
         12    1    1    2    0    0  0.96306091899E+01  0.32528129085E-01 -0.16060107434E+02  0.18726364897E+02  0.00000000000E+00 0. -1.
         11    1    3    3    0    0 -0.77316077435E+01 -0.24213944179E+02 -0.31189584202E+00  0.25420270067E+02  0.51100000000E-03 0. -1.
        -11    1    3    3    0    0 -0.17991400965E+02  0.45408632178E+01  0.88590112312E+01  0.20561907200E+02  0.51100000000E-03 0.  1.
        -12    1    3    3    0    0  0.16092399519E+02  0.19640552832E+02  0.75129920453E+01  0.26479457836E+02  0.00000000000E+00 0.  1.
</event>
<event>
 7    1  0.2932741E-013  0.7246158E+02  0.7816164E-02  0.1226708E+00
        -11   -1    0    0    0    0  0.00000000000E+00  0.00000000000E+00  0.45593999997E+02  0.45594000000E+02  0.51100000000E-03 0. -1.
         11   -1    0    0    0    0 -0.00000000000E+00 -0.00000000000E+00 -0.45593999997E+02  0.45594000000E+02  0.51100000000E-03 0.  1.
    9900012    2    1    2    0    0 -0.13286980905E+02  0.12348109747E+02  0.46539512783E+01  0.72461576466E+02  0.70000008039E+02 0.  0.
         12    1    1    2    0    0  0.13286980905E+02 -0.12348109747E+02 -0.46539512783E+01  0.18726423534E+02  0.00000000000E+00 0. -1.
         11    1    3    3    0    0 -0.14984034649E+02 -0.18103437210E+02  0.45921595429E+01  0.23944595689E+02  0.51100000000E-03 0. -1.
        -11    1    3    3    0    0 -0.12335307346E+02  0.30747322817E+02  0.52707786616E+01  0.33546069452E+02  0.51100000000E-03 0.  1.
         12    1    3    3    0    0  0.14032361089E+02 -0.29577586057E+00 -0.52089869261E+01  0.14970911325E+02  0.00000000000E+00 0. -1.
</event>
<event>
 7    1  0.2932741E-013  0.7246154E+02  0.7816164E-02  0.1226708E+00
        -11   -1    0    0    0    0  0.00000000000E+00  0.00000000000E+00  0.45593999997E+02  0.45594000000E+02  0.51100000000E-03 0.  1.
         11   -1    0    0    0    0 -0.00000000000E+00 -0.00000000000E+00 -0.45593999997E+02  0.45594000000E+02  0.51100000000E-03 0. -1.
    9900012    2    1    2    0    0  0.23170817525E+01  0.18445508784E+02  0.22527003349E+01  0.72461539551E+02  0.69999959951E+02 0.  0.
         12    1    1    2    0    0 -0.23170817525E+01 -0.18445508784E+02 -0.22527003349E+01  0.18726460449E+02  0.00000000000E+00 0. -1.
         11    1    3    3    0    0 -0.20609142292E+01 -0.75076001152E+01  0.25762871768E+02  0.26913509413E+02  0.51100000000E-03 0. -1.
        -11    1    3    3    0    0  0.48535738453E+01  0.42142183052E+00  0.51992311461E+01  0.71250810664E+01  0.51100000000E-03 0.  1.
        -12    1    3    3    0    0 -0.47557786358E+00  0.25531687069E+02 -0.28709402579E+02  0.38422949071E+02  0.00000000000E+00 0.  1.
</event>
<event>
 7    1  0.2932741E-013  0.7246161E+02  0.7816164E-02  0.1226708E+00
        -11   -1    0    0    0    0  0.00000000000E+00  0.00000000000E+00  0.45593999997E+02  0.45594000000E+02  0.51100000000E-03 0.  1.
         11   -1    0    0    0    0 -0.00000000000E+00 -0.00000000000E+00 -0.45593999997E+02  0.45594000000E+02  0.51100000000E-03 0. -1.
    9900012    2    1    2    0    0  0.54992003054E+01  0.14815824713E+02  0.10046276243E+02  0.72461614009E+02  0.70000056947E+02 0.  0.
         12    1    1    2    0    0 -0.54992003054E+01 -0.14815824713E+02 -0.10046276243E+02  0.18726385991E+02  0.00000000000E+00 0. -1.
         11    1    3    3    0    0  0.95273929040E+01  0.98571397471E+01  0.17994566527E+02  0.22621645482E+02  0.51100000000E-03 0. -1.
        -11    1    3    3    0    0 -0.13967209894E+02  0.13216152212E+02  0.14401248818E+02  0.24023854797E+02  0.51100000000E-03 0.  1.
         12    1    3    3    0    0  0.99390172952E+01 -0.82574672461E+01 -0.22349539102E+02  0.25816113731E+02  0.00000000000E+00 0. -1.
</event>
<event>
 7    1  0.2932741E-013  0.7246154E+02  0.7816164E-02  0.1226708E+00
        -11   -1    0    0    0    0  0.00000000000E+00  0.00000000000E+00  0.45593999997E+02  0.45594000000E+02  0.51100000000E-03 0.  1.
         11   -1    0    0    0    0 -0.00000000000E+00 -0.00000000000E+00 -0.45593999997E+02  0.45594000000E+02  0.51100000000E-03 0. -1.
    9900012    2    1    2    0    0 -0.48362320975E+01 -0.11582403868E+01  0.18054070618E+02  0.72461544714E+02  0.69999966677E+02 0.  0.
         12    1    1    2    0    0  0.48362320975E+01  0.11582403868E+01 -0.18054070618E+02  0.18726455286E+02  0.00000000000E+00 0. -1.
         11    1    3    3    0    0 -0.50094741247E+01 -0.84694104790E+01  0.62822517074E+01  0.11674434960E+02  0.51100000000E-03 0. -1.
        -11    1    3    3    0    0 -0.22397440270E+02  0.22879587454E+01  0.25404144409E+02  0.33944817562E+02  0.51100000000E-03 0.  1.
         12    1    3    3    0    0  0.22570682298E+02  0.50232113469E+01 -0.13632325498E+02  0.26842292192E+02  0.00000000000E+00 0. -1.
</event>
<event>
 7    1  0.2932741E-013  0.7246157E+02  0.7816164E-02  0.1226708E+00
        -11   -1    0    0    0    0  0.00000000000E+00  0.00000000000E+00  0.45593999997E+02  0.45594000000E+02  0.51100000000E-03 0.  1.
         11   -1    0    0    0    0 -0.00000000000E+00 -0.00000000000E+00 -0.45593999997E+02  0.45594000000E+02  0.51100000000E-03 0. -1.
    9900012    2    1    2    0    0 -0.10927772047E+02 -0.30170109929E+01  0.14905051584E+02  0.72461571617E+02  0.70000001723E+02 0.  0.
         12    1    1    2    0    0  0.10927772047E+02  0.30170109929E+01 -0.14905051584E+02  0.18726428383E+02  0.00000000000E+00 0. -1.
         11    1    3    3    0    0 -0.57929992372E+01  0.48143577778E+01 -0.12976598078E+01  0.76433501956E+01  0.51100000000E-03 0. -1.
        -11    1    3    3    0    0 -0.32369338476E+02 -0.10762626060E+02  0.15367913135E+02  0.37413646540E+02  0.51100000000E-03 0.  1.
         12    1    3    3    0    0  0.27234565666E+02  0.29312572890E+01  0.83479825705E+00  0.27404574881E+02  0.00000000000E+00 0. -1.
</event>
<event>
 7    1  0.2932741E-013  0.7246175E+02  0.7816164E-02  0.1226708E+00
        -11   -1    0    0    0    0  0.00000000000E+00  0.00000000000E+00  0.45593999997E+02  0.45594000000E+02  0.51100000000E-03 0. -1.
         11   -1    0    0    0    0 -0.00000000000E+00 -0.00000000000E+00 -0.45593999997E+02  0.45594000000E+02  0.51100000000E-03 0.  1.
    9900012    2    1    2    0    0  0.62836504180E+01 -0.16669900488E+02 -0.57708286358E+01  0.72461753500E+02  0.70000238659E+02 0.  0.
         12    1    1    2    0    0 -0.62836504180E+01  0.16669900488E+02  0.57708286358E+01  0.18726246500E+02  0.00000000000E+00 0. -1.
         11    1    3    3    0    0  0.36131036208E+01 -0.52372919383E+01  0.44587858953E+01  0.77694605053E+01  0.51100000000E-03 0. -1.
        -11    1    3    3    0    0 -0.34822230616E+01 -0.24682009433E+02 -0.30699247643E+02  0.39544547958E+02  0.51100000000E-03 0.  1.
         12    1    3    3    0    0  0.61527698588E+01  0.13249400884E+02  0.20469633111E+02  0.25147745037E+02  0.00000000000E+00 0. -1.
</event>
<event>
 7    1  0.2932741E-013  0.7246156E+02  0.7816164E-02  0.1226708E+00
        -11   -1    0    0    0    0  0.00000000000E+00  0.00000000000E+00  0.45593999997E+02  0.45594000000E+02  0.51100000000E-03 0.  1.
         11   -1    0    0    0    0 -0.00000000000E+00 -0.00000000000E+00 -0.45593999997E+02  0.45594000000E+02  0.51100000000E-03 0. -1.
    9900012    2    1    2    0    0  0.47069342863E+01 -0.17701443143E+02  0.38965586482E+01  0.72461561764E+02  0.69999988887E+02 0.  0.
         12    1    1    2    0    0 -0.47069342863E+01  0.17701443143E+02 -0.38965586482E+01  0.18726438236E+02  0.00000000000E+00 0. -1.
         11    1    3    3    0    0  0.14725513132E+02 -0.56130587020E+01 -0.10359085696E+02  0.18858892378E+02  0.51100000000E-03 0. -1.
        -11    1    3    3    0    0 -0.18204060768E+02 -0.26309676710E+02  0.18087442016E+02  0.36752448571E+02  0.51100000000E-03 0.  1.
         12    1    3    3    0    0  0.81854819217E+01  0.14221292269E+02 -0.38317976720E+01  0.16850220815E+02  0.00000000000E+00 0. -1.
</event>
<event>
 7    1  0.2932741E-013  0.7246158E+02  0.7816164E-02  0.1226708E+00
        -11   -1    0    0    0    0  0.00000000000E+00  0.00000000000E+00  0.45593999997E+02  0.45594000000E+02  0.51100000000E-03 0.  1.
         11   -1    0    0    0    0 -0.00000000000E+00 -0.00000000000E+00 -0.45593999997E+02  0.45594000000E+02  0.51100000000E-03 0. -1.
    9900012    2    1    2    0    0 -0.54203325447E+01 -0.17544882490E+02 -0.36709653227E+01  0.72461577680E+02  0.70000009622E+02 0.  0.
         12    1    1    2    0    0  0.54203325447E+01  0.17544882490E+02  0.36709653227E+01  0.18726422320E+02  0.00000000000E+00 0. -1.
         11    1    3    3    0    0  0.91829852839E+01  0.28345592299E+01  0.26981275086E+02  0.28641772820E+02  0.51100000000E-03 0. -1.
        -11    1    3    3    0    0  0.44825140051E+01 -0.48564606949E+01 -0.80124363866E+01  0.10386398769E+02  0.51100000000E-03 0.  1.
         12    1    3    3    0    0 -0.19085831834E+02 -0.15522981025E+02 -0.22639804022E+02  0.33433406091E+02  0.00000000000E+00 0. -1.
</event>
<event>
 7    1  0.2932741E-013  0.7246158E+02  0.7816164E-02  0.1226708E+00
        -11   -1    0    0    0    0  0.00000000000E+00  0.00000000000E+00  0.45593999997E+02  0.45594000000E+02  0.51100000000E-03 0. -1.
         11   -1    0    0    0    0 -0.00000000000E+00 -0.00000000000E+00 -0.45593999997E+02  0.45594000000E+02  0.51100000000E-03 0.  1.
    9900012    2    1    2    0    0  0.14780410425E+02 -0.89922343837E+01  0.71664413488E+01  0.72461583014E+02  0.70000016570E+02 0.  0.
         12    1    1    2    0    0 -0.14780410425E+02  0.89922343837E+01 -0.71664413488E+01  0.18726416986E+02  0.00000000000E+00 0. -1.
         11    1    3    3    0    0 -0.37530009222E+01 -0.52395467133E+01  0.17397601804E+02  0.18553016317E+02  0.51100000000E-03 0. -1.
        -11    1    3    3    0    0 -0.86849887307E+01 -0.86220258393E+01  0.12956392970E+02  0.17822358932E+02  0.51100000000E-03 0.  1.
        -12    1    3    3    0    0  0.27218400078E+02  0.48693381690E+01 -0.23187553426E+02  0.36086207765E+02  0.00000000000E+00 0.  1.
</event>
<event>
 7    1  0.2932741E-013  0.7246155E+02  0.7816164E-02  0.1226708E+00
        -11   -1    0    0    0    0  0.00000000000E+00  0.00000000000E+00  0.45593999997E+02  0.45594000000E+02  0.51100000000E-03 0.  1.
         11   -1    0    0    0    0 -0.00000000000E+00 -0.00000000000E+00 -0.45593999997E+02  0.45594000000E+02  0.51100000000E-03 0. -1.
    9900012    2    1    2    0    0 -0.98318140490E+01  0.96325934891E+01  0.12697581290E+02  0.72461548242E+02  0.69999971273E+02 0.  0.
         12    1    1    2    0    0  0.98318140490E+01 -0.96325934891E+01 -0.12697581290E+02  0.18726451758E+02  0.00000000000E+00 0. -1.
         11    1    3    3    0    0 -0.14179844615E+02 -0.13294313421E+02 -0.13675662484E+02  0.23766163074E+02  0.51100000000E-03 0. -1.
        -11    1    3    3    0    0 -0.82743771663E+01 -0.49365100754E+01  0.26724049458E+01  0.99988098127E+01  0.51100000000E-03 0.  1.
        -12    1    3    3    0    0  0.12622407732E+02  0.27863416985E+02  0.23700838828E+02  0.38696575355E+02  0.00000000000E+00 0.  1.
</event>
<event>
 7    1  0.2932741E-013  0.7246156E+02  0.7816164E-02  0.1226708E+00
        -11   -1    0    0    0    0  0.00000000000E+00  0.00000000000E+00  0.45593999997E+02  0.45594000000E+02  0.51100000000E-03 0.  1.
         11   -1    0    0    0    0 -0.00000000000E+00 -0.00000000000E+00 -0.45593999997E+02  0.45594000000E+02  0.51100000000E-03 0. -1.
    9900012    2    1    2    0    0  0.17328257564E+02  0.64054318913E+01 -0.30629018059E+01  0.72461563196E+02  0.69999990753E+02 0.  0.
         12    1    1    2    0    0 -0.17328257564E+02 -0.64054318913E+01  0.30629018059E+01  0.18726436804E+02  0.00000000000E+00 0. -1.
         11    1    3    3    0    0  0.59535909844E+01  0.60584246020E+01 -0.18521907868E+02  0.20376722641E+02  0.51100000000E-03 0. -1.
        -11    1    3    3    0    0 -0.10266873573E+02  0.18600089146E+02  0.44384461732E+01  0.21704188856E+02  0.51100000000E-03 0.  1.
        -12    1    3    3    0    0  0.21641540152E+02 -0.18253081857E+02  0.11020559888E+02  0.30380651699E+02  0.00000000000E+00 0.  1.
</event>
<event>
 7    1  0.2932741E-013  0.7246178E+02  0.7816164E-02  0.1226707E+00
        -11   -1    0    0    0    0  0.00000000000E+00  0.00000000000E+00  0.45593999997E+02  0.45594000000E+02  0.51100000000E-03 0.  1.
         11   -1    0    0    0    0 -0.00000000000E+00 -0.00000000000E+00 -0.45593999997E+02  0.45594000000E+02  0.51100000000E-03 0. -1.
    9900012    2    1    2    0    0 -0.16152482675E+02 -0.23150258874E+01 -0.91874490957E+01  0.72461781420E+02  0.70000275030E+02 0.  0.
         12    1    1    2    0    0  0.16152482675E+02  0.23150258874E+01  0.91874490957E+01  0.18726218580E+02  0.00000000000E+00 0. -1.
         11    1    3    3    0    0 -0.23599948609E+02 -0.20337469497E+02  0.11907712410E+02  0.33352119198E+02  0.51100000000E-03 0. -1.
        -11    1    3    3    0    0 -0.34261070784E+01  0.84127350123E+01  0.41532900449E+01  0.99880998472E+01  0.51100000000E-03 0.  1.
        -12    1    3    3    0    0  0.10873573013E+02  0.96097085976E+01 -0.25248451551E+02  0.29121562375E+02  0.00000000000E+00 0.  1.
</event>
<event>
 7    1  0.2932741E-013  0.7246157E+02  0.7816164E-02  0.1226708E+00
        -11   -1    0    0    0    0  0.00000000000E+00  0.00000000000E+00  0.45593999997E+02  0.45594000000E+02  0.51100000000E-03 0.  1.
         11   -1    0    0    0    0 -0.00000000000E+00 -0.00000000000E+00 -0.45593999997E+02  0.45594000000E+02  0.51100000000E-03 0. -1.
    9900012    2    1    2    0    0 -0.12452610398E+02 -0.17101642322E+01  0.13881172442E+02  0.72461571729E+02  0.70000001869E+02 0.  0.
         12    1    1    2    0    0  0.12452610398E+02  0.17101642322E+01 -0.13881172442E+02  0.18726428271E+02  0.00000000000E+00 0. -1.
         11    1    3    3    0    0  0.25824772088E+02 -0.68843185177E+01  0.50248429688E+01  0.27194884481E+02  0.51100000000E-03 0. -1.
        -11    1    3    3    0    0 -0.11084179549E+02 -0.20537553083E+01 -0.67016817469E+01  0.13114476187E+02  0.51100000000E-03 0.  1.
        -12    1    3    3    0    0 -0.27193202936E+02  0.72279095938E+01  0.15558011220E+02  0.32152211061E+02  0.00000000000E+00 0.  1.
</event>
<event>
 7    1  0.2932741E-013  0.7246158E+02  0.7816164E-02  0.1226708E+00
        -11   -1    0    0    0    0  0.00000000000E+00  0.00000000000E+00  0.45593999997E+02  0.45594000000E+02  0.51100000000E-03 0. -1.
         11   -1    0    0    0    0 -0.00000000000E+00 -0.00000000000E+00 -0.45593999997E+02  0.45594000000E+02  0.51100000000E-03 0.  1.
    9900012    2    1    2    0    0 -0.63008850073E+01 -0.14265938220E+02 -0.10366324796E+02  0.72461579228E+02  0.70000011637E+02 0.  0.
         12    1    1    2    0    0  0.63008850073E+01  0.14265938220E+02  0.10366324796E+02  0.18726420772E+02  0.00000000000E+00 0. -1.
         11    1    3    3    0    0  0.28494995326E+02 -0.63541008293E+01 -0.16899693643E+01  0.29243723304E+02  0.51100000000E-03 0. -1.
        -11    1    3    3    0    0 -0.31612944677E+00 -0.41029607506E+01  0.45112718329E+01  0.61062098358E+01  0.51100000000E-03 0.  1.
        -12    1    3    3    0    0 -0.34479750887E+02 -0.38088766400E+01 -0.13187627264E+02  0.37111646088E+02  0.00000000000E+00 0.  1.
</event>
<event>
 7    1  0.2932741E-013  0.7246162E+02  0.7816164E-02  0.1226708E+00
        -11   -1    0    0    0    0  0.00000000000E+00  0.00000000000E+00  0.45593999997E+02  0.45594000000E+02  0.51100000000E-03 0.  1.
         11   -1    0    0    0    0 -0.00000000000E+00 -0.00000000000E+00 -0.45593999997E+02  0.45594000000E+02  0.51100000000E-03 0. -1.
    9900012    2    1    2    0    0 -0.65142177399E+01  0.82297323952E+01  0.15508506341E+02  0.72461620291E+02  0.70000065130E+02 0.  0.
         12    1    1    2    0    0  0.65142177399E+01 -0.82297323952E+01 -0.15508506341E+02  0.18726379709E+02  0.00000000000E+00 0. -1.
         11    1    3    3    0    0 -0.21466542384E+02  0.62311788234E+01  0.18295545887E+02  0.28885412080E+02  0.51100000000E-03 0. -1.
        -11    1    3    3    0    0 -0.24781285861E+01  0.15359766931E+02  0.96782247297E+01  0.18322979988E+02  0.51100000000E-03 0.  1.
        -12    1    3    3    0    0  0.17430453230E+02 -0.13361213360E+02 -0.12465264276E+02  0.25253228223E+02  0.00000000000E+00 0.  1.
</event>
<event>
 7    1  0.2932741E-013  0.7246162E+02  0.7816164E-02  0.1226708E+00
        -11   -1    0    0    0    0  0.00000000000E+00  0.00000000000E+00  0.45593999997E+02  0.45594000000E+02  0.51100000000E-03 0. -1.
         11   -1    0    0    0    0 -0.00000000000E+00 -0.00000000000E+00 -0.45593999997E+02  0.45594000000E+02  0.51100000000E-03 0.  1.
    9900012    2    1    2    0    0  0.15171960768E+02 -0.19238072432E+01 -0.10806850452E+02  0.72461616351E+02  0.70000059998E+02 0.  0.
         12    1    1    2    0    0 -0.15171960768E+02  0.19238072432E+01  0.10806850452E+02  0.18726383649E+02  0.00000000000E+00 0. -1.
         11    1    3    3    0    0  0.77120562953E+01 -0.36932275328E+01  0.15527154522E+02  0.17725920842E+02  0.51100000000E-03 0. -1.
        -11    1    3    3    0    0  0.22534760709E+02  0.76696284888E+01  0.23055947474E-01  0.23804183943E+02  0.51100000000E-03 0.  1.
         12    1    3    3    0    0 -0.15074856236E+02 -0.59002081992E+01 -0.26357060921E+02  0.30931511566E+02  0.00000000000E+00 0. -1.
</event>
<event>
 7    1  0.2932741E-013  0.7246140E+02  0.7816164E-02  0.1226708E+00
        -11   -1    0    0    0    0  0.00000000000E+00  0.00000000000E+00  0.45593999997E+02  0.45594000000E+02  0.51100000000E-03 0.  1.
         11   -1    0    0    0    0 -0.00000000000E+00 -0.00000000000E+00 -0.45593999997E+02  0.45594000000E+02  0.51100000000E-03 0. -1.
    9900012    2    1    2    0    0  0.14238263582E+02 -0.10320420211E+02  0.64378770681E+01  0.72461401689E+02  0.69999780360E+02 0.  0.
         12    1    1    2    0    0 -0.14238263582E+02  0.10320420211E+02 -0.64378770681E+01  0.18726598311E+02  0.00000000000E+00 0. -1.
         11    1    3    3    0    0  0.16560003171E+01 -0.20503875375E+01 -0.54437483759E+01  0.60482082260E+01  0.51100000000E-03 0. -1.
        -11    1    3    3    0    0  0.25276619694E+02 -0.24146564716E+02  0.24317885921E+02  0.42583138291E+02  0.51100000000E-03 0.  1.
         12    1    3    3    0    0 -0.12694356429E+02  0.15876532043E+02 -0.12436260477E+02  0.23830055172E+02  0.00000000000E+00 0. -1.
</event>
<event>
 7    1  0.2932741E-013  0.7246165E+02  0.7816164E-02  0.1226708E+00
        -11   -1    0    0    0    0  0.00000000000E+00  0.00000000000E+00  0.45593999997E+02  0.45594000000E+02  0.51100000000E-03 0.  1.
         11   -1    0    0    0    0 -0.00000000000E+00 -0.00000000000E+00 -0.45593999997E+02  0.45594000000E+02  0.51100000000E-03 0. -1.
    9900012    2    1    2    0    0 -0.41696167967E+01  0.16081854948E+02  0.86408596144E+01  0.72461649110E+02  0.70000102671E+02 0.  0.
         12    1    1    2    0    0  0.41696167967E+01 -0.16081854948E+02 -0.86408596144E+01  0.18726350890E+02  0.00000000000E+00 0. -1.
         11    1    3    3    0    0  0.23369865482E+01 -0.29070005239E+01 -0.25387286746E+01  0.45119066610E+01  0.51100000000E-03 0. -1.
        -11    1    3    3    0    0  0.19693510623E+02  0.23467418982E+02  0.23540889754E+02  0.38635833174E+02  0.51100000000E-03 0.  1.
        -12    1    3    3    0    0 -0.26200113968E+02 -0.44785635099E+01 -0.12361301465E+02  0.29313909275E+02  0.00000000000E+00 0.  1.
</event>
<event>
 7    1  0.2932741E-013  0.7246159E+02  0.7816164E-02  0.1226708E+00
        -11   -1    0    0    0    0  0.00000000000E+00  0.00000000000E+00  0.45593999997E+02  0.45594000000E+02  0.51100000000E-03 0.  1.
         11   -1    0    0    0    0 -0.00000000000E+00 -0.00000000000E+00 -0.45593999997E+02  0.45594000000E+02  0.51100000000E-03 0. -1.
    9900012    2    1    2    0    0 -0.75460984716E+01  0.86472821337E+01  0.14797280329E+02  0.72461585619E+02  0.70000019963E+02 0.  0.
         12    1    1    2    0    0  0.75460984716E+01 -0.86472821337E+01 -0.14797280329E+02  0.18726414381E+02  0.00000000000E+00 0. -1.
         11    1    3    3    0    0  0.31087141363E+01 -0.88110445613E+01 -0.78071052534E+01  0.12175775234E+02  0.51100000000E-03 0. -1.
        -11    1    3    3    0    0  0.10650334292E+02 -0.41817548343E+01  0.27259370949E+02  0.29563321850E+02  0.51100000000E-03 0.  1.
         12    1    3    3    0    0 -0.21305146900E+02  0.21640081529E+02 -0.46549853665E+01  0.30722488535E+02  0.00000000000E+00 0. -1.
</event>
<event>
 7    1  0.2932741E-013  0.7246165E+02  0.7816164E-02  0.1226708E+00
        -11   -1    0    0    0    0  0.00000000000E+00  0.00000000000E+00  0.45593999997E+02  0.45594000000E+02  0.51100000000E-03 0.  1.
         11   -1    0    0    0    0 -0.00000000000E+00 -0.00000000000E+00 -0.45593999997E+02  0.45594000000E+02  0.51100000000E-03 0. -1.
    9900012    2    1    2    0    0 -0.43679627185E+01 -0.11750424488E+02  0.13911317644E+02  0.72461646042E+02  0.70000098676E+02 0.  0.
         12    1    1    2    0    0  0.43679627185E+01  0.11750424488E+02 -0.13911317644E+02  0.18726353958E+02  0.00000000000E+00 0. -1.
         11    1    3    3    0    0  0.14860439699E+02 -0.18408114662E+01 -0.33561648990E+01  0.15345523711E+02  0.51100000000E-03 0. -1.
        -11    1    3    3    0    0  0.13089061933E+02  0.20634911894E+01  0.18351066240E+02  0.22634998798E+02  0.51100000000E-03 0.  1.
        -12    1    3    3    0    0 -0.32317464350E+02 -0.11973104211E+02 -0.10835836967E+01  0.34481123533E+02  0.00000000000E+00 0.  1.
</event>
<event>
 7    1  0.2932741E-013  0.7246159E+02  0.7816164E-02  0.1226708E+00
        -11   -1    0    0    0    0  0.00000000000E+00  0.00000000000E+00  0.45593999997E+02  0.45594000000E+02  0.51100000000E-03 0.  1.
         11   -1    0    0    0    0 -0.00000000000E+00 -0.00000000000E+00 -0.45593999997E+02  0.45594000000E+02  0.51100000000E-03 0. -1.
    9900012    2    1    2    0    0  0.10393917194E+02 -0.15525223371E+02  0.12697747254E+01  0.72461590755E+02  0.70000026654E+02 0.  0.
         12    1    1    2    0    0 -0.10393917194E+02  0.15525223371E+02 -0.12697747254E+01  0.18726409245E+02  0.00000000000E+00 0. -1.
         11    1    3    3    0    0  0.81597362647E+01  0.23977900719E+01 -0.93982631795E+01  0.12675095431E+02  0.51100000000E-03 0. -1.
        -11    1    3    3    0    0  0.22042284971E+02  0.34688926683E+01  0.19170404790E+02  0.29417681132E+02  0.51100000000E-03 0.  1.
         12    1    3    3    0    0 -0.19808104042E+02 -0.21391906111E+02 -0.85023668852E+01  0.30368814192E+02  0.00000000000E+00 0. -1.
</event>
<event>
 7    1  0.2932741E-013  0.7246160E+02  0.7816164E-02  0.1226708E+00
        -11   -1    0    0    0    0  0.00000000000E+00  0.00000000000E+00  0.45593999997E+02  0.45594000000E+02  0.51100000000E-03 0.  1.
         11   -1    0    0    0    0 -0.00000000000E+00 -0.00000000000E+00 -0.45593999997E+02  0.45594000000E+02  0.51100000000E-03 0. -1.
    9900012    2    1    2    0    0  0.10138915546E+02 -0.15563475723E+02 -0.23787959734E+01  0.72461600044E+02  0.70000038754E+02 0.  0.
         12    1    1    2    0    0 -0.10138915546E+02  0.15563475723E+02  0.23787959734E+01  0.18726399956E+02  0.00000000000E+00 0. -1.
         11    1    3    3    0    0  0.32693478850E+01 -0.22546699549E+02 -0.16957049000E+02  0.28400419138E+02  0.51100000000E-03 0. -1.
        -11    1    3    3    0    0 -0.11536077151E+02 -0.84114037873E+01  0.14093269842E+02  0.20061232385E+02  0.51100000000E-03 0.  1.
        -12    1    3    3    0    0  0.18405644812E+02  0.15394627614E+02  0.48498318537E+00  0.23999948521E+02  0.00000000000E+00 0.  1.
</event>
<event>
 7    1  0.2932741E-013  0.7246158E+02  0.7816164E-02  0.1226708E+00
        -11   -1    0    0    0    0  0.00000000000E+00  0.00000000000E+00  0.45593999997E+02  0.45594000000E+02  0.51100000000E-03 0. -1.
         11   -1    0    0    0    0 -0.00000000000E+00 -0.00000000000E+00 -0.45593999997E+02  0.45594000000E+02  0.51100000000E-03 0.  1.
    9900012    2    1    2    0    0  0.61734771262E+01 -0.17411530696E+02 -0.30668619956E+01  0.72461578465E+02  0.70000010644E+02 0.  0.
         12    1    1    2    0    0 -0.61734771262E+01  0.17411530696E+02  0.30668619956E+01  0.18726421535E+02  0.00000000000E+00 0. -1.
         11    1    3    3    0    0 -0.18952215476E+02 -0.16541466749E+01  0.17323703260E+02  0.25730009086E+02  0.51100000000E-03 0. -1.
        -11    1    3    3    0    0  0.32638993107E+01 -0.15672120848E+02  0.11381886948E+01  0.16048796975E+02  0.51100000000E-03 0.  1.
        -12    1    3    3    0    0  0.21861793291E+02 -0.85263173270E-01 -0.21528753950E+02  0.30682772404E+02  0.00000000000E+00 0.  1.
</event>
<event>
 7    1  0.2932741E-013  0.7246155E+02  0.7816164E-02  0.1226708E+00
        -11   -1    0    0    0    0  0.00000000000E+00  0.00000000000E+00  0.45593999997E+02  0.45594000000E+02  0.51100000000E-03 0.  1.
         11   -1    0    0    0    0 -0.00000000000E+00 -0.00000000000E+00 -0.45593999997E+02  0.45594000000E+02  0.51100000000E-03 0. -1.
    9900012    2    1    2    0    0 -0.17469377029E+02  0.40920085601E+01  0.53624949492E+01  0.72461547588E+02  0.69999970421E+02 0.  0.
         12    1    1    2    0    0  0.17469377029E+02 -0.40920085601E+01 -0.53624949492E+01  0.18726452412E+02  0.00000000000E+00 0. -1.
         11    1    3    3    0    0 -0.64730046915E+01 -0.62111557927E+01 -0.58401063606E+01  0.10704442469E+02  0.51100000000E-03 0. -1.
        -11    1    3    3    0    0 -0.91657307794E+01  0.97049115820E+00  0.34966441041E+02  0.36160814055E+02  0.51100000000E-03 0.  1.
         12    1    3    3    0    0 -0.18306415584E+01  0.93326731946E+01 -0.23763839731E+02  0.25596291064E+02  0.00000000000E+00 0. -1.
</event>
<event>
 7    1  0.2932741E-013  0.7246159E+02  0.7816164E-02  0.1226708E+00
        -11   -1    0    0    0    0  0.00000000000E+00  0.00000000000E+00  0.45593999997E+02  0.45594000000E+02  0.51100000000E-03 0. -1.
         11   -1    0    0    0    0 -0.00000000000E+00 -0.00000000000E+00 -0.45593999997E+02  0.45594000000E+02  0.51100000000E-03 0.  1.
    9900012    2    1    2    0    0 -0.19455272867E+01  0.17123355554E+02 -0.73269325574E+01  0.72461592909E+02  0.70000029459E+02 0.  0.
         12    1    1    2    0    0  0.19455272867E+01 -0.17123355554E+02  0.73269325574E+01  0.18726407091E+02  0.00000000000E+00 0. -1.
         11    1    3    3    0    0  0.20597071108E+01  0.35244405901E+02  0.12198012867E+02  0.37352403655E+02  0.51100000000E-03 0. -1.
        -11    1    3    3    0    0 -0.92495936453E+01  0.74318260983E+00 -0.39274299139E+01  0.10076309294E+02  0.51100000000E-03 0.  1.
        -12    1    3    3    0    0  0.52443592478E+01 -0.18864232957E+02 -0.15597515510E+02  0.25032879959E+02  0.00000000000E+00 0.  1.
</event>
<event>
 7    1  0.2932741E-013  0.7246158E+02  0.7816164E-02  0.1226708E+00
        -11   -1    0    0    0    0  0.00000000000E+00  0.00000000000E+00  0.45593999997E+02  0.45594000000E+02  0.51100000000E-03 0.  1.
         11   -1    0    0    0    0 -0.00000000000E+00 -0.00000000000E+00 -0.45593999997E+02  0.45594000000E+02  0.51100000000E-03 0. -1.
    9900012    2    1    2    0    0 -0.15914082861E+02 -0.27421708632E+01  0.94816352390E+01  0.72461576391E+02  0.70000007943E+02 0.  0.
         12    1    1    2    0    0  0.15914082861E+02  0.27421708632E+01 -0.94816352390E+01  0.18726423609E+02  0.00000000000E+00 0. -1.
         11    1    3    3    0    0 -0.21083131934E+02 -0.11066111887E+02 -0.19683559131E+01  0.23892084666E+02  0.51100000000E-03 0. -1.
        -11    1    3    3    0    0 -0.15882548549E+02 -0.58812434346E+00 -0.86802489430E+01  0.18109333522E+02  0.51100000000E-03 0.  1.
        -12    1    3    3    0    0  0.21051597621E+02  0.89120653669E+01  0.20130240095E+02  0.30460158203E+02  0.00000000000E+00 0.  1.
</event>
<event>
 7    1  0.2932741E-013  0.7246151E+02  0.7816164E-02  0.1226708E+00
        -11   -1    0    0    0    0  0.00000000000E+00  0.00000000000E+00  0.45593999997E+02  0.45594000000E+02  0.51100000000E-03 0. -1.
         11   -1    0    0    0    0 -0.00000000000E+00 -0.00000000000E+00 -0.45593999997E+02  0.45594000000E+02  0.51100000000E-03 0.  1.
    9900012    2    1    2    0    0 -0.63239085702E+01  0.45021566314E+01 -0.17041719033E+02  0.72461510165E+02  0.69999921670E+02 0.  0.
         12    1    1    2    0    0  0.63239085702E+01 -0.45021566314E+01  0.17041719033E+02  0.18726489835E+02  0.00000000000E+00 0. -1.
         11    1    3    3    0    0 -0.22510900763E+02  0.72836194546E+01 -0.28995597760E+02  0.37423741866E+02  0.51100000000E-03 0. -1.
        -11    1    3    3    0    0 -0.74013557315E+01 -0.23082457611E+01 -0.14729394922E+01  0.78916168284E+01  0.51100000000E-03 0.  1.
         12    1    3    3    0    0  0.23588347924E+02 -0.47321706201E+00  0.13426818218E+02  0.27146151471E+02  0.00000000000E+00 0. -1.
</event>
<event>
 7    1  0.2932741E-013  0.7246152E+02  0.7816164E-02  0.1226708E+00
        -11   -1    0    0    0    0  0.00000000000E+00  0.00000000000E+00  0.45593999997E+02  0.45594000000E+02  0.51100000000E-03 0. -1.
         11   -1    0    0    0    0 -0.00000000000E+00 -0.00000000000E+00 -0.45593999997E+02  0.45594000000E+02  0.51100000000E-03 0.  1.
    9900012    2    1    2    0    0 -0.13781495993E+02 -0.12418133695E+02  0.25575763895E+01  0.72461524804E+02  0.69999940740E+02 0.  0.
         12    1    1    2    0    0  0.13781495993E+02  0.12418133695E+02 -0.25575763895E+01  0.18726475196E+02  0.00000000000E+00 0. -1.
         11    1    3    3    0    0  0.11552237483E+02 -0.82844926223E+01  0.57700126695E+01  0.15342100747E+02  0.51100000000E-03 0. -1.
        -11    1    3    3    0    0 -0.22947778035E+02 -0.10484575765E+02 -0.24262677069E+02  0.35002919086E+02  0.51100000000E-03 0.  1.
         12    1    3    3    0    0 -0.23859554409E+01  0.63509346921E+01  0.21050240789E+02  0.22116504971E+02  0.00000000000E+00 0. -1.
</event>
<event>
 7    1  0.2932741E-013  0.7246155E+02  0.7816164E-02  0.1226708E+00
        -11   -1    0    0    0    0  0.00000000000E+00  0.00000000000E+00  0.45593999997E+02  0.45594000000E+02  0.51100000000E-03 0. -1.
         11   -1    0    0    0    0 -0.00000000000E+00 -0.00000000000E+00 -0.45593999997E+02  0.45594000000E+02  0.51100000000E-03 0.  1.
    9900012    2    1    2    0    0 -0.44516879936E+01  0.17986925726E+02 -0.27079326371E+01  0.72461550196E+02  0.69999973819E+02 0.  0.
         12    1    1    2    0    0  0.44516879936E+01 -0.17986925726E+02  0.27079326371E+01  0.18726449804E+02  0.00000000000E+00 0. -1.
         11    1    3    3    0    0  0.18629880105E+02  0.94464058839E+00  0.20782186935E+02  0.27926046491E+02  0.51100000000E-03 0. -1.
        -11    1    3    3    0    0  0.45315666609E+01  0.34647097862E+01  0.19062134217E+00  0.57075079555E+01  0.51100000000E-03 0.  1.
        -12    1    3    3    0    0 -0.27613134759E+02  0.13577575352E+02 -0.23680740914E+02  0.38827995750E+02  0.00000000000E+00 0.  1.
</event>
<event>
 7    1  0.2932741E-013  0.7246160E+02  0.7816164E-02  0.1226708E+00
        -11   -1    0    0    0    0  0.00000000000E+00  0.00000000000E+00  0.45593999997E+02  0.45594000000E+02  0.51100000000E-03 0.  1.
         11   -1    0    0    0    0 -0.00000000000E+00 -0.00000000000E+00 -0.45593999997E+02  0.45594000000E+02  0.51100000000E-03 0. -1.
    9900012    2    1    2    0    0  0.46779375790E+01  0.17812113014E+02  0.33946194434E+01  0.72461603892E+02  0.70000043768E+02 0.  0.
         12    1    1    2    0    0 -0.46779375790E+01 -0.17812113014E+02 -0.33946194434E+01  0.18726396108E+02  0.00000000000E+00 0. -1.
         11    1    3    3    0    0  0.95929294450E+01  0.27285298927E+01 -0.81932102984E+01  0.12907279573E+02  0.51100000000E-03 0. -1.
        -11    1    3    3    0    0  0.21768260980E+02  0.21258986368E+02  0.18390666133E+01  0.30482517182E+02  0.51100000000E-03 0.  1.
        -12    1    3    3    0    0 -0.26683252846E+02 -0.61754032472E+01  0.97487631285E+01  0.29071807137E+02  0.00000000000E+00 0.  1.
</event>
<event>
 7    1  0.2932741E-013  0.7246139E+02  0.7816164E-02  0.1226708E+00
        -11   -1    0    0    0    0  0.00000000000E+00  0.00000000000E+00  0.45593999997E+02  0.45594000000E+02  0.51100000000E-03 0. -1.
         11   -1    0    0    0    0 -0.00000000000E+00 -0.00000000000E+00 -0.45593999997E+02  0.45594000000E+02  0.51100000000E-03 0.  1.
    9900012    2    1    2    0    0  0.10383898341E+02 -0.15545406946E+02  0.10958327564E+01  0.72461391356E+02  0.69999766899E+02 0.  0.
         12    1    1    2    0    0 -0.10383898341E+02  0.15545406946E+02 -0.10958327564E+01  0.18726608644E+02  0.00000000000E+00 0. -1.
         11    1    3    3    0    0  0.12010749418E+02  0.80734928872E+01 -0.58765716309E+01  0.15619650552E+02  0.51100000000E-03 0. -1.
        -11    1    3    3    0    0  0.22287804800E+02 -0.22450039379E+02  0.87798386391E+01  0.32830413913E+02  0.51100000000E-03 0.  1.
         12    1    3    3    0    0 -0.23914655877E+02 -0.11688604550E+01 -0.18074342519E+01  0.24011326890E+02  0.00000000000E+00 0. -1.
</event>
<event>
 7    1  0.2932741E-013  0.7246158E+02  0.7816164E-02  0.1226708E+00
        -11   -1    0    0    0    0  0.00000000000E+00  0.00000000000E+00  0.45593999997E+02  0.45594000000E+02  0.51100000000E-03 0. -1.
         11   -1    0    0    0    0 -0.00000000000E+00 -0.00000000000E+00 -0.45593999997E+02  0.45594000000E+02  0.51100000000E-03 0.  1.
    9900012    2    1    2    0    0  0.21805868713E+01  0.17345258372E+02  0.67131187621E+01  0.72461577207E+02  0.70000009005E+02 0.  0.
         12    1    1    2    0    0 -0.21805868713E+01 -0.17345258372E+02 -0.67131187621E+01  0.18726422793E+02  0.00000000000E+00 0. -1.
         11    1    3    3    0    0 -0.60989690192E+01  0.10156042987E+02 -0.21834749219E+02  0.24841475519E+02  0.51100000000E-03 0. -1.
        -11    1    3    3    0    0  0.20169350642E+01 -0.10244839847E+02 -0.31497880072E+01  0.10906233782E+02  0.51100000000E-03 0.  1.
        -12    1    3    3    0    0  0.62626208263E+01  0.17434055233E+02  0.31697655989E+02  0.36713867906E+02  0.00000000000E+00 0.  1.
</event>
<event>
 7    1  0.2932741E-013  0.7246156E+02  0.7816164E-02  0.1226708E+00
        -11   -1    0    0    0    0  0.00000000000E+00  0.00000000000E+00  0.45593999997E+02  0.45594000000E+02  0.51100000000E-03 0. -1.
         11   -1    0    0    0    0 -0.00000000000E+00 -0.00000000000E+00 -0.45593999997E+02  0.45594000000E+02  0.51100000000E-03 0.  1.
    9900012    2    1    2    0    0 -0.10408345834E+02  0.10451684401E+02 -0.11537251055E+02  0.72461560623E+02  0.69999987401E+02 0.  0.
         12    1    1    2    0    0  0.10408345834E+02 -0.10451684401E+02  0.11537251055E+02  0.18726439377E+02  0.00000000000E+00 0. -1.
         11    1    3    3    0    0 -0.21775237288E+02 -0.20421102028E+02 -0.80373527664E+01  0.30915714560E+02  0.51100000000E-03 0. -1.
        -11    1    3    3    0    0 -0.58898700382E+01  0.52591712603E+01 -0.68851098227E+01  0.10476363345E+02  0.51100000000E-03 0.  1.
         12    1    3    3    0    0  0.17256761492E+02  0.25613615169E+02  0.33852115341E+01  0.31069482718E+02  0.00000000000E+00 0. -1.
</event>
<event>
 7    1  0.2932741E-013  0.7246157E+02  0.7816164E-02  0.1226708E+00
        -11   -1    0    0    0    0  0.00000000000E+00  0.00000000000E+00  0.45593999997E+02  0.45594000000E+02  0.51100000000E-03 0.  1.
         11   -1    0    0    0    0 -0.00000000000E+00 -0.00000000000E+00 -0.45593999997E+02  0.45594000000E+02  0.51100000000E-03 0. -1.
    9900012    2    1    2    0    0  0.12441130242E+02  0.12144741619E+02  0.69571962995E+01  0.72461573458E+02  0.70000004121E+02 0.  0.
         12    1    1    2    0    0 -0.12441130242E+02 -0.12144741619E+02 -0.69571962995E+01  0.18726426542E+02  0.00000000000E+00 0. -1.
         11    1    3    3    0    0  0.26328622904E+01  0.32138760080E+01 -0.36438994439E+00  0.41705806703E+01  0.51100000000E-03 0. -1.
        -11    1    3    3    0    0 -0.14553301994E+02  0.20466523172E+02  0.25491526118E+02  0.35784005837E+02  0.51100000000E-03 0.  1.
         12    1    3    3    0    0  0.24361569946E+02 -0.11535657561E+02 -0.18169939874E+02  0.32506986950E+02  0.00000000000E+00 0. -1.
</event>
<event>
 7    1  0.2932741E-013  0.7246158E+02  0.7816164E-02  0.1226708E+00
        -11   -1    0    0    0    0  0.00000000000E+00  0.00000000000E+00  0.45593999997E+02  0.45594000000E+02  0.51100000000E-03 0.  1.
         11   -1    0    0    0    0 -0.00000000000E+00 -0.00000000000E+00 -0.45593999997E+02  0.45594000000E+02  0.51100000000E-03 0. -1.
    9900012    2    1    2    0    0  0.44715251657E+01  0.15995466531E+02  0.86503901603E+01  0.72461581848E+02  0.70000015051E+02 0.  0.
         12    1    1    2    0    0 -0.44715251657E+01 -0.15995466531E+02 -0.86503901603E+01  0.18726418152E+02  0.00000000000E+00 0. -1.
         11    1    3    3    0    0 -0.44951737289E+00 -0.79487971419E+01  0.19628303922E+01  0.81998869066E+01  0.51100000000E-03 0. -1.
        -11    1    3    3    0    0 -0.18524077098E+01 -0.18891200792E+02 -0.44294984212E+01  0.19491776168E+02  0.51100000000E-03 0.  1.
         12    1    3    3    0    0  0.67734502483E+01  0.42835464465E+02  0.11117058189E+02  0.44769918773E+02  0.00000000000E+00 0. -1.
</event>
<event>
 7    1  0.2932741E-013  0.7246153E+02  0.7816164E-02  0.1226708E+00
        -11   -1    0    0    0    0  0.00000000000E+00  0.00000000000E+00  0.45593999997E+02  0.45594000000E+02  0.51100000000E-03 0.  1.
         11   -1    0    0    0    0 -0.00000000000E+00 -0.00000000000E+00 -0.45593999997E+02  0.45594000000E+02  0.51100000000E-03 0. -1.
    9900012    2    1    2    0    0 -0.14937151275E+02  0.94015675493E+01  0.62588001236E+01  0.72461533714E+02  0.69999952347E+02 0.  0.
         12    1    1    2    0    0  0.14937151275E+02 -0.94015675493E+01 -0.62588001236E+01  0.18726466286E+02  0.00000000000E+00 0. -1.
         11    1    3    3    0    0  0.15013591241E+01 -0.13851236427E+02 -0.23494014353E+02  0.27314456621E+02  0.51100000000E-03 0. -1.
        -11    1    3    3    0    0 -0.12443149498E+02  0.28245889955E+01  0.81097587278E+01  0.15118811439E+02  0.51100000000E-03 0.  1.
        -12    1    3    3    0    0 -0.39953609004E+01  0.20428214981E+02  0.21643055749E+02  0.30028265654E+02  0.00000000000E+00 0.  1.
</event>
<event>
 7    1  0.2932741E-013  0.7246157E+02  0.7816164E-02  0.1226708E+00
        -11   -1    0    0    0    0  0.00000000000E+00  0.00000000000E+00  0.45593999997E+02  0.45594000000E+02  0.51100000000E-03 0.  1.
         11   -1    0    0    0    0 -0.00000000000E+00 -0.00000000000E+00 -0.45593999997E+02  0.45594000000E+02  0.51100000000E-03 0. -1.
    9900012    2    1    2    0    0  0.81698320036E+01  0.10884948574E+02 -0.12862777277E+02  0.72461566818E+02  0.69999995472E+02 0.  0.
         12    1    1    2    0    0 -0.81698320036E+01 -0.10884948574E+02  0.12862777277E+02  0.18726433182E+02  0.00000000000E+00 0. -1.
         11    1    3    3    0    0  0.56083491049E+01 -0.22292830577E+02  0.34550637748E+01  0.23245673593E+02  0.51100000000E-03 0. -1.
        -11    1    3    3    0    0  0.12363054980E+02  0.11101959019E+02  0.46239639518E+01  0.17247598829E+02  0.51100000000E-03 0.  1.
         12    1    3    3    0    0 -0.98015720812E+01  0.22075820132E+02 -0.20941805004E+02  0.31968294396E+02  0.00000000000E+00 0. -1.
</event>
<event>
 7    1  0.2932741E-013  0.7246155E+02  0.7816164E-02  0.1226708E+00
        -11   -1    0    0    0    0  0.00000000000E+00  0.00000000000E+00  0.45593999997E+02  0.45594000000E+02  0.51100000000E-03 0.  1.
         11   -1    0    0    0    0 -0.00000000000E+00 -0.00000000000E+00 -0.45593999997E+02  0.45594000000E+02  0.51100000000E-03 0. -1.
    9900012    2    1    2    0    0 -0.33389317295E+01  0.17419640604E+02  0.60072898243E+01  0.72461551461E+02  0.69999975466E+02 0.  0.
         12    1    1    2    0    0  0.33389317295E+01 -0.17419640604E+02 -0.60072898243E+01  0.18726448539E+02  0.00000000000E+00 0. -1.
         11    1    3    3    0    0  0.20212285619E+02 -0.30500634074E+01 -0.85044700650E+01  0.22139679042E+02  0.51100000000E-03 0. -1.
        -11    1    3    3    0    0  0.30441377737E+01  0.20571048432E+02  0.18826745275E+01  0.20880116666E+02  0.51100000000E-03 0.  1.
        -12    1    3    3    0    0 -0.26595355122E+02 -0.10134442073E+00  0.12629085362E+02  0.29441755753E+02  0.00000000000E+00 0.  1.
</event>
<event>
 7    1  0.2932741E-013  0.7246157E+02  0.7816164E-02  0.1226708E+00
        -11   -1    0    0    0    0  0.00000000000E+00  0.00000000000E+00  0.45593999997E+02  0.45594000000E+02  0.51100000000E-03 0.  1.
         11   -1    0    0    0    0 -0.00000000000E+00 -0.00000000000E+00 -0.45593999997E+02  0.45594000000E+02  0.51100000000E-03 0. -1.
    9900012    2    1    2    0    0 -0.73343689297E+01  0.11060242898E+02  0.13212014932E+02  0.72461567368E+02  0.69999996188E+02 0.  0.
         12    1    1    2    0    0  0.73343689297E+01 -0.11060242898E+02 -0.13212014932E+02  0.18726432632E+02  0.00000000000E+00 0. -1.
         11    1    3    3    0    0 -0.82255134810E+01 -0.26397530990E+01  0.18228682369E+02  0.20172065576E+02  0.51100000000E-03 0. -1.
        -11    1    3    3    0    0 -0.74745593166E+01 -0.16816760334E+02  0.50513803722E+01  0.19083734148E+02  0.51100000000E-03 0.  1.
         12    1    3    3    0    0  0.83657038678E+01  0.30516756331E+02 -0.10068047809E+02  0.33205767644E+02  0.00000000000E+00 0. -1.
</event>
<event>
 7    1  0.2932741E-013  0.7246157E+02  0.7816164E-02  0.1226708E+00
        -11   -1    0    0    0    0  0.00000000000E+00  0.00000000000E+00  0.45593999997E+02  0.45594000000E+02  0.51100000000E-03 0.  1.
         11   -1    0    0    0    0 -0.00000000000E+00 -0.00000000000E+00 -0.45593999997E+02  0.45594000000E+02  0.51100000000E-03 0. -1.
    9900012    2    1    2    0    0  0.17714210190E+02  0.60146553601E+01  0.84255549302E+00  0.72461568906E+02  0.69999998192E+02 0.  0.
         12    1    1    2    0    0 -0.17714210190E+02 -0.60146553601E+01 -0.84255549302E+00  0.18726431094E+02  0.00000000000E+00 0. -1.
         11    1    3    3    0    0 -0.70832882828E+01  0.89065067653E+01 -0.79333778437E+01  0.13872177909E+02  0.51100000000E-03 0. -1.
        -11    1    3    3    0    0  0.23508586976E+02 -0.76610536398E+01  0.28804171946E+02  0.37960844646E+02  0.51100000000E-03 0.  1.
         12    1    3    3    0    0  0.12889114965E+01  0.47692022346E+01 -0.20028238609E+02  0.20628546351E+02  0.00000000000E+00 0. -1.
</event>
<event>
 7    1  0.2932741E-013  0.7246161E+02  0.7816164E-02  0.1226708E+00
        -11   -1    0    0    0    0  0.00000000000E+00  0.00000000000E+00  0.45593999997E+02  0.45594000000E+02  0.51100000000E-03 0.  1.
         11   -1    0    0    0    0 -0.00000000000E+00 -0.00000000000E+00 -0.45593999997E+02  0.45594000000E+02  0.51100000000E-03 0. -1.
    9900012    2    1    2    0    0  0.11991208482E+02 -0.14315990564E+02  0.13932661723E+01  0.72461605330E+02  0.70000045641E+02 0.  0.
         12    1    1    2    0    0 -0.11991208482E+02  0.14315990564E+02 -0.13932661723E+01  0.18726394670E+02  0.00000000000E+00 0. -1.
         11    1    3    3    0    0  0.17957789802E+01 -0.37024807974E+01 -0.17203179508E+02  0.17688486980E+02  0.51100000000E-03 0. -1.
        -11    1    3    3    0    0 -0.17723578816E+02 -0.19812548015E+01 -0.34525883903E+01  0.18165103454E+02  0.51100000000E-03 0.  1.
        -12    1    3    3    0    0  0.27919008318E+02 -0.86322549650E+01  0.22049034071E+02  0.36608014897E+02  0.00000000000E+00 0.  1.
</event>
<event>
 7    1  0.2932741E-013  0.7246171E+02  0.7816164E-02  0.1226708E+00
        -11   -1    0    0    0    0  0.00000000000E+00  0.00000000000E+00  0.45593999997E+02  0.45594000000E+02  0.51100000000E-03 0.  1.
         11   -1    0    0    0    0 -0.00000000000E+00 -0.00000000000E+00 -0.45593999997E+02  0.45594000000E+02  0.51100000000E-03 0. -1.
    9900012    2    1    2    0    0  0.17822217800E+02 -0.51752037612E+01 -0.25019555075E+01  0.72461709320E+02  0.70000181106E+02 0.  0.
         12    1    1    2    0    0 -0.17822217800E+02  0.51752037612E+01  0.25019555075E+01  0.18726290680E+02  0.00000000000E+00 0. -1.
         11    1    3    3    0    0  0.10768535629E+01  0.30590300909E+01 -0.15270915143E+02  0.15611474250E+02  0.51100000000E-03 0. -1.
        -11    1    3    3    0    0  0.30197765144E+02 -0.12645328744E+02 -0.60580868526E+01  0.33294290431E+02  0.51100000000E-03 0.  1.
        -12    1    3    3    0    0 -0.13452400908E+02  0.44110948918E+01  0.18827046488E+02  0.23555944638E+02  0.00000000000E+00 0.  1.
</event>
<event>
 7    1  0.2932741E-013  0.7246173E+02  0.7816164E-02  0.1226708E+00
        -11   -1    0    0    0    0  0.00000000000E+00  0.00000000000E+00  0.45593999997E+02  0.45594000000E+02  0.51100000000E-03 0.  1.
         11   -1    0    0    0    0 -0.00000000000E+00 -0.00000000000E+00 -0.45593999997E+02  0.45594000000E+02  0.51100000000E-03 0. -1.
    9900012    2    1    2    0    0 -0.15076976901E+02  0.51108674846E+01  0.98608791437E+01  0.72461731381E+02  0.70000209845E+02 0.  0.
         12    1    1    2    0    0  0.15076976901E+02 -0.51108674846E+01 -0.98608791437E+01  0.18726268619E+02  0.00000000000E+00 0. -1.
         11    1    3    3    0    0 -0.60590295925E+01  0.27648336809E+02 -0.16073543192E+02  0.32549979400E+02  0.51100000000E-03 0. -1.
        -11    1    3    3    0    0  0.34305777894E+01 -0.11207552455E+00 -0.54726089053E-02  0.34324124320E+01  0.51100000000E-03 0.  1.
        -12    1    3    3    0    0 -0.12448525098E+02 -0.22425393800E+02  0.25939894945E+02  0.36479339549E+02  0.00000000000E+00 0.  1.
</event>
<event>
 7    1  0.2932741E-013  0.7246156E+02  0.7816164E-02  0.1226708E+00
        -11   -1    0    0    0    0  0.00000000000E+00  0.00000000000E+00  0.45593999997E+02  0.45594000000E+02  0.51100000000E-03 0.  1.
         11   -1    0    0    0    0 -0.00000000000E+00 -0.00000000000E+00 -0.45593999997E+02  0.45594000000E+02  0.51100000000E-03 0. -1.
    9900012    2    1    2    0    0  0.15432996184E+00 -0.16790613093E+02  0.82904186109E+01  0.72461560228E+02  0.69999986887E+02 0.  0.
         12    1    1    2    0    0 -0.15432996184E+00  0.16790613093E+02 -0.82904186109E+01  0.18726439772E+02  0.00000000000E+00 0. -1.
         11    1    3    3    0    0  0.10334661243E+02  0.15289849912E+02 -0.14821028930E+02  0.23669550738E+02  0.51100000000E-03 0. -1.
        -11    1    3    3    0    0 -0.21755158800E+01 -0.65412944324E+00 -0.52433582385E+01  0.57143294052E+01  0.51100000000E-03 0.  1.
        -12    1    3    3    0    0 -0.80048154013E+01 -0.31426333562E+02  0.28354805779E+02  0.43077680085E+02  0.00000000000E+00 0.  1.
</event>
<event>
 7    1  0.2932741E-013  0.7246161E+02  0.7816164E-02  0.1226708E+00
        -11   -1    0    0    0    0  0.00000000000E+00  0.00000000000E+00  0.45593999997E+02  0.45594000000E+02  0.51100000000E-03 0. -1.
         11   -1    0    0    0    0 -0.00000000000E+00 -0.00000000000E+00 -0.45593999997E+02  0.45594000000E+02  0.51100000000E-03 0.  1.
    9900012    2    1    2    0    0  0.39439876028E+00  0.80411324915E+00 -0.18704959949E+02  0.72461610194E+02  0.70000051976E+02 0.  0.
         12    1    1    2    0    0 -0.39439876028E+00 -0.80411324915E+00  0.18704959949E+02  0.18726389806E+02  0.00000000000E+00 0. -1.
         11    1    3    3    0    0  0.25883044964E+01  0.66728392417E+00  0.46107924521E+01  0.53295398768E+01  0.51100000000E-03 0. -1.
        -11    1    3    3    0    0  0.38235764091E+01 -0.25923832307E+02  0.65803899919E+01  0.27017889457E+02  0.51100000000E-03 0.  1.
         12    1    3    3    0    0 -0.60174821451E+01  0.26060661632E+02 -0.29896142393E+02  0.40114180859E+02  0.00000000000E+00 0. -1.
</event>
<event>
 7    1  0.2932741E-013  0.7246148E+02  0.7816164E-02  0.1226708E+00
        -11   -1    0    0    0    0  0.00000000000E+00  0.00000000000E+00  0.45593999997E+02  0.45594000000E+02  0.51100000000E-03 0.  1.
         11   -1    0    0    0    0 -0.00000000000E+00 -0.00000000000E+00 -0.45593999997E+02  0.45594000000E+02  0.51100000000E-03 0. -1.
    9900012    2    1    2    0    0 -0.18457632087E+02 -0.10511555588E+01  0.29821641896E+01  0.72461483679E+02  0.69999887167E+02 0.  0.
         12    1    1    2    0    0  0.18457632087E+02  0.10511555588E+01 -0.29821641896E+01  0.18726516321E+02  0.00000000000E+00 0. -1.
         11    1    3    3    0    0  0.83244027109E+01  0.86462154381E+01  0.54116569780E+01  0.13165817612E+02  0.51100000000E-03 0. -1.
        -11    1    3    3    0    0  0.60260524283E+01 -0.14389327955E+02 -0.17016871198E+02  0.23085492684E+02  0.51100000000E-03 0.  1.
        -12    1    3    3    0    0 -0.32808087226E+02  0.46919569576E+01  0.14587378409E+02  0.36210173382E+02  0.00000000000E+00 0.  1.
</event>
<event>
 7    1  0.2932741E-013  0.7246169E+02  0.7816164E-02  0.1226708E+00
        -11   -1    0    0    0    0  0.00000000000E+00  0.00000000000E+00  0.45593999997E+02  0.45594000000E+02  0.51100000000E-03 0.  1.
         11   -1    0    0    0    0 -0.00000000000E+00 -0.00000000000E+00 -0.45593999997E+02  0.45594000000E+02  0.51100000000E-03 0. -1.
    9900012    2    1    2    0    0  0.17990908472E+02 -0.51418355872E+01 -0.75060792089E+00  0.72461690350E+02  0.70000156395E+02 0.  0.
         12    1    1    2    0    0 -0.17990908472E+02  0.51418355872E+01  0.75060792089E+00  0.18726309650E+02  0.00000000000E+00 0. -1.
         11    1    3    3    0    0  0.10596327308E+02 -0.26593845215E+02 -0.27004934922E+01  0.28754259182E+02  0.51100000000E-03 0. -1.
        -11    1    3    3    0    0  0.24002878444E+01 -0.65423820467E+01  0.11723460111E+02  0.13638315945E+02  0.51100000000E-03 0.  1.
        -12    1    3    3    0    0  0.49942933197E+01  0.27994391675E+02 -0.97735745400E+01  0.30069115223E+02  0.00000000000E+00 0.  1.
</event>
<event>
 7    1  0.2932741E-013  0.7246155E+02  0.7816164E-02  0.1226708E+00
        -11   -1    0    0    0    0  0.00000000000E+00  0.00000000000E+00  0.45593999997E+02  0.45594000000E+02  0.51100000000E-03 0.  1.
         11   -1    0    0    0    0 -0.00000000000E+00 -0.00000000000E+00 -0.45593999997E+02  0.45594000000E+02  0.51100000000E-03 0. -1.
    9900012    2    1    2    0    0 -0.10574267335E+02  0.40087110941E+01  0.14926315959E+02  0.72461553396E+02  0.69999977986E+02 0.  0.
         12    1    1    2    0    0  0.10574267335E+02 -0.40087110941E+01 -0.14926315959E+02  0.18726446604E+02  0.00000000000E+00 0. -1.
         11    1    3    3    0    0 -0.10481776635E+02  0.14634300796E+01  0.12482180813E+02  0.16365026951E+02  0.51100000000E-03 0.  1.
        -11    1    3    3    0    0 -0.34849901607E+01 -0.54119662668E+01  0.28200791204E+02  0.28926098252E+02  0.51100000000E-03 0. -1.
        -12    1    3    3    0    0  0.33924994604E+01  0.79572472813E+01 -0.25756656057E+02  0.27170428192E+02  0.00000000000E+00 0.  1.
</event>
<event>
 7    1  0.2932741E-013  0.7246173E+02  0.7816164E-02  0.1226708E+00
        -11   -1    0    0    0    0  0.00000000000E+00  0.00000000000E+00  0.45593999997E+02  0.45594000000E+02  0.51100000000E-03 0. -1.
         11   -1    0    0    0    0 -0.00000000000E+00 -0.00000000000E+00 -0.45593999997E+02  0.45594000000E+02  0.51100000000E-03 0.  1.
    9900012    2    1    2    0    0  0.17697165612E+02  0.57870712093E+01  0.19983179716E+01  0.72461731322E+02  0.70000209768E+02 0.  0.
         12    1    1    2    0    0 -0.17697165612E+02 -0.57870712093E+01 -0.19983179716E+01  0.18726268678E+02  0.00000000000E+00 0. -1.
         11    1    3    3    0    0  0.28257501237E+02  0.45414952133E+01  0.48450452684E+01  0.29027332273E+02  0.51100000000E-03 0. -1.
        -11    1    3    3    0    0  0.12594509814E+02  0.24046423503E+01  0.10597335387E+02  0.16634527341E+02  0.51100000000E-03 0.  1.
        -12    1    3    3    0    0 -0.23154845439E+02 -0.11590663543E+01 -0.13444062683E+02  0.26799871708E+02  0.00000000000E+00 0.  1.
</event>
<event>
 7    1  0.2932741E-013  0.7246160E+02  0.7816164E-02  0.1226708E+00
        -11   -1    0    0    0    0  0.00000000000E+00  0.00000000000E+00  0.45593999997E+02  0.45594000000E+02  0.51100000000E-03 0.  1.
         11   -1    0    0    0    0 -0.00000000000E+00 -0.00000000000E+00 -0.45593999997E+02  0.45594000000E+02  0.51100000000E-03 0. -1.
    9900012    2    1    2    0    0  0.81349682596E+01 -0.13952290295E+02  0.94780756091E+01  0.72461600711E+02  0.70000039624E+02 0.  0.
         12    1    1    2    0    0 -0.81349682596E+01  0.13952290295E+02 -0.94780756091E+01  0.18726399289E+02  0.00000000000E+00 0. -1.
         11    1    3    3    0    0  0.30882269674E+01 -0.22987943013E+01  0.14158782709E+01  0.41019888567E+01  0.51100000000E-03 0. -1.
        -11    1    3    3    0    0 -0.15683384122E+01  0.73088711091E+01  0.34420102797E+02  0.35222475198E+02  0.51100000000E-03 0.  1.
         12    1    3    3    0    0  0.66150797045E+01 -0.18962367103E+02 -0.26357905458E+02  0.33137136657E+02  0.00000000000E+00 0. -1.
</event>
<event>
 7    1  0.2932741E-013  0.7246186E+02  0.7816164E-02  0.1226707E+00
        -11   -1    0    0    0    0  0.00000000000E+00  0.00000000000E+00  0.45593999997E+02  0.45594000000E+02  0.51100000000E-03 0.  1.
         11   -1    0    0    0    0 -0.00000000000E+00 -0.00000000000E+00 -0.45593999997E+02  0.45594000000E+02  0.51100000000E-03 0. -1.
    9900012    2    1    2    0    0  0.10094263261E+02  0.87096453950E+01  0.13149760730E+02  0.72461861024E+02  0.70000378728E+02 0.  0.
         12    1    1    2    0    0 -0.10094263261E+02 -0.87096453950E+01 -0.13149760730E+02  0.18726138976E+02  0.00000000000E+00 0. -1.
         11    1    3    3    0    0  0.15937750750E+02 -0.90796493773E+01 -0.14811031114E+02  0.23575804858E+02  0.51100000000E-03 0. -1.
        -11    1    3    3    0    0  0.13234917635E+02  0.84356336789E+01  0.21612541225E+02  0.26710014954E+02  0.51100000000E-03 0.  1.
        -12    1    3    3    0    0 -0.19078405123E+02  0.93536610935E+01  0.63482506195E+01  0.22176041212E+02  0.00000000000E+00 0.  1.
</event>
<event>
 7    1  0.2932741E-013  0.7246156E+02  0.7816164E-02  0.1226708E+00
        -11   -1    0    0    0    0  0.00000000000E+00  0.00000000000E+00  0.45593999997E+02  0.45594000000E+02  0.51100000000E-03 0.  1.
         11   -1    0    0    0    0 -0.00000000000E+00 -0.00000000000E+00 -0.45593999997E+02  0.45594000000E+02  0.51100000000E-03 0. -1.
    9900012    2    1    2    0    0 -0.12615014199E+02 -0.12888512824E+02  0.50425267288E+01  0.72461563557E+02  0.69999991223E+02 0.  0.
         12    1    1    2    0    0  0.12615014199E+02  0.12888512824E+02 -0.50425267288E+01  0.18726436443E+02  0.00000000000E+00 0. -1.
         11    1    3    3    0    0 -0.19489290880E+02 -0.16390684369E+02 -0.15805738454E+02  0.29971792763E+02  0.51100000000E-03 0. -1.
        -11    1    3    3    0    0  0.12315209187E+01 -0.11572401018E+02 -0.44878378848E+01  0.12473082948E+02  0.51100000000E-03 0.  1.
        -12    1    3    3    0    0  0.56427557618E+01  0.15074572564E+02  0.25336103067E+02  0.30016687845E+02  0.00000000000E+00 0.  1.
</event>
<event>
 7    1  0.2932741E-013  0.7246147E+02  0.7816164E-02  0.1226708E+00
        -11   -1    0    0    0    0  0.00000000000E+00  0.00000000000E+00  0.45593999997E+02  0.45594000000E+02  0.51100000000E-03 0.  1.
         11   -1    0    0    0    0 -0.00000000000E+00 -0.00000000000E+00 -0.45593999997E+02  0.45594000000E+02  0.51100000000E-03 0. -1.
    9900012    2    1    2    0    0 -0.18335980694E+02  0.34415340488E+00  0.37889727598E+01  0.72461469511E+02  0.69999868711E+02 0.  0.
         12    1    1    2    0    0  0.18335980694E+02 -0.34415340488E+00 -0.37889727598E+01  0.18726530489E+02  0.00000000000E+00 0. -1.
         11    1    3    3    0    0 -0.41959360345E+01 -0.33877061335E+02  0.29947814615E+01  0.34267037808E+02  0.51100000000E-03 0. -1.
        -11    1    3    3    0    0 -0.27446126273E+01  0.14614820367E+02  0.37212903031E+01  0.15328857577E+02  0.51100000000E-03 0.  1.
        -12    1    3    3    0    0 -0.11395432032E+02  0.19606394372E+02 -0.29270990048E+01  0.22865574125E+02  0.00000000000E+00 0.  1.
</event>
<event>
 7    1  0.2932741E-013  0.7246137E+02  0.7816164E-02  0.1226709E+00
        -11   -1    0    0    0    0  0.00000000000E+00  0.00000000000E+00  0.45593999997E+02  0.45594000000E+02  0.51100000000E-03 0.  1.
         11   -1    0    0    0    0 -0.00000000000E+00 -0.00000000000E+00 -0.45593999997E+02  0.45594000000E+02  0.51100000000E-03 0. -1.
    9900012    2    1    2    0    0  0.16648391013E+02 -0.17932565644E+01  0.83846184501E+01  0.72461374063E+02  0.69999744372E+02 0.  0.
         12    1    1    2    0    0 -0.16648391013E+02  0.17932565644E+01 -0.83846184501E+01  0.18726625937E+02  0.00000000000E+00 0. -1.
         11    1    3    3    0    0  0.16442152185E+02  0.71489913279E+01  0.41700564166E+01  0.18407656458E+02  0.51100000000E-03 0. -1.
        -11    1    3    3    0    0  0.22373373306E+02  0.75504000261E+00  0.15627905426E+02  0.27301453199E+02  0.51100000000E-03 0.  1.
        -12    1    3    3    0    0 -0.22167134478E+02 -0.96972878950E+01 -0.11413343392E+02  0.26752264406E+02  0.00000000000E+00 0.  1.
</event>
<event>
 7    1  0.2932741E-013  0.7246158E+02  0.7816164E-02  0.1226708E+00
        -11   -1    0    0    0    0  0.00000000000E+00  0.00000000000E+00  0.45593999997E+02  0.45594000000E+02  0.51100000000E-03 0. -1.
         11   -1    0    0    0    0 -0.00000000000E+00 -0.00000000000E+00 -0.45593999997E+02  0.45594000000E+02  0.51100000000E-03 0.  1.
    9900012    2    1    2    0    0  0.10783242938E+02  0.77551255484E+01 -0.13200700093E+02  0.72461580602E+02  0.70000013427E+02 0.  0.
         12    1    1    2    0    0 -0.10783242938E+02 -0.77551255484E+01  0.13200700093E+02  0.18726419398E+02  0.00000000000E+00 0. -1.
         11    1    3    3    0    0  0.10125345989E+02  0.34336100315E+01  0.25472153345E+02  0.27625041277E+02  0.51100000000E-03 0. -1.
        -11    1    3    3    0    0 -0.28549602961E+01 -0.62826168480E+01 -0.31262429704E+01  0.75759796807E+01  0.51100000000E-03 0.  1.
        -12    1    3    3    0    0  0.35128572452E+01  0.10604132365E+02 -0.35546610468E+02  0.37260559644E+02  0.00000000000E+00 0.  1.
</event>
<event>
 7    1  0.2932741E-013  0.7246168E+02  0.7816164E-02  0.1226708E+00
        -11   -1    0    0    0    0  0.00000000000E+00  0.00000000000E+00  0.45593999997E+02  0.45594000000E+02  0.51100000000E-03 0.  1.
         11   -1    0    0    0    0 -0.00000000000E+00 -0.00000000000E+00 -0.45593999997E+02  0.45594000000E+02  0.51100000000E-03 0. -1.
    9900012    2    1    2    0    0 -0.10982432020E+02 -0.43607441343E+01  0.14527393414E+02  0.72461679969E+02  0.70000142872E+02 0.  0.
         12    1    1    2    0    0  0.10982432020E+02  0.43607441343E+01 -0.14527393414E+02  0.18726320031E+02  0.00000000000E+00 0. -1.
         11    1    3    3    0    0 -0.68978437684E+01 -0.25644967962E+02  0.80224712293E+01  0.27741749680E+02  0.51100000000E-03 0. -1.
        -11    1    3    3    0    0 -0.17114082846E+02  0.16122388582E+02  0.15412960689E+02  0.28113744018E+02  0.51100000000E-03 0.  1.
         12    1    3    3    0    0  0.13029494595E+02  0.51618352450E+01 -0.89080385043E+01  0.16606186271E+02  0.00000000000E+00 0. -1.
</event>
<event>
 7    1  0.2932741E-013  0.7246139E+02  0.7816164E-02  0.1226709E+00
        -11   -1    0    0    0    0  0.00000000000E+00  0.00000000000E+00  0.45593999997E+02  0.45594000000E+02  0.51100000000E-03 0. -1.
         11   -1    0    0    0    0 -0.00000000000E+00 -0.00000000000E+00 -0.45593999997E+02  0.45594000000E+02  0.51100000000E-03 0.  1.
    9900012    2    1    2    0    0  0.95674095762E+01  0.69187612488E+01 -0.14535525784E+02  0.72461385436E+02  0.69999759187E+02 0.  0.
         12    1    1    2    0    0 -0.95674095762E+01 -0.69187612488E+01  0.14535525784E+02  0.18726614564E+02  0.00000000000E+00 0. -1.
         11    1    3    3    0    0  0.41254260335E+01  0.21480341216E+02  0.28120293307E+01  0.22052929691E+02  0.51100000000E-03 0. -1.
        -11    1    3    3    0    0  0.81926482262E+01  0.15131572960E+02 -0.36368550780E+01  0.17587231172E+02  0.51100000000E-03 0.  1.
        -12    1    3    3    0    0 -0.27506646836E+01 -0.29693152927E+02 -0.13710700036E+02  0.32821224573E+02  0.00000000000E+00 0.  1.
</event>
<event>
 7    1  0.2932741E-013  0.7246150E+02  0.7816164E-02  0.1226708E+00
        -11   -1    0    0    0    0  0.00000000000E+00  0.00000000000E+00  0.45593999997E+02  0.45594000000E+02  0.51100000000E-03 0.  1.
         11   -1    0    0    0    0 -0.00000000000E+00 -0.00000000000E+00 -0.45593999997E+02  0.45594000000E+02  0.51100000000E-03 0. -1.
    9900012    2    1    2    0    0 -0.10140395017E+02 -0.79272322352E+01  0.13601955658E+02  0.72461499533E+02  0.69999907821E+02 0.  0.
         12    1    1    2    0    0  0.10140395017E+02  0.79272322352E+01 -0.13601955658E+02  0.18726500467E+02  0.00000000000E+00 0. -1.
         11    1    3    3    0    0  0.13430128575E+02  0.27651830847E+01 -0.16414462123E+02  0.21388061110E+02  0.51100000000E-03 0. -1.
        -11    1    3    3    0    0  0.78802760094E+01 -0.29215513348E+01  0.31128037577E+01  0.89623523520E+01  0.51100000000E-03 0.  1.
         12    1    3    3    0    0 -0.31450799601E+02 -0.77708639851E+01  0.26903614023E+02  0.42111086071E+02  0.00000000000E+00 0. -1.
</event>
<event>
 7    1  0.2932741E-013  0.7246153E+02  0.7816164E-02  0.1226708E+00
        -11   -1    0    0    0    0  0.00000000000E+00  0.00000000000E+00  0.45593999997E+02  0.45594000000E+02  0.51100000000E-03 0.  1.
         11   -1    0    0    0    0 -0.00000000000E+00 -0.00000000000E+00 -0.45593999997E+02  0.45594000000E+02  0.51100000000E-03 0. -1.
    9900012    2    1    2    0    0  0.13376035678E+02  0.90820046724E+01  0.94487814106E+01  0.72461531847E+02  0.69999949916E+02 0.  0.
         12    1    1    2    0    0 -0.13376035678E+02 -0.90820046724E+01 -0.94487814106E+01  0.18726468153E+02  0.00000000000E+00 0. -1.
         11    1    3    3    0    0  0.11473168021E+02 -0.10659264283E+02  0.13472596518E+02  0.20658275743E+02  0.51100000000E-03 0. -1.
        -11    1    3    3    0    0 -0.22028931218E+02  0.72639026627E+01  0.42342518670E+01  0.23578952089E+02  0.51100000000E-03 0.  1.
         12    1    3    3    0    0  0.23931798875E+02  0.12477366292E+02 -0.82580669740E+01  0.28224304015E+02  0.00000000000E+00 0. -1.
</event>
<event>
 7    1  0.2932741E-013  0.7246152E+02  0.7816164E-02  0.1226708E+00
        -11   -1    0    0    0    0  0.00000000000E+00  0.00000000000E+00  0.45593999997E+02  0.45594000000E+02  0.51100000000E-03 0. -1.
         11   -1    0    0    0    0 -0.00000000000E+00 -0.00000000000E+00 -0.45593999997E+02  0.45594000000E+02  0.51100000000E-03 0.  1.
    9900012    2    1    2    0    0  0.95897923145E+01 -0.12784565044E+02 -0.97607324113E+01  0.72461518291E+02  0.69999932256E+02 0.  0.
         12    1    1    2    0    0 -0.95897923145E+01  0.12784565044E+02  0.97607324113E+01  0.18726481709E+02  0.00000000000E+00 0. -1.
         11    1    3    3    0    0  0.20020059879E+02  0.21215742383E+02 -0.57357016505E+01  0.29728921879E+02  0.51100000000E-03 0. -1.
        -11    1    3    3    0    0  0.69033131257E+01 -0.42671100509E+01 -0.40173918047E+00  0.81255987428E+01  0.51100000000E-03 0.  1.
        -12    1    3    3    0    0 -0.17333580691E+02 -0.29733197376E+02 -0.36232915803E+01  0.34606997669E+02  0.00000000000E+00 0.  1.
</event>
<event>
 7    1  0.2932741E-013  0.7246151E+02  0.7816164E-02  0.1226708E+00
        -11   -1    0    0    0    0  0.00000000000E+00  0.00000000000E+00  0.45593999997E+02  0.45594000000E+02  0.51100000000E-03 0. -1.
         11   -1    0    0    0    0 -0.00000000000E+00 -0.00000000000E+00 -0.45593999997E+02  0.45594000000E+02  0.51100000000E-03 0.  1.
    9900012    2    1    2    0    0  0.16292426035E+02 -0.92315294359E+01 -0.13048679266E+00  0.72461513179E+02  0.69999925597E+02 0.  0.
         12    1    1    2    0    0 -0.16292426035E+02  0.92315294359E+01  0.13048679266E+00  0.18726486821E+02  0.00000000000E+00 0. -1.
         11    1    3    3    0    0  0.12895864035E+02 -0.24464359270E+02 -0.81828573005E+01  0.28840376863E+02  0.51100000000E-03 0. -1.
        -11    1    3    3    0    0  0.12504711543E+02  0.35890248470E+01 -0.12674250042E+02  0.18162751017E+02  0.51100000000E-03 0.  1.
         12    1    3    3    0    0 -0.91081495418E+01  0.11643804987E+02  0.20726620550E+02  0.25458385300E+02  0.00000000000E+00 0. -1.
</event>
<event>
 7    1  0.2932741E-013  0.7246142E+02  0.7816164E-02  0.1226708E+00
        -11   -1    0    0    0    0  0.00000000000E+00  0.00000000000E+00  0.45593999997E+02  0.45594000000E+02  0.51100000000E-03 0.  1.
         11   -1    0    0    0    0 -0.00000000000E+00 -0.00000000000E+00 -0.45593999997E+02  0.45594000000E+02  0.51100000000E-03 0. -1.
    9900012    2    1    2    0    0  0.18456741411E+02 -0.29172773577E+01  0.12340195517E+01  0.72461424900E+02  0.69999810597E+02 0.  0.
         12    1    1    2    0    0 -0.18456741411E+02  0.29172773577E+01 -0.12340195517E+01  0.18726575100E+02  0.00000000000E+00 0. -1.
         11    1    3    3    0    0  0.11835033183E+02  0.23775137120E+00  0.79319381414E+01  0.14249216789E+02  0.51100000000E-03 0. -1.
        -11    1    3    3    0    0  0.30805978825E+02  0.32081760980E+01 -0.10939358216E+02  0.32847683080E+02  0.51100000000E-03 0.  1.
         12    1    3    3    0    0 -0.24184270597E+02 -0.63632048269E+01  0.42414396266E+01  0.25364525032E+02  0.00000000000E+00 0. -1.
</event>
<event>
 7    1  0.2932741E-013  0.7246158E+02  0.7816164E-02  0.1226708E+00
        -11   -1    0    0    0    0  0.00000000000E+00  0.00000000000E+00  0.45593999997E+02  0.45594000000E+02  0.51100000000E-03 0. -1.
         11   -1    0    0    0    0 -0.00000000000E+00 -0.00000000000E+00 -0.45593999997E+02  0.45594000000E+02  0.51100000000E-03 0.  1.
    9900012    2    1    2    0    0 -0.82368455823E+01 -0.68043876599E+01 -0.15379639853E+02  0.72461584471E+02  0.70000018468E+02 0.  0.
         12    1    1    2    0    0  0.82368455823E+01  0.68043876599E+01  0.15379639853E+02  0.18726415529E+02  0.00000000000E+00 0. -1.
         11    1    3    3    0    0  0.11189368575E+02  0.37306669788E+01  0.36482545140E+01  0.12346238555E+02  0.51100000000E-03 0. -1.
        -11    1    3    3    0    0 -0.16309163522E+02  0.10464124988E+02 -0.30385866347E+02  0.36038695876E+02  0.51100000000E-03 0.  1.
         12    1    3    3    0    0 -0.31170506353E+01 -0.20999179626E+02  0.11357971980E+02  0.24076650040E+02  0.00000000000E+00 0. -1.
</event>
<event>
 7    1  0.2932741E-013  0.7246158E+02  0.7816164E-02  0.1226708E+00
        -11   -1    0    0    0    0  0.00000000000E+00  0.00000000000E+00  0.45593999997E+02  0.45594000000E+02  0.51100000000E-03 0.  1.
         11   -1    0    0    0    0 -0.00000000000E+00 -0.00000000000E+00 -0.45593999997E+02  0.45594000000E+02  0.51100000000E-03 0. -1.
    9900012    2    1    2    0    0  0.99673840083E+01 -0.11884847688E+02  0.10491915321E+02  0.72461584549E+02  0.70000018570E+02 0.  0.
         12    1    1    2    0    0 -0.99673840083E+01  0.11884847688E+02 -0.10491915321E+02  0.18726415451E+02  0.00000000000E+00 0. -1.
         11    1    3    3    0    0  0.70950489324E+01 -0.53388162865E+00 -0.31300491893E+01  0.77731561888E+01  0.51100000000E-03 0. -1.
        -11    1    3    3    0    0  0.21965972525E+02 -0.33218701096E+01  0.30663850875E+02  0.37865690549E+02  0.51100000000E-03 0.  1.
         12    1    3    3    0    0 -0.19093637449E+02 -0.80290959497E+01 -0.17041886365E+02  0.26822737811E+02  0.00000000000E+00 0. -1.
</event>
<event>
 7    1  0.2932741E-013  0.7246159E+02  0.7816164E-02  0.1226708E+00
        -11   -1    0    0    0    0  0.00000000000E+00  0.00000000000E+00  0.45593999997E+02  0.45594000000E+02  0.51100000000E-03 0.  1.
         11   -1    0    0    0    0 -0.00000000000E+00 -0.00000000000E+00 -0.45593999997E+02  0.45594000000E+02  0.51100000000E-03 0. -1.
    9900012    2    1    2    0    0 -0.84483333812E+01 -0.14087309352E+02  0.89917657788E+01  0.72461588878E+02  0.70000024209E+02 0.  0.
         12    1    1    2    0    0  0.84483333812E+01  0.14087309352E+02 -0.89917657788E+01  0.18726411122E+02  0.00000000000E+00 0. -1.
         11    1    3    3    0    0 -0.18708303526E+01 -0.23711993454E+02  0.16409976643E+01  0.23842221234E+02  0.51100000000E-03 0. -1.
        -11    1    3    3    0    0  0.55875672365E+01 -0.40201935321E+01 -0.16901365120E+02  0.18249356340E+02  0.51100000000E-03 0.  1.
        -12    1    3    3    0    0 -0.12165070265E+02  0.13644877634E+02  0.24252133234E+02  0.30370011304E+02  0.00000000000E+00 0.  1.
</event>
<event>
 7    1  0.2932741E-013  0.7246152E+02  0.7816164E-02  0.1226708E+00
        -11   -1    0    0    0    0  0.00000000000E+00  0.00000000000E+00  0.45593999997E+02  0.45594000000E+02  0.51100000000E-03 0.  1.
         11   -1    0    0    0    0 -0.00000000000E+00 -0.00000000000E+00 -0.45593999997E+02  0.45594000000E+02  0.51100000000E-03 0. -1.
    9900012    2    1    2    0    0 -0.14079829286E+02  0.11466771852E+02  0.45774216259E+01  0.72461515061E+02  0.69999928048E+02 0.  0.
         12    1    1    2    0    0  0.14079829286E+02 -0.11466771852E+02 -0.45774216259E+01  0.18726484939E+02  0.00000000000E+00 0. -1.
         11    1    3    3    0    0 -0.17798908685E+02 -0.60809949268E+01 -0.73197873332E+01  0.20183134953E+02  0.51100000000E-03 0. -1.
        -11    1    3    3    0    0 -0.65846049682E+01 -0.57048190530E+01  0.22949471702E+02  0.24547509745E+02  0.51100000000E-03 0.  1.
         12    1    3    3    0    0  0.10303684367E+02  0.23252585832E+02 -0.11052262742E+02  0.27730870364E+02  0.00000000000E+00 0. -1.
</event>
<event>
 7    1  0.2932741E-013  0.7246155E+02  0.7816164E-02  0.1226708E+00
        -11   -1    0    0    0    0  0.00000000000E+00  0.00000000000E+00  0.45593999997E+02  0.45594000000E+02  0.51100000000E-03 0.  1.
         11   -1    0    0    0    0 -0.00000000000E+00 -0.00000000000E+00 -0.45593999997E+02  0.45594000000E+02  0.51100000000E-03 0. -1.
    9900012    2    1    2    0    0 -0.32936867715E+01  0.12022851659E+02  0.13974357472E+02  0.72461548085E+02  0.69999971068E+02 0.  0.
         12    1    1    2    0    0  0.32936867715E+01 -0.12022851659E+02 -0.13974357472E+02  0.18726451915E+02  0.00000000000E+00 0. -1.
         11    1    3    3    0    0  0.24277612061E+02  0.79441142197E+01  0.54737480950E+01  0.26124190257E+02  0.51100000000E-03 0.  1.
        -11    1    3    3    0    0 -0.42130305679E+01 -0.10819382526E+02 -0.79916265343E+01  0.14095203430E+02  0.51100000000E-03 0. -1.
         12    1    3    3    0    0 -0.23358268265E+02  0.14898119965E+02  0.16492235912E+02  0.32242154398E+02  0.00000000000E+00 0. -1.
</event>
<event>
 7    1  0.2932741E-013  0.7246156E+02  0.7816164E-02  0.1226708E+00
        -11   -1    0    0    0    0  0.00000000000E+00  0.00000000000E+00  0.45593999997E+02  0.45594000000E+02  0.51100000000E-03 0.  1.
         11   -1    0    0    0    0 -0.00000000000E+00 -0.00000000000E+00 -0.45593999997E+02  0.45594000000E+02  0.51100000000E-03 0. -1.
    9900012    2    1    2    0    0 -0.43777336437E+01  0.54930127598E+01  0.17359201454E+02  0.72461558369E+02  0.69999984465E+02 0.  0.
         12    1    1    2    0    0  0.43777336437E+01 -0.54930127598E+01 -0.17359201454E+02  0.18726441631E+02  0.00000000000E+00 0. -1.
         11    1    3    3    0    0  0.20953792792E+02 -0.38673317437E+01 -0.67081539502E+01  0.22338688791E+02  0.51100000000E-03 0. -1.
        -11    1    3    3    0    0  0.22986438718E+01 -0.31565083917E+01 -0.61643451078E+01  0.72970171814E+01  0.51100000000E-03 0.  1.
        -12    1    3    3    0    0 -0.27630170308E+02  0.12516852895E+02  0.30231700512E+02  0.42825852397E+02  0.00000000000E+00 0.  1.
</event>
<event>
 7    1  0.2932741E-013  0.7246135E+02  0.7816164E-02  0.1226709E+00
        -11   -1    0    0    0    0  0.00000000000E+00  0.00000000000E+00  0.45593999997E+02  0.45594000000E+02  0.51100000000E-03 0.  1.
         11   -1    0    0    0    0 -0.00000000000E+00 -0.00000000000E+00 -0.45593999997E+02  0.45594000000E+02  0.51100000000E-03 0. -1.
    9900012    2    1    2    0    0 -0.37017762125E+00 -0.17180934162E+01  0.18643990912E+02  0.72461353915E+02  0.69999718125E+02 0.  0.
         12    1    1    2    0    0  0.37017762125E+00  0.17180934162E+01 -0.18643990912E+02  0.18726646085E+02  0.00000000000E+00 0. -1.
         11    1    3    3    0    0  0.86467834997E+00  0.16727597861E+02 -0.17517745282E+02  0.24236988239E+02  0.51100000000E-03 0. -1.
        -11    1    3    3    0    0  0.93874637717E+01 -0.35635821164E+01  0.32133857871E+01  0.10542743573E+02  0.51100000000E-03 0.  1.
        -12    1    3    3    0    0 -0.10622319743E+02 -0.14882109161E+02  0.32948350407E+02  0.37681622104E+02  0.00000000000E+00 0.  1.
</event>
<event>
 7    1  0.2932741E-013  0.7246157E+02  0.7816164E-02  0.1226708E+00
        -11   -1    0    0    0    0  0.00000000000E+00  0.00000000000E+00  0.45593999997E+02  0.45594000000E+02  0.51100000000E-03 0.  1.
         11   -1    0    0    0    0 -0.00000000000E+00 -0.00000000000E+00 -0.45593999997E+02  0.45594000000E+02  0.51100000000E-03 0. -1.
    9900012    2    1    2    0    0  0.53514733209E+01 -0.78949463819E+01  0.16115543286E+02  0.72461570001E+02  0.69999999618E+02 0.  0.
         12    1    1    2    0    0 -0.53514733209E+01  0.78949463819E+01 -0.16115543286E+02  0.18726429999E+02  0.00000000000E+00 0. -1.
         11    1    3    3    0    0  0.15070932565E+01 -0.52246092849E+01 -0.18902133748E+02  0.19668719652E+02  0.51100000000E-03 0. -1.
        -11    1    3    3    0    0  0.65457244057E+01 -0.20302395805E+02  0.15610697962E+02  0.26433457484E+02  0.51100000000E-03 0.  1.
        -12    1    3    3    0    0 -0.27013443414E+01  0.17632058708E+02  0.19406979072E+02  0.26359392865E+02  0.00000000000E+00 0.  1.
</event>
<event>
 7    1  0.2932741E-013  0.7246154E+02  0.7816164E-02  0.1226708E+00
        -11   -1    0    0    0    0  0.00000000000E+00  0.00000000000E+00  0.45593999997E+02  0.45594000000E+02  0.51100000000E-03 0.  1.
         11   -1    0    0    0    0 -0.00000000000E+00 -0.00000000000E+00 -0.45593999997E+02  0.45594000000E+02  0.51100000000E-03 0. -1.
    9900012    2    1    2    0    0 -0.15657428529E+02 -0.10240913089E+02 -0.80552982682E+00  0.72461541516E+02  0.69999962511E+02 0.  0.
         12    1    1    2    0    0  0.15657428529E+02  0.10240913089E+02  0.80552982682E+00  0.18726458484E+02  0.00000000000E+00 0. -1.
         11    1    3    3    0    0 -0.52567246211E+01 -0.66575961009E+01 -0.12228758692E+02  0.14882851843E+02  0.51100000000E-03 0. -1.
        -11    1    3    3    0    0  0.17284034358E+02 -0.92988957440E+01  0.20016018500E+02  0.28032985974E+02  0.51100000000E-03 0.  1.
         12    1    3    3    0    0 -0.27684738266E+02  0.57155787555E+01 -0.85927896353E+01  0.29545703699E+02  0.00000000000E+00 0. -1.
</event>
<event>
 7    1  0.2932741E-013  0.7246125E+02  0.7816164E-02  0.1226709E+00
        -11   -1    0    0    0    0  0.00000000000E+00  0.00000000000E+00  0.45593999997E+02  0.45594000000E+02  0.51100000000E-03 0.  1.
         11   -1    0    0    0    0 -0.00000000000E+00 -0.00000000000E+00 -0.45593999997E+02  0.45594000000E+02  0.51100000000E-03 0. -1.
    9900012    2    1    2    0    0 -0.72436645360E+01 -0.17221520572E+02  0.12804539801E+01  0.72461254177E+02  0.69999588197E+02 0.  0.
         12    1    1    2    0    0  0.72436645360E+01  0.17221520572E+02 -0.12804539801E+01  0.18726745823E+02  0.00000000000E+00 0. -1.
         11    1    3    3    0    0  0.20357420510E+02  0.35251791839E+01 -0.13324659959E+02  0.24584507751E+02  0.51100000000E-03 0. -1.
        -11    1    3    3    0    0 -0.10396638458E+02  0.14282110053E+01 -0.68647780259E+01  0.12540137779E+02  0.51100000000E-03 0.  1.
        -12    1    3    3    0    0 -0.17204446587E+02 -0.22174910761E+02  0.21469891965E+02  0.35336608647E+02  0.00000000000E+00 0.  1.
</event>
<event>
 7    1  0.2932741E-013  0.7246155E+02  0.7816164E-02  0.1226708E+00
        -11   -1    0    0    0    0  0.00000000000E+00  0.00000000000E+00  0.45593999997E+02  0.45594000000E+02  0.51100000000E-03 0. -1.
         11   -1    0    0    0    0 -0.00000000000E+00 -0.00000000000E+00 -0.45593999997E+02  0.45594000000E+02  0.51100000000E-03 0.  1.
    9900012    2    1    2    0    0  0.62277624572E+01  0.16371279995E+02 -0.66239081530E+01  0.72461548304E+02  0.69999971354E+02 0.  0.
         12    1    1    2    0    0 -0.62277624572E+01 -0.16371279995E+02  0.66239081530E+01  0.18726451696E+02  0.00000000000E+00 0. -1.
         11    1    3    3    0    0  0.13783041681E+02  0.11492235207E+02  0.89712844305E+00  0.17967986747E+02  0.51100000000E-03 0. -1.
        -11    1    3    3    0    0 -0.95216442536E+01 -0.51465681859E+00 -0.29903256137E+02  0.31386801506E+02  0.51100000000E-03 0.  1.
         12    1    3    3    0    0  0.19663650297E+01  0.53937016069E+01  0.22382219541E+02  0.23106760051E+02  0.00000000000E+00 0. -1.
</event>
<event>
 7    1  0.2932741E-013  0.7246156E+02  0.7816164E-02  0.1226708E+00
        -11   -1    0    0    0    0  0.00000000000E+00  0.00000000000E+00  0.45593999997E+02  0.45594000000E+02  0.51100000000E-03 0.  1.
         11   -1    0    0    0    0 -0.00000000000E+00 -0.00000000000E+00 -0.45593999997E+02  0.45594000000E+02  0.51100000000E-03 0. -1.
    9900012    2    1    2    0    0  0.13782442184E+02 -0.10590879949E+02  0.69683054227E+01  0.72461555300E+02  0.69999980467E+02 0.  0.
         12    1    1    2    0    0 -0.13782442184E+02  0.10590879949E+02 -0.69683054227E+01  0.18726444700E+02  0.00000000000E+00 0. -1.
         11    1    3    3    0    0 -0.32202236075E+00 -0.18430098586E+02 -0.16364829708E+02  0.24649135561E+02  0.51100000000E-03 0. -1.
        -11    1    3    3    0    0  0.88123279189E+01  0.31194434050E+01 -0.10025981968E+02  0.13707967216E+02  0.51100000000E-03 0.  1.
        -12    1    3    3    0    0  0.52921366257E+01  0.47197752318E+01  0.33359117099E+02  0.34104452523E+02  0.00000000000E+00 0.  1.
</event>
<event>
 7    1  0.2932741E-013  0.7246157E+02  0.7816164E-02  0.1226708E+00
        -11   -1    0    0    0    0  0.00000000000E+00  0.00000000000E+00  0.45593999997E+02  0.45594000000E+02  0.51100000000E-03 0. -1.
         11   -1    0    0    0    0 -0.00000000000E+00 -0.00000000000E+00 -0.45593999997E+02  0.45594000000E+02  0.51100000000E-03 0.  1.
    9900012    2    1    2    0    0  0.31589169076E+01  0.65283257524E+01 -0.17265032439E+02  0.72461571129E+02  0.70000001087E+02 0.  0.
         12    1    1    2    0    0 -0.31589169076E+01 -0.65283257524E+01  0.17265032439E+02  0.18726428871E+02  0.00000000000E+00 0. -1.
         11    1    3    3    0    0 -0.59987938577E+01 -0.46184494532E+01  0.10677689762E+02  0.13089257505E+02  0.51100000000E-03 0. -1.
        -11    1    3    3    0    0  0.22767284949E+02  0.77432523375E+01  0.40982888644E+01  0.24394736986E+02  0.51100000000E-03 0.  1.
        -12    1    3    3    0    0 -0.13609574184E+02  0.34035228682E+01 -0.32041011066E+02  0.34977576638E+02  0.00000000000E+00 0.  1.
</event>
<event>
 7    1  0.2932741E-013  0.7246156E+02  0.7816164E-02  0.1226708E+00
        -11   -1    0    0    0    0  0.00000000000E+00  0.00000000000E+00  0.45593999997E+02  0.45594000000E+02  0.51100000000E-03 0. -1.
         11   -1    0    0    0    0 -0.00000000000E+00 -0.00000000000E+00 -0.45593999997E+02  0.45594000000E+02  0.51100000000E-03 0.  1.
    9900012    2    1    2    0    0  0.18237021066E+02  0.31243694657E+01 -0.28859581142E+01  0.72461564777E+02  0.69999992813E+02 0.  0.
         12    1    1    2    0    0 -0.18237021066E+02 -0.31243694657E+01  0.28859581142E+01  0.18726435223E+02  0.00000000000E+00 0. -1.
         11    1    3    3    0    0 -0.20780700812E+01  0.54930909807E+01 -0.60881339576E+01  0.84591843065E+01  0.51100000000E-03 0. -1.
        -11    1    3    3    0    0  0.97353309320E+01  0.28718788063E+02 -0.33765716637E+01  0.30511419053E+02  0.51100000000E-03 0.  1.
         12    1    3    3    0    0  0.10579760215E+02 -0.31087509578E+02  0.65787475071E+01  0.33490961418E+02  0.00000000000E+00 0. -1.
</event>
<event>
 7    1  0.2932741E-013  0.7246160E+02  0.7816164E-02  0.1226708E+00
        -11   -1    0    0    0    0  0.00000000000E+00  0.00000000000E+00  0.45593999997E+02  0.45594000000E+02  0.51100000000E-03 0. -1.
         11   -1    0    0    0    0 -0.00000000000E+00 -0.00000000000E+00 -0.45593999997E+02  0.45594000000E+02  0.51100000000E-03 0.  1.
    9900012    2    1    2    0    0  0.10211450281E+01  0.37510657385E+01 -0.18318426936E+02  0.72461601608E+02  0.70000040792E+02 0.  0.
         12    1    1    2    0    0 -0.10211450281E+01 -0.37510657385E+01  0.18318426936E+02  0.18726398392E+02  0.00000000000E+00 0. -1.
         11    1    3    3    0    0 -0.15166105678E+02 -0.95688041443E+01  0.93442250215E+01  0.20220962284E+02  0.51100000000E-03 0. -1.
        -11    1    3    3    0    0 -0.10303444810E+02 -0.56332326215E+01 -0.73356466064E+01  0.13845793445E+02  0.51100000000E-03 0.  1.
        -12    1    3    3    0    0  0.26490695517E+02  0.18953102504E+02 -0.20327005351E+02  0.38394845878E+02  0.00000000000E+00 0.  1.
</event>
<event>
 7    1  0.2932741E-013  0.7246146E+02  0.7816164E-02  0.1226708E+00
        -11   -1    0    0    0    0  0.00000000000E+00  0.00000000000E+00  0.45593999997E+02  0.45594000000E+02  0.51100000000E-03 0.  1.
         11   -1    0    0    0    0 -0.00000000000E+00 -0.00000000000E+00 -0.45593999997E+02  0.45594000000E+02  0.51100000000E-03 0. -1.
    9900012    2    1    2    0    0 -0.54416880335E+01  0.22400386603E+01  0.17777892034E+02  0.72461463027E+02  0.69999860264E+02 0.  0.
         12    1    1    2    0    0  0.54416880335E+01 -0.22400386603E+01 -0.17777892034E+02  0.18726536973E+02  0.00000000000E+00 0. -1.
         11    1    3    3    0    0 -0.29061023080E+00 -0.52141200745E+01  0.17922948029E+02  0.18668250287E+02  0.51100000000E-03 0. -1.
        -11    1    3    3    0    0 -0.89742259789E+01 -0.11968987115E+02  0.20377510191E+02  0.25279167437E+02  0.51100000000E-03 0.  1.
         12    1    3    3    0    0  0.38231481762E+01  0.19423145850E+02 -0.20522566186E+02  0.28514045303E+02  0.00000000000E+00 0. -1.
</event>
<event>
 7    1  0.2932741E-013  0.7246140E+02  0.7816164E-02  0.1226708E+00
        -11   -1    0    0    0    0  0.00000000000E+00  0.00000000000E+00  0.45593999997E+02  0.45594000000E+02  0.51100000000E-03 0.  1.
         11   -1    0    0    0    0 -0.00000000000E+00 -0.00000000000E+00 -0.45593999997E+02  0.45594000000E+02  0.51100000000E-03 0. -1.
    9900012    2    1    2    0    0  0.76606533018E+01  0.46039876634E+01  0.16456104076E+02  0.72461396657E+02  0.69999773805E+02 0.  0.
         12    1    1    2    0    0 -0.76606533018E+01 -0.46039876634E+01 -0.16456104076E+02  0.18726603343E+02  0.00000000000E+00 0. -1.
         11    1    3    3    0    0  0.81431146640E+01 -0.10409894453E+02  0.48327084482E+01  0.14072359083E+02  0.51100000000E-03 0. -1.
        -11    1    3    3    0    0  0.25713348019E+02  0.14138253107E+02 -0.86239807527E+00  0.29356603992E+02  0.51100000000E-03 0.  1.
         12    1    3    3    0    0 -0.26195809381E+02  0.87562901003E+00  0.12485793703E+02  0.29032433582E+02  0.00000000000E+00 0. -1.
</event>
<event>
 7    1  0.2932741E-013  0.7246154E+02  0.7816164E-02  0.1226708E+00
        -11   -1    0    0    0    0  0.00000000000E+00  0.00000000000E+00  0.45593999997E+02  0.45594000000E+02  0.51100000000E-03 0.  1.
         11   -1    0    0    0    0 -0.00000000000E+00 -0.00000000000E+00 -0.45593999997E+02  0.45594000000E+02  0.51100000000E-03 0. -1.
    9900012    2    1    2    0    0  0.70923790678E+01 -0.36049974741E+01  0.16952356662E+02  0.72461541605E+02  0.69999962627E+02 0.  0.
         12    1    1    2    0    0 -0.70923790678E+01  0.36049974741E+01 -0.16952356662E+02  0.18726458395E+02  0.00000000000E+00 0. -1.
         11    1    3    3    0    0  0.10309888796E+02  0.15986127559E+02  0.17060152422E+02  0.25551886079E+02  0.51100000000E-03 0. -1.
        -11    1    3    3    0    0  0.27371648663E+01  0.12147615458E+02 -0.64142521385E+01  0.14007114749E+02  0.51100000000E-03 0.  1.
        -12    1    3    3    0    0 -0.59546745943E+01 -0.31738740491E+02  0.63064563787E+01  0.32902540776E+02  0.00000000000E+00 0.  1.
</event>
<event>
 7    1  0.2932741E-013  0.7246133E+02  0.7816164E-02  0.1226709E+00
        -11   -1    0    0    0    0  0.00000000000E+00  0.00000000000E+00  0.45593999997E+02  0.45594000000E+02  0.51100000000E-03 0. -1.
         11   -1    0    0    0    0 -0.00000000000E+00 -0.00000000000E+00 -0.45593999997E+02  0.45594000000E+02  0.51100000000E-03 0.  1.
    9900012    2    1    2    0    0 -0.11871685859E+02 -0.14439311254E+02  0.11213984667E+01  0.72461330004E+02  0.69999686976E+02 0.  0.
         12    1    1    2    0    0  0.11871685859E+02  0.14439311254E+02 -0.11213984667E+01  0.18726669996E+02  0.00000000000E+00 0. -1.
         11    1    3    3    0    0 -0.17428855375E+02  0.12459492557E+02  0.16828364911E+02  0.27243307807E+02  0.51100000000E-03 0. -1.
        -11    1    3    3    0    0 -0.24558906104E+01  0.42034089084E+01 -0.11922311246E+02  0.12877948239E+02  0.51100000000E-03 0.  1.
         12    1    3    3    0    0  0.80130601259E+01 -0.31102212719E+02 -0.37846551988E+01  0.32340073958E+02  0.00000000000E+00 0. -1.
</event>
<event>
 7    1  0.2932741E-013  0.7246157E+02  0.7816164E-02  0.1226708E+00
        -11   -1    0    0    0    0  0.00000000000E+00  0.00000000000E+00  0.45593999997E+02  0.45594000000E+02  0.51100000000E-03 0. -1.
         11   -1    0    0    0    0 -0.00000000000E+00 -0.00000000000E+00 -0.45593999997E+02  0.45594000000E+02  0.51100000000E-03 0.  1.
    9900012    2    1    2    0    0 -0.53620222105E+01 -0.14842910876E+02 -0.10080472657E+02  0.72461569095E+02  0.69999998438E+02 0.  0.
         12    1    1    2    0    0  0.53620222105E+01  0.14842910876E+02  0.10080472657E+02  0.18726430905E+02  0.00000000000E+00 0. -1.
         11    1    3    3    0    0 -0.11765769341E+02  0.66235639852E+01  0.20022771632E+01  0.13649690185E+02  0.51100000000E-03 0. -1.
        -11    1    3    3    0    0 -0.90316604635E+01 -0.21864303747E+02  0.14732636082E+02  0.27868786038E+02  0.51100000000E-03 0.  1.
         12    1    3    3    0    0  0.15435407594E+02  0.39782888631E+00 -0.26815385901E+02  0.30943092872E+02  0.00000000000E+00 0. -1.
</event>
<event>
 7    1  0.2932741E-013  0.7246169E+02  0.7816164E-02  0.1226708E+00
        -11   -1    0    0    0    0  0.00000000000E+00  0.00000000000E+00  0.45593999997E+02  0.45594000000E+02  0.51100000000E-03 0.  1.
         11   -1    0    0    0    0 -0.00000000000E+00 -0.00000000000E+00 -0.45593999997E+02  0.45594000000E+02  0.51100000000E-03 0. -1.
    9900012    2    1    2    0    0  0.13315376022E+02  0.30452967784E+01  0.12810218960E+02  0.72461687472E+02  0.70000152646E+02 0.  0.
         12    1    1    2    0    0 -0.13315376022E+02 -0.30452967784E+01 -0.12810218960E+02  0.18726312528E+02  0.00000000000E+00 0. -1.
         11    1    3    3    0    0 -0.94100496937E+01 -0.68229168077E+01  0.98286271735E+01  0.15221798231E+02  0.51100000000E-03 0. -1.
        -11    1    3    3    0    0  0.15067410818E+02 -0.16654900054E+02 -0.12382029972E+02  0.25646193305E+02  0.51100000000E-03 0.  1.
        -12    1    3    3    0    0  0.76580148980E+01  0.26523113640E+02  0.15363621759E+02  0.31593695936E+02  0.00000000000E+00 0.  1.
</event>
<event>
 7    1  0.2932741E-013  0.7246141E+02  0.7816164E-02  0.1226708E+00
        -11   -1    0    0    0    0  0.00000000000E+00  0.00000000000E+00  0.45593999997E+02  0.45594000000E+02  0.51100000000E-03 0.  1.
         11   -1    0    0    0    0 -0.00000000000E+00 -0.00000000000E+00 -0.45593999997E+02  0.45594000000E+02  0.51100000000E-03 0. -1.
    9900012    2    1    2    0    0 -0.61383000875E+01 -0.17688739735E+02 -0.33874412499E+00  0.72461414914E+02  0.69999797588E+02 0.  0.
         12    1    1    2    0    0  0.61383000875E+01  0.17688739735E+02  0.33874412499E+00  0.18726585086E+02  0.00000000000E+00 0. -1.
         11    1    3    3    0    0  0.53364450263E+01  0.11978314860E+02 -0.42635672566E+01  0.13788969447E+02  0.51100000000E-03 0. -1.
        -11    1    3    3    0    0 -0.26257778879E+02 -0.13463014620E+01  0.47352981319E+01  0.26715286409E+02  0.51100000000E-03 0.  1.
        -12    1    3    3    0    0  0.14783033765E+02 -0.28320753133E+02 -0.81047500034E+00  0.31957159058E+02  0.00000000000E+00 0.  1.
</event>
<event>
 7    1  0.2932741E-013  0.7246150E+02  0.7816164E-02  0.1226708E+00
        -11   -1    0    0    0    0  0.00000000000E+00  0.00000000000E+00  0.45593999997E+02  0.45594000000E+02  0.51100000000E-03 0.  1.
         11   -1    0    0    0    0 -0.00000000000E+00 -0.00000000000E+00 -0.45593999997E+02  0.45594000000E+02  0.51100000000E-03 0. -1.
    9900012    2    1    2    0    0  0.73000254626E+01  0.13119993825E+02  0.11191829782E+02  0.72461503702E+02  0.69999913251E+02 0.  0.
         12    1    1    2    0    0 -0.73000254626E+01 -0.13119993825E+02 -0.11191829782E+02  0.18726496298E+02  0.00000000000E+00 0. -1.
         11    1    3    3    0    0 -0.21374405777E+02  0.13735081419E+01  0.83060521980E+01  0.22972641343E+02  0.51100000000E-03 0. -1.
        -11    1    3    3    0    0 -0.45531558101E+01 -0.82061889385E+01  0.50751025603E+01  0.10669087636E+02  0.51100000000E-03 0.  1.
        -12    1    3    3    0    0  0.33227587049E+02  0.19952674622E+02 -0.21893249766E+01  0.38819774723E+02  0.00000000000E+00 0.  1.
</event>
<event>
 7    1  0.2932741E-013  0.7246158E+02  0.7816164E-02  0.1226708E+00
        -11   -1    0    0    0    0  0.00000000000E+00  0.00000000000E+00  0.45593999997E+02  0.45594000000E+02  0.51100000000E-03 0.  1.
         11   -1    0    0    0    0 -0.00000000000E+00 -0.00000000000E+00 -0.45593999997E+02  0.45594000000E+02  0.51100000000E-03 0. -1.
    9900012    2    1    2    0    0 -0.12274490147E+02  0.12162080930E+02 -0.72180100793E+01  0.72461575076E+02  0.70000006230E+02 0.  0.
         12    1    1    2    0    0  0.12274490147E+02 -0.12162080930E+02  0.72180100793E+01  0.18726424924E+02  0.00000000000E+00 0. -1.
         11    1    3    3    0    0 -0.58445333186E+01 -0.57517680384E+01 -0.24828531430E+02  0.26147607510E+02  0.51100000000E-03 0. -1.
        -11    1    3    3    0    0  0.90957958475E+01 -0.76807614343E+01  0.68432710825E+00  0.11924592327E+02  0.51100000000E-03 0.  1.
        -12    1    3    3    0    0 -0.15525752676E+02  0.25594610403E+02  0.16926194242E+02  0.34389375239E+02  0.00000000000E+00 0.  1.
</event>
<event>
 7    1  0.2932741E-013  0.7246158E+02  0.7816164E-02  0.1226708E+00
        -11   -1    0    0    0    0  0.00000000000E+00  0.00000000000E+00  0.45593999997E+02  0.45594000000E+02  0.51100000000E-03 0.  1.
         11   -1    0    0    0    0 -0.00000000000E+00 -0.00000000000E+00 -0.45593999997E+02  0.45594000000E+02  0.51100000000E-03 0. -1.
    9900012    2    1    2    0    0 -0.82834514991E+01  0.12897520244E+02  0.10757201765E+02  0.72461575168E+02  0.70000006348E+02 0.  0.
         12    1    1    2    0    0  0.82834514991E+01 -0.12897520244E+02 -0.10757201765E+02  0.18726424832E+02  0.00000000000E+00 0. -1.
         11    1    3    3    0    0 -0.19241632758E+02 -0.17982307647E+02 -0.11342643128E+02  0.28675065351E+02  0.51100000000E-03 0. -1.
        -11    1    3    3    0    0  0.77010747109E+01  0.11845413093E+02 -0.40190204510E+00  0.14134422117E+02  0.51100000000E-03 0.  1.
        -12    1    3    3    0    0  0.32571065479E+01  0.19034414798E+02  0.22501746938E+02  0.29652087700E+02  0.00000000000E+00 0.  1.
</event>
<event>
 7    1  0.2932741E-013  0.7246155E+02  0.7816164E-02  0.1226708E+00
        -11   -1    0    0    0    0  0.00000000000E+00  0.00000000000E+00  0.45593999997E+02  0.45594000000E+02  0.51100000000E-03 0.  1.
         11   -1    0    0    0    0 -0.00000000000E+00 -0.00000000000E+00 -0.45593999997E+02  0.45594000000E+02  0.51100000000E-03 0. -1.
    9900012    2    1    2    0    0  0.11297011415E+02  0.96292263601E+01  0.11416461729E+02  0.72461546368E+02  0.69999968831E+02 0.  0.
         12    1    1    2    0    0 -0.11297011415E+02 -0.96292263601E+01 -0.11416461729E+02  0.18726453632E+02  0.00000000000E+00 0. -1.
         11    1    3    3    0    0 -0.54324377267E+01 -0.38396009590E+01 -0.12172658859E+02  0.13871825371E+02  0.51100000000E-03 0. -1.
        -11    1    3    3    0    0  0.20301304426E+02 -0.79192903348E+01 -0.53398454888E+01  0.22435954869E+02  0.51100000000E-03 0.  1.
         12    1    3    3    0    0 -0.35718552835E+01  0.21388117654E+02  0.28928966077E+02  0.36153766128E+02  0.00000000000E+00 0. -1.
</event>
<event>
 7    1  0.2932741E-013  0.7246158E+02  0.7816164E-02  0.1226708E+00
        -11   -1    0    0    0    0  0.00000000000E+00  0.00000000000E+00  0.45593999997E+02  0.45594000000E+02  0.51100000000E-03 0. -1.
         11   -1    0    0    0    0 -0.00000000000E+00 -0.00000000000E+00 -0.45593999997E+02  0.45594000000E+02  0.51100000000E-03 0.  1.
    9900012    2    1    2    0    0 -0.18009806538E+01  0.17669734346E+02 -0.59342985826E+01  0.72461576347E+02  0.70000007885E+02 0.  0.
         12    1    1    2    0    0  0.18009806538E+01 -0.17669734346E+02  0.59342985826E+01  0.18726423653E+02  0.00000000000E+00 0. -1.
         11    1    3    3    0    0 -0.18474674911E+02  0.93107817458E+01  0.22485841526E+02  0.30555152416E+02  0.51100000000E-03 0. -1.
        -11    1    3    3    0    0 -0.20882821933E+01  0.40389920530E+01 -0.20650068606E+02  0.21144732512E+02  0.51100000000E-03 0.  1.
        -12    1    3    3    0    0  0.18761976450E+02  0.43199605468E+01 -0.77700715024E+01  0.20761691419E+02  0.00000000000E+00 0.  1.
</event>
<event>
 7    1  0.2932741E-013  0.7246160E+02  0.7816164E-02  0.1226708E+00
        -11   -1    0    0    0    0  0.00000000000E+00  0.00000000000E+00  0.45593999997E+02  0.45594000000E+02  0.51100000000E-03 0.  1.
         11   -1    0    0    0    0 -0.00000000000E+00 -0.00000000000E+00 -0.45593999997E+02  0.45594000000E+02  0.51100000000E-03 0. -1.
    9900012    2    1    2    0    0 -0.62215063904E+01  0.12085179028E+02  0.12880963130E+02  0.72461604056E+02  0.70000043981E+02 0.  0.
         12    1    1    2    0    0  0.62215063904E+01 -0.12085179028E+02 -0.12880963130E+02  0.18726395944E+02  0.00000000000E+00 0. -1.
         11    1    3    3    0    0  0.14039478035E+02  0.17688061728E+02  0.28164043207E+01  0.22757561485E+02  0.51100000000E-03 0. -1.
        -11    1    3    3    0    0 -0.22887317564E+02  0.11183519074E+02 -0.61636478500E+01  0.26208604680E+02  0.51100000000E-03 0.  1.
        -12    1    3    3    0    0  0.26263331388E+01 -0.16786401775E+02  0.16228206659E+02  0.23495437891E+02  0.00000000000E+00 0.  1.
</event>
<event>
 7    1  0.2932741E-013  0.7246156E+02  0.7816164E-02  0.1226708E+00
        -11   -1    0    0    0    0  0.00000000000E+00  0.00000000000E+00  0.45593999997E+02  0.45594000000E+02  0.51100000000E-03 0.  1.
         11   -1    0    0    0    0 -0.00000000000E+00 -0.00000000000E+00 -0.45593999997E+02  0.45594000000E+02  0.51100000000E-03 0. -1.
    9900012    2    1    2    0    0  0.17634933291E+02  0.49709338294E+01  0.38701933322E+01  0.72461562759E+02  0.69999990184E+02 0.  0.
         12    1    1    2    0    0 -0.17634933291E+02 -0.49709338294E+01 -0.38701933322E+01  0.18726437241E+02  0.00000000000E+00 0. -1.
         11    1    3    3    0    0  0.12778439839E+02 -0.14690995456E+02  0.70848067539E+00  0.19483732120E+02  0.51100000000E-03 0. -1.
        -11    1    3    3    0    0  0.17600715374E+01  0.10898378758E+02  0.26040090556E+02  0.28283543409E+02  0.51100000000E-03 0.  1.
         12    1    3    3    0    0  0.30964219148E+01  0.87635505270E+01 -0.22878377899E+02  0.24694287230E+02  0.00000000000E+00 0. -1.
</event>
<event>
 7    1  0.2932741E-013  0.7246153E+02  0.7816164E-02  0.1226708E+00
        -11   -1    0    0    0    0  0.00000000000E+00  0.00000000000E+00  0.45593999997E+02  0.45594000000E+02  0.51100000000E-03 0.  1.
         11   -1    0    0    0    0 -0.00000000000E+00 -0.00000000000E+00 -0.45593999997E+02  0.45594000000E+02  0.51100000000E-03 0. -1.
    9900012    2    1    2    0    0  0.15953564908E+02 -0.26117775125E+01 -0.94521414976E+01  0.72461532262E+02  0.69999950455E+02 0.  0.
         12    1    1    2    0    0 -0.15953564908E+02  0.26117775125E+01  0.94521414976E+01  0.18726467738E+02  0.00000000000E+00 0. -1.
         11    1    3    3    0    0  0.93434204426E+01 -0.75648496130E+01  0.16852535028E+02  0.20701072252E+02  0.51100000000E-03 0. -1.
        -11    1    3    3    0    0  0.38181964592E+01  0.13304324698E+02  0.82418442908E+01  0.16109366140E+02  0.51100000000E-03 0.  1.
         12    1    3    3    0    0  0.27919480066E+01 -0.83512525970E+01 -0.34546520816E+02  0.35651093870E+02  0.00000000000E+00 0. -1.
</event>
<event>
 7    1  0.2932741E-013  0.7246160E+02  0.7816164E-02  0.1226708E+00
        -11   -1    0    0    0    0  0.00000000000E+00  0.00000000000E+00  0.45593999997E+02  0.45594000000E+02  0.51100000000E-03 0. -1.
         11   -1    0    0    0    0 -0.00000000000E+00 -0.00000000000E+00 -0.45593999997E+02  0.45594000000E+02  0.51100000000E-03 0.  1.
    9900012    2    1    2    0    0  0.21879786302E+01  0.69110363462E+01 -0.17266397010E+02  0.72461597794E+02  0.70000035823E+02 0.  0.
         12    1    1    2    0    0 -0.21879786302E+01 -0.69110363462E+01  0.17266397010E+02  0.18726402206E+02  0.00000000000E+00 0. -1.
         11    1    3    3    0    0 -0.41304556409E+01 -0.29612075762E+01 -0.11897660423E+01  0.52196702585E+01  0.51100000000E-03 0. -1.
        -11    1    3    3    0    0  0.53172660994E+01 -0.23928848600E+02  0.79387183587E+01  0.25765992384E+02  0.51100000000E-03 0.  1.
         12    1    3    3    0    0  0.10011681717E+01  0.33801092522E+02 -0.24015349327E+02  0.41475935152E+02  0.00000000000E+00 0. -1.
</event>
<event>
 7    1  0.2932741E-013  0.7246165E+02  0.7816164E-02  0.1226708E+00
        -11   -1    0    0    0    0  0.00000000000E+00  0.00000000000E+00  0.45593999997E+02  0.45594000000E+02  0.51100000000E-03 0.  1.
         11   -1    0    0    0    0 -0.00000000000E+00 -0.00000000000E+00 -0.45593999997E+02  0.45594000000E+02  0.51100000000E-03 0. -1.
    9900012    2    1    2    0    0  0.15725366239E+01  0.42931560136E+01  0.18159629125E+02  0.72461649850E+02  0.70000103635E+02 0.  0.
         12    1    1    2    0    0 -0.15725366239E+01 -0.42931560136E+01 -0.18159629125E+02  0.18726350150E+02  0.00000000000E+00 0. -1.
         11    1    3    3    0    0  0.17475753062E+02 -0.26371878608E+02 -0.15833854785E+01  0.31676253507E+02  0.51100000000E-03 0. -1.
        -11    1    3    3    0    0 -0.24061344867E+01  0.42678761062E+00  0.23115474908E+01  0.33637602316E+01  0.51100000000E-03 0.  1.
        -12    1    3    3    0    0 -0.13497081952E+02  0.30238247011E+02  0.17431467113E+02  0.37421636111E+02  0.00000000000E+00 0.  1.
</event>
<event>
 7    1  0.2932741E-013  0.7246167E+02  0.7816164E-02  0.1226708E+00
        -11   -1    0    0    0    0  0.00000000000E+00  0.00000000000E+00  0.45593999997E+02  0.45594000000E+02  0.51100000000E-03 0. -1.
         11   -1    0    0    0    0 -0.00000000000E+00 -0.00000000000E+00 -0.45593999997E+02  0.45594000000E+02  0.51100000000E-03 0.  1.
    9900012    2    1    2    0    0  0.51371177884E+01  0.14573521017E+02 -0.10578189315E+02  0.72461666051E+02  0.70000124741E+02 0.  0.
         12    1    1    2    0    0 -0.51371177884E+01 -0.14573521017E+02  0.10578189315E+02  0.18726333949E+02  0.00000000000E+00 0. -1.
         11    1    3    3    0    0 -0.67455331229E+01  0.30688902386E+02  0.66306932109E+01  0.32113502448E+02  0.51100000000E-03 0. -1.
        -11    1    3    3    0    0  0.10699791496E+02  0.69582900187E+01 -0.26376032615E+01  0.13033046047E+02  0.51100000000E-03 0.  1.
        -12    1    3    3    0    0  0.11828594152E+01 -0.23073671388E+02 -0.14571279264E+02  0.27315117556E+02  0.00000000000E+00 0.  1.
</event>
<event>
 7    1  0.2932741E-013  0.7246155E+02  0.7816164E-02  0.1226708E+00
        -11   -1    0    0    0    0  0.00000000000E+00  0.00000000000E+00  0.45593999997E+02  0.45594000000E+02  0.51100000000E-03 0.  1.
         11   -1    0    0    0    0 -0.00000000000E+00 -0.00000000000E+00 -0.45593999997E+02  0.45594000000E+02  0.51100000000E-03 0. -1.
    9900012    2    1    2    0    0 -0.10898101267E+02 -0.55111832643E+01  0.14196409044E+02  0.72461553942E+02  0.69999978699E+02 0.  0.
         12    1    1    2    0    0  0.10898101267E+02  0.55111832643E+01 -0.14196409044E+02  0.18726446058E+02  0.00000000000E+00 0. -1.
         11    1    3    3    0    0 -0.37966966024E+01  0.13361347239E+02 -0.54290234787E+01  0.14913577750E+02  0.51100000000E-03 0. -1.
        -11    1    3    3    0    0 -0.24419041273E+02 -0.19619796788E+02 -0.52170355256E-01  0.31324570623E+02  0.51100000000E-03 0.  1.
        -12    1    3    3    0    0  0.17317636609E+02  0.74726628487E+00  0.19677602878E+02  0.26223405569E+02  0.00000000000E+00 0.  1.
</event>
<event>
 7    1  0.2932741E-013  0.7246153E+02  0.7816164E-02  0.1226708E+00
        -11   -1    0    0    0    0  0.00000000000E+00  0.00000000000E+00  0.45593999997E+02  0.45594000000E+02  0.51100000000E-03 0.  1.
         11   -1    0    0    0    0 -0.00000000000E+00 -0.00000000000E+00 -0.45593999997E+02  0.45594000000E+02  0.51100000000E-03 0. -1.
    9900012    2    1    2    0    0  0.67701782951E+01 -0.16238538729E+02  0.64152314135E+01  0.72461530811E+02  0.69999948566E+02 0.  0.
         12    1    1    2    0    0 -0.67701782951E+01  0.16238538729E+02 -0.64152314135E+01  0.18726469189E+02  0.00000000000E+00 0. -1.
         11    1    3    3    0    0  0.15063456730E+02 -0.10543011171E+02  0.90416309153E+01  0.20489360728E+02  0.51100000000E-03 0.  1.
        -11    1    3    3    0    0 -0.26510546256E+02 -0.13916586387E+02  0.54181719510E+01  0.30427570179E+02  0.51100000000E-03 0. -1.
         12    1    3    3    0    0  0.18217267821E+02  0.82210588292E+01 -0.80445714528E+01  0.21544599904E+02  0.00000000000E+00 0. -1.
</event>
<event>
 7    1  0.2932741E-013  0.7246155E+02  0.7816164E-02  0.1226708E+00
        -11   -1    0    0    0    0  0.00000000000E+00  0.00000000000E+00  0.45593999997E+02  0.45594000000E+02  0.51100000000E-03 0.  1.
         11   -1    0    0    0    0 -0.00000000000E+00 -0.00000000000E+00 -0.45593999997E+02  0.45594000000E+02  0.51100000000E-03 0. -1.
    9900012    2    1    2    0    0 -0.74836347707E+01  0.13250428781E+02  0.10913345910E+02  0.72461554229E+02  0.69999979072E+02 0.  0.
         12    1    1    2    0    0  0.74836347707E+01 -0.13250428781E+02 -0.10913345910E+02  0.18726445771E+02  0.00000000000E+00 0. -1.
         11    1    3    3    0    0  0.72482927089E+01  0.85285234989E+00 -0.99995418163E+01  0.12379658360E+02  0.51100000000E-03 0. -1.
        -11    1    3    3    0    0 -0.19677138816E+02 -0.12059633745E+02 -0.55225796562E+01  0.23730222173E+02  0.51100000000E-03 0.  1.
        -12    1    3    3    0    0  0.49452113361E+01  0.24457210176E+02  0.26435467383E+02  0.36351673696E+02  0.00000000000E+00 0.  1.
</event>
<event>
 7    1  0.2932741E-013  0.7246160E+02  0.7816164E-02  0.1226708E+00
        -11   -1    0    0    0    0  0.00000000000E+00  0.00000000000E+00  0.45593999997E+02  0.45594000000E+02  0.51100000000E-03 0. -1.
         11   -1    0    0    0    0 -0.00000000000E+00 -0.00000000000E+00 -0.45593999997E+02  0.45594000000E+02  0.51100000000E-03 0.  1.
    9900012    2    1    2    0    0  0.80473028229E+00 -0.18569313239E+02 -0.22827989785E+01  0.72461597351E+02  0.70000035246E+02 0.  0.
         12    1    1    2    0    0 -0.80473028229E+00  0.18569313239E+02  0.22827989785E+01  0.18726402649E+02  0.00000000000E+00 0. -1.
         11    1    3    3    0    0  0.63472059508E+01 -0.14122253663E+02 -0.12213474507E+02  0.19720396337E+02  0.51100000000E-03 0. -1.
        -11    1    3    3    0    0 -0.17733872276E+01  0.15671785004E+02 -0.14113332789E+02  0.21164496453E+02  0.51100000000E-03 0.  1.
         12    1    3    3    0    0 -0.37690884409E+01 -0.20118844580E+02  0.24044008317E+02  0.31576704560E+02  0.00000000000E+00 0. -1.
</event>
<event>
 7    1  0.2932741E-013  0.7246156E+02  0.7816164E-02  0.1226708E+00
        -11   -1    0    0    0    0  0.00000000000E+00  0.00000000000E+00  0.45593999997E+02  0.45594000000E+02  0.51100000000E-03 0.  1.
         11   -1    0    0    0    0 -0.00000000000E+00 -0.00000000000E+00 -0.45593999997E+02  0.45594000000E+02  0.51100000000E-03 0. -1.
    9900012    2    1    2    0    0 -0.18655208746E+02 -0.20087831582E+00  0.16193392379E+01  0.72461563473E+02  0.69999991113E+02 0.  0.
         12    1    1    2    0    0  0.18655208746E+02  0.20087831582E+00 -0.16193392379E+01  0.18726436527E+02  0.00000000000E+00 0. -1.
         11    1    3    3    0    0 -0.12561096433E+02 -0.20188393389E+02 -0.19709920575E+02  0.30884192406E+02  0.51100000000E-03 0. -1.
        -11    1    3    3    0    0 -0.16243474481E+02  0.43100686735E+01  0.12346833408E+02  0.20853571652E+02  0.51100000000E-03 0.  1.
        -12    1    3    3    0    0  0.10149362169E+02  0.15677446400E+02  0.89824264047E+01  0.20723799414E+02  0.00000000000E+00 0.  1.
</event>
<event>
 7    1  0.2932741E-013  0.7246157E+02  0.7816164E-02  0.1226708E+00
        -11   -1    0    0    0    0  0.00000000000E+00  0.00000000000E+00  0.45593999997E+02  0.45594000000E+02  0.51100000000E-03 0. -1.
         11   -1    0    0    0    0 -0.00000000000E+00 -0.00000000000E+00 -0.45593999997E+02  0.45594000000E+02  0.51100000000E-03 0.  1.
    9900012    2    1    2    0    0  0.14338296902E+02  0.20816486704E+01 -0.11864194847E+02  0.72461571120E+02  0.70000001075E+02 0.  0.
         12    1    1    2    0    0 -0.14338296902E+02 -0.20816486704E+01  0.11864194847E+02  0.18726428880E+02  0.00000000000E+00 0. -1.
         11    1    3    3    0    0  0.72080036068E+01  0.19138138897E+02  0.18848952477E+02  0.27811988173E+02  0.51100000000E-03 0. -1.
        -11    1    3    3    0    0 -0.59945217868E+01  0.12907599919E+01  0.48396680244E+00  0.61509817863E+01  0.51100000000E-03 0.  1.
        -12    1    3    3    0    0  0.13124815082E+02 -0.18347250218E+02 -0.31197114126E+02  0.38498601160E+02  0.00000000000E+00 0.  1.
</event>
<event>
 7    1  0.2932741E-013  0.7246157E+02  0.7816164E-02  0.1226708E+00
        -11   -1    0    0    0    0  0.00000000000E+00  0.00000000000E+00  0.45593999997E+02  0.45594000000E+02  0.51100000000E-03 0.  1.
         11   -1    0    0    0    0 -0.00000000000E+00 -0.00000000000E+00 -0.45593999997E+02  0.45594000000E+02  0.51100000000E-03 0. -1.
    9900012    2    1    2    0    0  0.50428403513E+01 -0.42915562107E+01  0.17516606148E+02  0.72461569895E+02  0.69999999480E+02 0.  0.
         12    1    1    2    0    0 -0.50428403513E+01  0.42915562107E+01 -0.17516606148E+02  0.18726430105E+02  0.00000000000E+00 0. -1.
         11    1    3    3    0    0 -0.95346738725E+00  0.38627481738E+01  0.63215318641E+00  0.40285905010E+01  0.51100000000E-03 0. -1.
        -11    1    3    3    0    0  0.15736181762E+02  0.96936310554E+01  0.36037124317E+02  0.40500225046E+02  0.51100000000E-03 0.  1.
         12    1    3    3    0    0 -0.97398740238E+01 -0.17847935440E+02 -0.19152671355E+02  0.27932754348E+02  0.00000000000E+00 0. -1.
</event>
<event>
 7    1  0.2932741E-013  0.7246157E+02  0.7816164E-02  0.1226708E+00
        -11   -1    0    0    0    0  0.00000000000E+00  0.00000000000E+00  0.45593999997E+02  0.45594000000E+02  0.51100000000E-03 0.  1.
         11   -1    0    0    0    0 -0.00000000000E+00 -0.00000000000E+00 -0.45593999997E+02  0.45594000000E+02  0.51100000000E-03 0. -1.
    9900012    2    1    2    0    0 -0.15169351123E+02  0.65656905662E+01  0.88012267484E+01  0.72461572194E+02  0.70000002474E+02 0.  0.
         12    1    1    2    0    0  0.15169351123E+02 -0.65656905662E+01 -0.88012267484E+01  0.18726427806E+02  0.00000000000E+00 0. -1.
         11    1    3    3    0    0  0.51900266388E+01  0.37253651937E+01  0.30039775973E+01  0.70596461671E+01  0.51100000000E-03 0. -1.
        -11    1    3    3    0    0  0.36424414031E+01 -0.17969613788E+02  0.22890346650E+02  0.29328183870E+02  0.51100000000E-03 0.  1.
        -12    1    3    3    0    0 -0.24001819165E+02  0.20809939160E+02 -0.17093097499E+02  0.36073742157E+02  0.00000000000E+00 0.  1.
</event>
<event>
 7    1  0.2932741E-013  0.7246158E+02  0.7816164E-02  0.1226708E+00
        -11   -1    0    0    0    0  0.00000000000E+00  0.00000000000E+00  0.45593999997E+02  0.45594000000E+02  0.51100000000E-03 0.  1.
         11   -1    0    0    0    0 -0.00000000000E+00 -0.00000000000E+00 -0.45593999997E+02  0.45594000000E+02  0.51100000000E-03 0. -1.
    9900012    2    1    2    0    0  0.56800907806E+01  0.17657392319E+02  0.25752515140E+01  0.72461578688E+02  0.70000010934E+02 0.  0.
         12    1    1    2    0    0 -0.56800907806E+01 -0.17657392319E+02 -0.25752515140E+01  0.18726421312E+02  0.00000000000E+00 0. -1.
         11    1    3    3    0    0 -0.18003764733E+02  0.96943580128E+01  0.98350386780E+01  0.22690176463E+02  0.51100000000E-03 0. -1.
        -11    1    3    3    0    0  0.20173928918E+02  0.24073637364E+02 -0.10198040639E+02  0.33023135179E+02  0.51100000000E-03 0.  1.
         12    1    3    3    0    0  0.35099265960E+01 -0.16110603057E+02  0.29382534748E+01  0.16748267047E+02  0.00000000000E+00 0. -1.
</event>
<event>
 7    1  0.2932741E-013  0.7246164E+02  0.7816164E-02  0.1226708E+00
        -11   -1    0    0    0    0  0.00000000000E+00  0.00000000000E+00  0.45593999997E+02  0.45594000000E+02  0.51100000000E-03 0.  1.
         11   -1    0    0    0    0 -0.00000000000E+00 -0.00000000000E+00 -0.45593999997E+02  0.45594000000E+02  0.51100000000E-03 0. -1.
    9900012    2    1    2    0    0 -0.30259868793E+01 -0.40897984138E+01  0.18022031204E+02  0.72461637396E+02  0.70000087413E+02 0.  0.
         12    1    1    2    0    0  0.30259868793E+01  0.40897984138E+01 -0.18022031204E+02  0.18726362604E+02  0.00000000000E+00 0. -1.
         11    1    3    3    0    0 -0.15054535442E+02  0.11524392212E+02  0.26831911092E+01  0.19148111343E+02  0.51100000000E-03 0. -1.
        -11    1    3    3    0    0  0.12029721627E+02  0.85980980169E+01  0.23498172970E+02  0.27763386413E+02  0.51100000000E-03 0.  1.
         12    1    3    3    0    0 -0.11730650823E-02 -0.24212288642E+02 -0.81593328752E+01  0.25550139641E+02  0.00000000000E+00 0. -1.
</event>
<event>
 7    1  0.2932741E-013  0.7246156E+02  0.7816164E-02  0.1226708E+00
        -11   -1    0    0    0    0  0.00000000000E+00  0.00000000000E+00  0.45593999997E+02  0.45594000000E+02  0.51100000000E-03 0.  1.
         11   -1    0    0    0    0 -0.00000000000E+00 -0.00000000000E+00 -0.45593999997E+02  0.45594000000E+02  0.51100000000E-03 0. -1.
    9900012    2    1    2    0    0  0.68139218804E+01  0.17404673560E+02  0.11520319558E+01  0.72461564921E+02  0.69999993001E+02 0.  0.
         12    1    1    2    0    0 -0.68139218804E+01 -0.17404673560E+02 -0.11520319558E+01  0.18726435079E+02  0.00000000000E+00 0. -1.
         11    1    3    3    0    0  0.23938662271E+02  0.40140482921E+01  0.52165459496E+01  0.24827091793E+02  0.51100000000E-03 0. -1.
        -11    1    3    3    0    0  0.72477098674E+01  0.19791622868E+02  0.34084080362E+01  0.21350758293E+02  0.51100000000E-03 0.  1.
         12    1    3    3    0    0 -0.24372450258E+02 -0.64009976004E+01 -0.74729220300E+01  0.26283714835E+02  0.00000000000E+00 0. -1.
</event>
<event>
 7    1  0.2932741E-013  0.7246171E+02  0.7816164E-02  0.1226708E+00
        -11   -1    0    0    0    0  0.00000000000E+00  0.00000000000E+00  0.45593999997E+02  0.45594000000E+02  0.51100000000E-03 0. -1.
         11   -1    0    0    0    0 -0.00000000000E+00 -0.00000000000E+00 -0.45593999997E+02  0.45594000000E+02  0.51100000000E-03 0.  1.
    9900012    2    1    2    0    0  0.11907328191E+02  0.91047306061E+01 -0.11224673948E+02  0.72461711278E+02  0.70000183657E+02 0.  0.
         12    1    1    2    0    0 -0.11907328191E+02 -0.91047306061E+01  0.11224673948E+02  0.18726288722E+02  0.00000000000E+00 0. -1.
         11    1    3    3    0    0 -0.25477204742E+01 -0.12682859794E+02  0.15227114234E+02  0.19980260767E+02  0.51100000000E-03 0. -1.
        -11    1    3    3    0    0 -0.90027791690E+01 -0.44878833323E+01 -0.68656039754E+01  0.12178983857E+02  0.51100000000E-03 0.  1.
        -12    1    3    3    0    0  0.23457827835E+02  0.26275473733E+02 -0.19586184207E+02  0.40302466654E+02  0.00000000000E+00 0.  1.
</event>
<event>
 7    1  0.2932741E-013  0.7246159E+02  0.7816164E-02  0.1226708E+00
        -11   -1    0    0    0    0  0.00000000000E+00  0.00000000000E+00  0.45593999997E+02  0.45594000000E+02  0.51100000000E-03 0.  1.
         11   -1    0    0    0    0 -0.00000000000E+00 -0.00000000000E+00 -0.45593999997E+02  0.45594000000E+02  0.51100000000E-03 0. -1.
    9900012    2    1    2    0    0  0.15922535145E+02  0.10520787906E+01 -0.98002309988E+01  0.72461587561E+02  0.70000022493E+02 0.  0.
         12    1    1    2    0    0 -0.15922535145E+02 -0.10520787906E+01  0.98002309988E+01  0.18726412439E+02  0.00000000000E+00 0. -1.
         11    1    3    3    0    0  0.12130761111E+02  0.17793292800E+02  0.16697709845E+01  0.21599647432E+02  0.51100000000E-03 0. -1.
        -11    1    3    3    0    0  0.20680228032E+02 -0.20017234597E+02  0.22336273482E+01  0.28867812590E+02  0.51100000000E-03 0.  1.
         12    1    3    3    0    0 -0.16888453998E+02  0.32760205873E+01 -0.13703629332E+02  0.21994127539E+02  0.00000000000E+00 0. -1.
</event>
<event>
 7    1  0.2932741E-013  0.7246153E+02  0.7816164E-02  0.1226708E+00
        -11   -1    0    0    0    0  0.00000000000E+00  0.00000000000E+00  0.45593999997E+02  0.45594000000E+02  0.51100000000E-03 0.  1.
         11   -1    0    0    0    0 -0.00000000000E+00 -0.00000000000E+00 -0.45593999997E+02  0.45594000000E+02  0.51100000000E-03 0. -1.
    9900012    2    1    2    0    0  0.13973311871E+02 -0.15240397139E+01  0.12373542837E+02  0.72461529323E+02  0.69999946627E+02 0.  0.
         12    1    1    2    0    0 -0.13973311871E+02  0.15240397139E+01 -0.12373542837E+02  0.18726470677E+02  0.00000000000E+00 0. -1.
         11    1    3    3    0    0  0.15094348838E+02 -0.10918722234E+02  0.49327973272E+01  0.19271490648E+02  0.51100000000E-03 0. -1.
        -11    1    3    3    0    0  0.11456091865E+02  0.88987154694E+01  0.26581184269E+02  0.30281818559E+02  0.51100000000E-03 0.  1.
        -12    1    3    3    0    0 -0.12577128832E+02  0.49596705117E+00 -0.19140438760E+02  0.22908220116E+02  0.00000000000E+00 0.  1.
</event>
<event>
 7    1  0.2932741E-013  0.7246159E+02  0.7816164E-02  0.1226708E+00
        -11   -1    0    0    0    0  0.00000000000E+00  0.00000000000E+00  0.45593999997E+02  0.45594000000E+02  0.51100000000E-03 0. -1.
         11   -1    0    0    0    0 -0.00000000000E+00 -0.00000000000E+00 -0.45593999997E+02  0.45594000000E+02  0.51100000000E-03 0.  1.
    9900012    2    1    2    0    0 -0.95979844625E+01 -0.15602829468E+02  0.38870052464E+01  0.72461590763E+02  0.70000026664E+02 0.  0.
         12    1    1    2    0    0  0.95979844625E+01  0.15602829468E+02 -0.38870052464E+01  0.18726409237E+02  0.00000000000E+00 0. -1.
         11    1    3    3    0    0 -0.10671228932E+01  0.12118309443E+01  0.44601996436E+01  0.47434867585E+01  0.51100000000E-03 0. -1.
        -11    1    3    3    0    0 -0.15706861970E+02  0.21713993016E+02  0.72303318725E+01  0.27757534201E+02  0.51100000000E-03 0.  1.
        -12    1    3    3    0    0  0.71760004008E+01 -0.38528653428E+02 -0.78035262697E+01  0.39960569803E+02  0.00000000000E+00 0.  1.
</event>
<event>
 7    1  0.2932741E-013  0.7246157E+02  0.7816164E-02  0.1226708E+00
        -11   -1    0    0    0    0  0.00000000000E+00  0.00000000000E+00  0.45593999997E+02  0.45594000000E+02  0.51100000000E-03 0.  1.
         11   -1    0    0    0    0 -0.00000000000E+00 -0.00000000000E+00 -0.45593999997E+02  0.45594000000E+02  0.51100000000E-03 0. -1.
    9900012    2    1    2    0    0  0.11347457663E+02  0.14888138518E+02 -0.50765590975E+00  0.72461570055E+02  0.69999999689E+02 0.  0.
         12    1    1    2    0    0 -0.11347457663E+02 -0.14888138518E+02  0.50765590975E+00  0.18726429945E+02  0.00000000000E+00 0. -1.
         11    1    3    3    0    0 -0.22427797982E+02  0.46835136456E+01 -0.14816312707E+01  0.22959456742E+02  0.51100000000E-03 0. -1.
        -11    1    3    3    0    0  0.97665501889E+01 -0.53394711642E+01  0.14157014995E+02  0.18008790318E+02  0.51100000000E-03 0.  1.
        -12    1    3    3    0    0  0.24008705456E+02  0.15544096037E+02 -0.13183039634E+02  0.31493322995E+02  0.00000000000E+00 0.  1.
</event>
<event>
 7    1  0.2932741E-013  0.7246151E+02  0.7816164E-02  0.1226708E+00
        -11   -1    0    0    0    0  0.00000000000E+00  0.00000000000E+00  0.45593999997E+02  0.45594000000E+02  0.51100000000E-03 0. -1.
         11   -1    0    0    0    0 -0.00000000000E+00 -0.00000000000E+00 -0.45593999997E+02  0.45594000000E+02  0.51100000000E-03 0.  1.
    9900012    2    1    2    0    0  0.53238514831E+01 -0.37191045173E+01 -0.17564348930E+02  0.72461508434E+02  0.69999919415E+02 0.  0.
         12    1    1    2    0    0 -0.53238514831E+01  0.37191045173E+01  0.17564348930E+02  0.18726491566E+02  0.00000000000E+00 0. -1.
         11    1    3    3    0    0 -0.57105559121E+01  0.28917655275E+00  0.15872974371E+02  0.16871437032E+02  0.51100000000E-03 0. -1.
        -11    1    3    3    0    0 -0.12853433882E+02 -0.28267304843E+00  0.16687902086E+01  0.12964394612E+02  0.51100000000E-03 0.  1.
        -12    1    3    3    0    0  0.23887841278E+02 -0.37256080217E+01 -0.35106113510E+02  0.42625676790E+02  0.00000000000E+00 0.  1.
</event>
<event>
 7    1  0.2932741E-013  0.7246161E+02  0.7816164E-02  0.1226708E+00
        -11   -1    0    0    0    0  0.00000000000E+00  0.00000000000E+00  0.45593999997E+02  0.45594000000E+02  0.51100000000E-03 0.  1.
         11   -1    0    0    0    0 -0.00000000000E+00 -0.00000000000E+00 -0.45593999997E+02  0.45594000000E+02  0.51100000000E-03 0. -1.
    9900012    2    1    2    0    0 -0.15272341277E+02  0.10321161653E+02 -0.33025738148E+01  0.72461607401E+02  0.70000048339E+02 0.  0.
         12    1    1    2    0    0  0.15272341277E+02 -0.10321161653E+02  0.33025738148E+01  0.18726392599E+02  0.00000000000E+00 0. -1.
         11    1    3    3    0    0  0.16396403324E+01  0.44205068256E+01  0.17828098996E+02  0.18440998213E+02  0.51100000000E-03 0. -1.
        -11    1    3    3    0    0  0.10611629857E+02 -0.27146960562E+01  0.75841640507E+01  0.13322755252E+02  0.51100000000E-03 0.  1.
         12    1    3    3    0    0 -0.27523611467E+02  0.86153508839E+01 -0.28714836861E+02  0.40697853936E+02  0.00000000000E+00 0. -1.
</event>
<event>
 7    1  0.2932741E-013  0.7246163E+02  0.7816164E-02  0.1226708E+00
        -11   -1    0    0    0    0  0.00000000000E+00  0.00000000000E+00  0.45593999997E+02  0.45594000000E+02  0.51100000000E-03 0.  1.
         11   -1    0    0    0    0 -0.00000000000E+00 -0.00000000000E+00 -0.45593999997E+02  0.45594000000E+02  0.51100000000E-03 0. -1.
    9900012    2    1    2    0    0  0.43697997851E+01  0.41122452808E+01  0.17738978620E+02  0.72461626248E+02  0.70000072891E+02 0.  0.
         12    1    1    2    0    0 -0.43697997851E+01 -0.41122452808E+01 -0.17738978620E+02  0.18726373752E+02  0.00000000000E+00 0. -1.
         11    1    3    3    0    0  0.94950025980E+01 -0.25938205770E+02  0.16222463081E+02  0.32033012683E+02  0.51100000000E-03 0. -1.
        -11    1    3    3    0    0  0.70102880875E+00  0.69783563639E+01  0.12412052375E+02  0.14256505299E+02  0.51100000000E-03 0.  1.
        -12    1    3    3    0    0 -0.58262316217E+01  0.23072094687E+02 -0.10895536836E+02  0.26172108266E+02  0.00000000000E+00 0.  1.
</event>
<event>
 7    1  0.2932741E-013  0.7246156E+02  0.7816164E-02  0.1226708E+00
        -11   -1    0    0    0    0  0.00000000000E+00  0.00000000000E+00  0.45593999997E+02  0.45594000000E+02  0.51100000000E-03 0. -1.
         11   -1    0    0    0    0 -0.00000000000E+00 -0.00000000000E+00 -0.45593999997E+02  0.45594000000E+02  0.51100000000E-03 0.  1.
    9900012    2    1    2    0    0 -0.11304700392E+02 -0.12855735793E+02 -0.75903483417E+01  0.72461559289E+02  0.69999985664E+02 0.  0.
         12    1    1    2    0    0  0.11304700392E+02  0.12855735793E+02  0.75903483417E+01  0.18726440711E+02  0.00000000000E+00 0. -1.
         11    1    3    3    0    0 -0.66390347951E+01  0.12860873068E+02 -0.11011748815E+02  0.18186188477E+02  0.51100000000E-03 0. -1.
        -11    1    3    3    0    0 -0.13450361776E+02 -0.25141838595E+02  0.20461490920E+02  0.35095539472E+02  0.51100000000E-03 0.  1.
         12    1    3    3    0    0  0.87846961791E+01 -0.57477026537E+00 -0.17040090447E+02  0.19179831341E+02  0.00000000000E+00 0. -1.
</event>
<event>
 7    1  0.2932741E-013  0.7246156E+02  0.7816164E-02  0.1226708E+00
        -11   -1    0    0    0    0  0.00000000000E+00  0.00000000000E+00  0.45593999997E+02  0.45594000000E+02  0.51100000000E-03 0. -1.
         11   -1    0    0    0    0 -0.00000000000E+00 -0.00000000000E+00 -0.45593999997E+02  0.45594000000E+02  0.51100000000E-03 0.  1.
    9900012    2    1    2    0    0  0.13251473436E+02 -0.11770681688E+02 -0.60439376471E+01  0.72461556720E+02  0.69999982317E+02 0.  0.
         12    1    1    2    0    0 -0.13251473436E+02  0.11770681688E+02  0.60439376471E+01  0.18726443280E+02  0.00000000000E+00 0. -1.
         11    1    3    3    0    0  0.10640058341E+02  0.99114551995E+01  0.51752482653E+01  0.15434732927E+02  0.51100000000E-03 0. -1.
        -11    1    3    3    0    0  0.15076695022E+02 -0.20313808742E+02  0.13962995417E+02  0.28895030709E+02  0.51100000000E-03 0.  1.
        -12    1    3    3    0    0 -0.12465279927E+02 -0.13683281458E+01 -0.25182181330E+02  0.28131793084E+02  0.00000000000E+00 0.  1.
</event>
<event>
 7    1  0.2932741E-013  0.7246159E+02  0.7816164E-02  0.1226708E+00
        -11   -1    0    0    0    0  0.00000000000E+00  0.00000000000E+00  0.45593999997E+02  0.45594000000E+02  0.51100000000E-03 0. -1.
         11   -1    0    0    0    0 -0.00000000000E+00 -0.00000000000E+00 -0.45593999997E+02  0.45594000000E+02  0.51100000000E-03 0.  1.
    9900012    2    1    2    0    0 -0.16283949813E+02 -0.11199249189E+01 -0.91791623890E+01  0.72461594165E+02  0.70000031096E+02 0.  0.
         12    1    1    2    0    0  0.16283949813E+02  0.11199249189E+01  0.91791623890E+01  0.18726405835E+02  0.00000000000E+00 0. -1.
         11    1    3    3    0    0 -0.18487886395E+02 -0.42082644178E+00  0.35879346351E+01  0.18837524080E+02  0.51100000000E-03 0. -1.
        -11    1    3    3    0    0 -0.16184144259E+02  0.15308336789E+02 -0.18058225472E+02  0.28677015327E+02  0.51100000000E-03 0.  1.
         12    1    3    3    0    0  0.18388080841E+02 -0.16007435266E+02  0.52911284480E+01  0.24947054757E+02  0.00000000000E+00 0. -1.
</event>
<event>
 7    1  0.2932741E-013  0.7246156E+02  0.7816164E-02  0.1226708E+00
        -11   -1    0    0    0    0  0.00000000000E+00  0.00000000000E+00  0.45593999997E+02  0.45594000000E+02  0.51100000000E-03 0.  1.
         11   -1    0    0    0    0 -0.00000000000E+00 -0.00000000000E+00 -0.45593999997E+02  0.45594000000E+02  0.51100000000E-03 0. -1.
    9900012    2    1    2    0    0 -0.87178222062E+01 -0.14524474169E+02  0.79824069492E+01  0.72461558945E+02  0.69999985215E+02 0.  0.
         12    1    1    2    0    0  0.87178222062E+01  0.14524474169E+02 -0.79824069492E+01  0.18726441055E+02  0.00000000000E+00 0. -1.
         11    1    3    3    0    0  0.23213672226E+02  0.91312804857E+01  0.19800410899E+01  0.25023497447E+02  0.51100000000E-03 0. -1.
        -11    1    3    3    0    0 -0.11547337422E+02 -0.28953236976E+01  0.12882421328E+02  0.17540828954E+02  0.51100000000E-03 0.  1.
        -12    1    3    3    0    0 -0.20384157010E+02 -0.20760430957E+02 -0.68800554690E+01  0.29897232544E+02  0.00000000000E+00 0.  1.
</event>
<event>
 7    1  0.2932741E-013  0.7246158E+02  0.7816164E-02  0.1226708E+00
        -11   -1    0    0    0    0  0.00000000000E+00  0.00000000000E+00  0.45593999997E+02  0.45594000000E+02  0.51100000000E-03 0.  1.
         11   -1    0    0    0    0 -0.00000000000E+00 -0.00000000000E+00 -0.45593999997E+02  0.45594000000E+02  0.51100000000E-03 0. -1.
    9900012    2    1    2    0    0 -0.10410700041E+02  0.39360055063E+01  0.15060009492E+02  0.72461582815E+02  0.70000016310E+02 0.  0.
         12    1    1    2    0    0  0.10410700041E+02 -0.39360055063E+01 -0.15060009492E+02  0.18726417185E+02  0.00000000000E+00 0. -1.
         11    1    3    3    0    0 -0.21225734596E+01 -0.13485844691E+02 -0.79546392300E+01  0.15800304132E+02  0.51100000000E-03 0. -1.
        -11    1    3    3    0    0  0.13865889031E+02 -0.26319344460E+01  0.22756570875E+02  0.26777816861E+02  0.51100000000E-03 0.  1.
        -12    1    3    3    0    0 -0.22154015613E+02  0.20053784644E+02  0.25807784691E+00  0.29883461822E+02  0.00000000000E+00 0.  1.
</event>
<event>
 7    1  0.2932741E-013  0.7246154E+02  0.7816164E-02  0.1226708E+00
        -11   -1    0    0    0    0  0.00000000000E+00  0.00000000000E+00  0.45593999997E+02  0.45594000000E+02  0.51100000000E-03 0. -1.
         11   -1    0    0    0    0 -0.00000000000E+00 -0.00000000000E+00 -0.45593999997E+02  0.45594000000E+02  0.51100000000E-03 0.  1.
    9900012    2    1    2    0    0 -0.73909209706E+01 -0.15499040865E+02 -0.74722443815E+01  0.72461536996E+02  0.69999956623E+02 0.  0.
         12    1    1    2    0    0  0.73909209706E+01  0.15499040865E+02  0.74722443815E+01  0.18726463004E+02  0.00000000000E+00 0. -1.
         11    1    3    3    0    0 -0.24148784764E+01  0.12998125363E+02  0.48052274877E+01  0.14066737805E+02  0.51100000000E-03 0. -1.
        -11    1    3    3    0    0  0.59410505245E+01  0.99161719720E+01 -0.14325492795E+02  0.18407778030E+02  0.51100000000E-03 0.  1.
        -12    1    3    3    0    0 -0.10917093019E+02 -0.38413338200E+02  0.20480209257E+01  0.39987021161E+02  0.00000000000E+00 0.  1.
</event>
<event>
 7    1  0.2932741E-013  0.7246163E+02  0.7816164E-02  0.1226708E+00
        -11   -1    0    0    0    0  0.00000000000E+00  0.00000000000E+00  0.45593999997E+02  0.45594000000E+02  0.51100000000E-03 0. -1.
         11   -1    0    0    0    0 -0.00000000000E+00 -0.00000000000E+00 -0.45593999997E+02  0.45594000000E+02  0.51100000000E-03 0.  1.
    9900012    2    1    2    0    0 -0.17909672266E+02  0.20126152381E+01 -0.50862466163E+01  0.72461631280E+02  0.70000079445E+02 0.  0.
         12    1    1    2    0    0  0.17909672266E+02 -0.20126152381E+01  0.50862466163E+01  0.18726368720E+02  0.00000000000E+00 0. -1.
         11    1    3    3    0    0 -0.13659292459E+02 -0.10839910951E+02 -0.54471484296E+01  0.18268863297E+02  0.51100000000E-03 0. -1.
        -11    1    3    3    0    0 -0.28416772839E+02  0.60762449855E+01 -0.76303471498E+00  0.29069158122E+02  0.51100000000E-03 0.  1.
         12    1    3    3    0    0  0.24166393031E+02  0.67762812037E+01  0.11239365284E+01  0.25123609860E+02  0.00000000000E+00 0. -1.
</event>
<event>
 7    1  0.2932741E-013  0.7246158E+02  0.7816164E-02  0.1226708E+00
        -11   -1    0    0    0    0  0.00000000000E+00  0.00000000000E+00  0.45593999997E+02  0.45594000000E+02  0.51100000000E-03 0.  1.
         11   -1    0    0    0    0 -0.00000000000E+00 -0.00000000000E+00 -0.45593999997E+02  0.45594000000E+02  0.51100000000E-03 0. -1.
    9900012    2    1    2    0    0  0.18555573707E+02  0.20645277844E+01  0.14516733548E+01  0.72461576260E+02  0.70000007772E+02 0.  0.
         12    1    1    2    0    0 -0.18555573707E+02 -0.20645277844E+01 -0.14516733548E+01  0.18726423740E+02  0.00000000000E+00 0. -1.
         11    1    3    3    0    0  0.31945129916E+01  0.69002077088E+01  0.72640884135E+01  0.10515928890E+02  0.51100000000E-03 0. -1.
        -11    1    3    3    0    0 -0.87861328107E+00 -0.23484622186E+02  0.16438641324E+02  0.28679755392E+02  0.51100000000E-03 0.  1.
         12    1    3    3    0    0  0.16239673996E+02  0.18648942261E+02 -0.22251056383E+02  0.33265891978E+02  0.00000000000E+00 0. -1.
</event>
<event>
 7    1  0.2932741E-013  0.7246156E+02  0.7816164E-02  0.1226708E+00
        -11   -1    0    0    0    0  0.00000000000E+00  0.00000000000E+00  0.45593999997E+02  0.45594000000E+02  0.51100000000E-03 0. -1.
         11   -1    0    0    0    0 -0.00000000000E+00 -0.00000000000E+00 -0.45593999997E+02  0.45594000000E+02  0.51100000000E-03 0.  1.
    9900012    2    1    2    0    0 -0.10034574298E+02 -0.41216403653E+01 -0.15264297420E+02  0.72461564771E+02  0.69999992805E+02 0.  0.
         12    1    1    2    0    0  0.10034574298E+02  0.41216403653E+01  0.15264297420E+02  0.18726435229E+02  0.00000000000E+00 0. -1.
         11    1    3    3    0    0  0.45595234212E+01  0.15198486090E+02  0.70981034244E+01  0.17382931449E+02  0.51100000000E-03 0. -1.
        -11    1    3    3    0    0 -0.13847889974E+02  0.11776098889E+02 -0.13781308129E+02  0.22811510599E+02  0.51100000000E-03 0.  1.
         12    1    3    3    0    0 -0.74620774587E+00 -0.31096225345E+02 -0.85810927151E+01  0.32267122724E+02  0.00000000000E+00 0. -1.
</event>
<event>
 7    1  0.2932741E-013  0.7246161E+02  0.7816164E-02  0.1226708E+00
        -11   -1    0    0    0    0  0.00000000000E+00  0.00000000000E+00  0.45593999997E+02  0.45594000000E+02  0.51100000000E-03 0. -1.
         11   -1    0    0    0    0 -0.00000000000E+00 -0.00000000000E+00 -0.45593999997E+02  0.45594000000E+02  0.51100000000E-03 0.  1.
    9900012    2    1    2    0    0 -0.97642464965E+01  0.14274250201E+02  0.71821339398E+01  0.72461607492E+02  0.70000048457E+02 0.  0.
         12    1    1    2    0    0  0.97642464965E+01 -0.14274250201E+02 -0.71821339398E+01  0.18726392508E+02  0.00000000000E+00 0. -1.
         11    1    3    3    0    0 -0.19327453270E+01  0.84676455167E+01 -0.74718200837E+01  0.11457077320E+02  0.51100000000E-03 0. -1.
        -11    1    3    3    0    0 -0.13530550701E+02 -0.56419113925E+01 -0.19580029081E+02  0.24459854977E+02  0.51100000000E-03 0.  1.
         12    1    3    3    0    0  0.56990495318E+01  0.11448516076E+02  0.34233983104E+02  0.36544675195E+02  0.00000000000E+00 0. -1.
</event>
<event>
 7    1  0.2932741E-013  0.7246168E+02  0.7816164E-02  0.1226708E+00
        -11   -1    0    0    0    0  0.00000000000E+00  0.00000000000E+00  0.45593999997E+02  0.45594000000E+02  0.51100000000E-03 0. -1.
         11   -1    0    0    0    0 -0.00000000000E+00 -0.00000000000E+00 -0.45593999997E+02  0.45594000000E+02  0.51100000000E-03 0.  1.
    9900012    2    1    2    0    0 -0.14877227816E+02  0.10862628834E+02 -0.33684528509E+01  0.72461679291E+02  0.70000141988E+02 0.  0.
         12    1    1    2    0    0  0.14877227816E+02 -0.10862628834E+02  0.33684528509E+01  0.18726320709E+02  0.00000000000E+00 0. -1.
         11    1    3    3    0    0 -0.75244801187E+01 -0.88812251785E+01 -0.74184139744E+01  0.13803145579E+02  0.51100000000E-03 0. -1.
        -11    1    3    3    0    0 -0.27513840926E+02  0.26834335901E+01 -0.91677479503E+01  0.29124901048E+02  0.51100000000E-03 0.  1.
         12    1    3    3    0    0  0.20161093228E+02  0.17060420423E+02  0.13217709074E+02  0.29533632664E+02  0.00000000000E+00 0. -1.
</event>
<event>
 7    1  0.2932741E-013  0.7246165E+02  0.7816164E-02  0.1226708E+00
        -11   -1    0    0    0    0  0.00000000000E+00  0.00000000000E+00  0.45593999997E+02  0.45594000000E+02  0.51100000000E-03 0.  1.
         11   -1    0    0    0    0 -0.00000000000E+00 -0.00000000000E+00 -0.45593999997E+02  0.45594000000E+02  0.51100000000E-03 0. -1.
    9900012    2    1    2    0    0  0.95745070888E+01  0.10884666538E+02  0.11854499666E+02  0.72461646539E+02  0.70000099323E+02 0.  0.
         12    1    1    2    0    0 -0.95745070888E+01 -0.10884666538E+02 -0.11854499666E+02  0.18726353461E+02  0.00000000000E+00 0. -1.
         11    1    3    3    0    0 -0.74228828619E+01 -0.18632753727E+02 -0.90273831920E+01  0.21994825505E+02  0.51100000000E-03 0. -1.
        -11    1    3    3    0    0  0.11278645522E+02  0.30738129023E+01  0.20276694448E+02  0.23405138508E+02  0.51100000000E-03 0.  1.
        -12    1    3    3    0    0  0.57187444286E+01  0.26443607362E+02  0.60518840966E+00  0.27061682526E+02  0.00000000000E+00 0.  1.
</event>
<event>
 7    1  0.2932741E-013  0.7246156E+02  0.7816164E-02  0.1226708E+00
        -11   -1    0    0    0    0  0.00000000000E+00  0.00000000000E+00  0.45593999997E+02  0.45594000000E+02  0.51100000000E-03 0.  1.
         11   -1    0    0    0    0 -0.00000000000E+00 -0.00000000000E+00 -0.45593999997E+02  0.45594000000E+02  0.51100000000E-03 0. -1.
    9900012    2    1    2    0    0  0.15881172668E+02 -0.71413094395E+01  0.68898216213E+01  0.72461559126E+02  0.69999985452E+02 0.  0.
         12    1    1    2    0    0 -0.15881172668E+02  0.71413094395E+01 -0.68898216213E+01  0.18726440874E+02  0.00000000000E+00 0. -1.
         11    1    3    3    0    0 -0.21230795836E+02 -0.10788378437E+02  0.19262064952E+02  0.30629445761E+02  0.51100000000E-03 0. -1.
        -11    1    3    3    0    0 -0.70462734620E+00  0.19832209354E+01 -0.54201924015E+00  0.21733499703E+01  0.51100000000E-03 0.  1.
        -12    1    3    3    0    0  0.37816595850E+02  0.16638480624E+01 -0.11830224091E+02  0.39658763396E+02  0.00000000000E+00 0.  1.
</event>
<event>
 7    1  0.2932741E-013  0.7246158E+02  0.7816164E-02  0.1226708E+00
        -11   -1    0    0    0    0  0.00000000000E+00  0.00000000000E+00  0.45593999997E+02  0.45594000000E+02  0.51100000000E-03 0. -1.
         11   -1    0    0    0    0 -0.00000000000E+00 -0.00000000000E+00 -0.45593999997E+02  0.45594000000E+02  0.51100000000E-03 0.  1.
    9900012    2    1    2    0    0 -0.16178365676E+02  0.92093577341E+01 -0.20315357538E+01  0.72461576867E+02  0.70000008562E+02 0.  0.
         12    1    1    2    0    0  0.16178365676E+02 -0.92093577341E+01  0.20315357538E+01  0.18726423133E+02  0.00000000000E+00 0. -1.
         11    1    3    3    0    0 -0.69773353822E+01  0.32467234101E+02 -0.54894839050E+01  0.33659158234E+02  0.51100000000E-03 0. -1.
        -11    1    3    3    0    0 -0.10382157166E+02  0.38735687086E+01  0.35794428898E+01  0.11645004664E+02  0.51100000000E-03 0.  1.
        -12    1    3    3    0    0  0.11811268715E+01 -0.27131445075E+02 -0.12149473863E+00  0.27157413970E+02  0.00000000000E+00 0.  1.
</event>
<event>
 7    1  0.2932741E-013  0.7246155E+02  0.7816164E-02  0.1226708E+00
        -11   -1    0    0    0    0  0.00000000000E+00  0.00000000000E+00  0.45593999997E+02  0.45594000000E+02  0.51100000000E-03 0.  1.
         11   -1    0    0    0    0 -0.00000000000E+00 -0.00000000000E+00 -0.45593999997E+02  0.45594000000E+02  0.51100000000E-03 0. -1.
    9900012    2    1    2    0    0 -0.87789877647E+01 -0.92106146721E+01  0.13739496995E+02  0.72461552753E+02  0.69999977150E+02 0.  0.
         12    1    1    2    0    0  0.87789877647E+01  0.92106146721E+01 -0.13739496995E+02  0.18726447247E+02  0.00000000000E+00 0. -1.
         11    1    3    3    0    0 -0.40167482902E+01 -0.89459577543E+00  0.80354967394E+01  0.90279442033E+01  0.51100000000E-03 0. -1.
        -11    1    3    3    0    0  0.83822733685E+01  0.13980013360E+02  0.25901164137E+02  0.30603489740E+02  0.51100000000E-03 0.  1.
         12    1    3    3    0    0 -0.13144512843E+02 -0.22296032256E+02 -0.20197163881E+02  0.32830118810E+02  0.00000000000E+00 0. -1.
</event>
<event>
 7    1  0.2932741E-013  0.7246159E+02  0.7816164E-02  0.1226708E+00
        -11   -1    0    0    0    0  0.00000000000E+00  0.00000000000E+00  0.45593999997E+02  0.45594000000E+02  0.51100000000E-03 0.  1.
         11   -1    0    0    0    0 -0.00000000000E+00 -0.00000000000E+00 -0.45593999997E+02  0.45594000000E+02  0.51100000000E-03 0. -1.
    9900012    2    1    2    0    0 -0.77630021244E+01 -0.10379064886E+02  0.13516254821E+02  0.72461592595E+02  0.70000029051E+02 0.  0.
         12    1    1    2    0    0  0.77630021244E+01  0.10379064886E+02 -0.13516254821E+02  0.18726407405E+02  0.00000000000E+00 0. -1.
         11    1    3    3    0    0 -0.14163442815E+02  0.62781088415E+01  0.13016817933E+02  0.20235002158E+02  0.51100000000E-03 0. -1.
        -11    1    3    3    0    0  0.14425931635E+02 -0.11461687984E+02  0.21999982858E+02  0.28696289673E+02  0.51100000000E-03 0.  1.
         12    1    3    3    0    0 -0.80254909447E+01 -0.51954857434E+01 -0.21500545970E+02  0.23530300764E+02  0.00000000000E+00 0. -1.
</event>
<event>
 7    1  0.2932741E-013  0.7246157E+02  0.7816164E-02  0.1226708E+00
        -11   -1    0    0    0    0  0.00000000000E+00  0.00000000000E+00  0.45593999997E+02  0.45594000000E+02  0.51100000000E-03 0. -1.
         11   -1    0    0    0    0 -0.00000000000E+00 -0.00000000000E+00 -0.45593999997E+02  0.45594000000E+02  0.51100000000E-03 0.  1.
    9900012    2    1    2    0    0  0.64283940529E+01 -0.16135650947E+02 -0.69996928619E+01  0.72461569968E+02  0.69999999575E+02 0.  0.
         12    1    1    2    0    0 -0.64283940529E+01  0.16135650947E+02  0.69996928619E+01  0.18726430032E+02  0.00000000000E+00 0. -1.
         11    1    3    3    0    0  0.32178804935E+02 -0.15032193544E+02 -0.51887943926E+01  0.35893814472E+02  0.51100000000E-03 0. -1.
        -11    1    3    3    0    0 -0.12788918731E+02 -0.98454343041E+01  0.80987605796E+01  0.18057656053E+02  0.51100000000E-03 0.  1.
        -12    1    3    3    0    0 -0.12961492151E+02  0.87419769012E+01 -0.99096590490E+01  0.18510099443E+02  0.00000000000E+00 0.  1.
</event>
<event>
 7    1  0.2932741E-013  0.7246171E+02  0.7816164E-02  0.1226708E+00
        -11   -1    0    0    0    0  0.00000000000E+00  0.00000000000E+00  0.45593999997E+02  0.45594000000E+02  0.51100000000E-03 0. -1.
         11   -1    0    0    0    0 -0.00000000000E+00 -0.00000000000E+00 -0.45593999997E+02  0.45594000000E+02  0.51100000000E-03 0.  1.
    9900012    2    1    2    0    0 -0.10707315059E+02 -0.11830011301E+02  0.98019386111E+01  0.72461714631E+02  0.70000188026E+02 0.  0.
         12    1    1    2    0    0  0.10707315059E+02  0.11830011301E+02 -0.98019386111E+01  0.18726285369E+02  0.00000000000E+00 0. -1.
         11    1    3    3    0    0 -0.13444378511E+02 -0.79584658012E+01 -0.64271456400E+01  0.16893687957E+02  0.51100000000E-03 0. -1.
        -11    1    3    3    0    0  0.21013564952E+02 -0.19794950579E+02  0.98435494978E+01  0.30500908960E+02  0.51100000000E-03 0.  1.
         12    1    3    3    0    0 -0.18276501500E+02  0.15923405079E+02  0.63855347533E+01  0.25067117714E+02  0.00000000000E+00 0. -1.
</event>
<event>
 7    1  0.2932741E-013  0.7246161E+02  0.7816164E-02  0.1226708E+00
        -11   -1    0    0    0    0  0.00000000000E+00  0.00000000000E+00  0.45593999997E+02  0.45594000000E+02  0.51100000000E-03 0.  1.
         11   -1    0    0    0    0 -0.00000000000E+00 -0.00000000000E+00 -0.45593999997E+02  0.45594000000E+02  0.51100000000E-03 0. -1.
    9900012    2    1    2    0    0 -0.15142914240E+02  0.10426144935E+02  0.35588630768E+01  0.72461605358E+02  0.70000045677E+02 0.  0.
         12    1    1    2    0    0  0.15142914240E+02 -0.10426144935E+02 -0.35588630768E+01  0.18726394642E+02  0.00000000000E+00 0. -1.
         11    1    3    3    0    0  0.25134311252E+02  0.17354858902E+02  0.54107816949E+01  0.31019369569E+02  0.51100000000E-03 0. -1.
        -11    1    3    3    0    0 -0.11453042131E+01  0.22440475469E+00  0.10314466994E+01  0.15575499316E+01  0.51100000000E-03 0.  1.
        -12    1    3    3    0    0 -0.39131921279E+02 -0.71531187215E+01 -0.28833653176E+01  0.39884685858E+02  0.00000000000E+00 0.  1.
</event>
<event>
 7    1  0.2932741E-013  0.7246154E+02  0.7816164E-02  0.1226708E+00
        -11   -1    0    0    0    0  0.00000000000E+00  0.00000000000E+00  0.45593999997E+02  0.45594000000E+02  0.51100000000E-03 0.  1.
         11   -1    0    0    0    0 -0.00000000000E+00 -0.00000000000E+00 -0.45593999997E+02  0.45594000000E+02  0.51100000000E-03 0. -1.
    9900012    2    1    2    0    0 -0.44382255361E+01 -0.50735150028E+01  0.17471178242E+02  0.72461535583E+02  0.69999954782E+02 0.  0.
         12    1    1    2    0    0  0.44382255361E+01  0.50735150028E+01 -0.17471178242E+02  0.18726464417E+02  0.00000000000E+00 0. -1.
         11    1    3    3    0    0 -0.15787301280E+02  0.62362457822E+01 -0.79186804180E+01  0.18730593771E+02  0.51100000000E-03 0. -1.
        -11    1    3    3    0    0 -0.10116821457E+02 -0.46214079162E+01 -0.78410793633E+01  0.13608453746E+02  0.51100000000E-03 0.  1.
         12    1    3    3    0    0  0.21465897201E+02 -0.66883528688E+01  0.33230938023E+02  0.40122488067E+02  0.00000000000E+00 0. -1.
</event>
<event>
 7    1  0.2932741E-013  0.7246179E+02  0.7816164E-02  0.1226707E+00
        -11   -1    0    0    0    0  0.00000000000E+00  0.00000000000E+00  0.45593999997E+02  0.45594000000E+02  0.51100000000E-03 0. -1.
         11   -1    0    0    0    0 -0.00000000000E+00 -0.00000000000E+00 -0.45593999997E+02  0.45594000000E+02  0.51100000000E-03 0.  1.
    9900012    2    1    2    0    0 -0.89144357765E+01  0.11412888842E+02 -0.11872219458E+02  0.72461793983E+02  0.70000291395E+02 0.  0.
         12    1    1    2    0    0  0.89144357765E+01 -0.11412888842E+02  0.11872219458E+02  0.18726206017E+02  0.00000000000E+00 0. -1.
         11    1    3    3    0    0  0.18859496629E+02  0.90767508959E+01  0.15345417555E+02  0.25952839153E+02  0.51100000000E-03 0. -1.
        -11    1    3    3    0    0  0.49067599081E+01  0.18518973940E+00 -0.27564421137E+01  0.56310355551E+01  0.51100000000E-03 0.  1.
        -12    1    3    3    0    0 -0.32680692313E+02  0.21509482067E+01 -0.24461194900E+02  0.40877919274E+02  0.00000000000E+00 0.  1.
</event>
<event>
 7    1  0.2932741E-013  0.7246155E+02  0.7816164E-02  0.1226708E+00
        -11   -1    0    0    0    0  0.00000000000E+00  0.00000000000E+00  0.45593999997E+02  0.45594000000E+02  0.51100000000E-03 0. -1.
         11   -1    0    0    0    0 -0.00000000000E+00 -0.00000000000E+00 -0.45593999997E+02  0.45594000000E+02  0.51100000000E-03 0.  1.
    9900012    2    1    2    0    0 -0.14255092479E+01 -0.86893850605E+01 -0.16527016765E+02  0.72461554194E+02  0.69999979027E+02 0.  0.
         12    1    1    2    0    0  0.14255092479E+01  0.86893850605E+01  0.16527016765E+02  0.18726445806E+02  0.00000000000E+00 0. -1.
         11    1    3    3    0    0 -0.10575720478E+02  0.18015575781E+02 -0.86424153661E+01  0.22607480576E+02  0.51100000000E-03 0. -1.
        -11    1    3    3    0    0  0.13694914314E+02 -0.89600504214E+01  0.13843192808E+02  0.21435185304E+02  0.51100000000E-03 0.  1.
        -12    1    3    3    0    0 -0.45447030842E+01 -0.17744910420E+02 -0.21727794207E+02  0.28418888315E+02  0.00000000000E+00 0.  1.
</event>
<event>
 7    1  0.2932741E-013  0.7246156E+02  0.7816164E-02  0.1226708E+00
        -11   -1    0    0    0    0  0.00000000000E+00  0.00000000000E+00  0.45593999997E+02  0.45594000000E+02  0.51100000000E-03 0.  1.
         11   -1    0    0    0    0 -0.00000000000E+00 -0.00000000000E+00 -0.45593999997E+02  0.45594000000E+02  0.51100000000E-03 0. -1.
    9900012    2    1    2    0    0 -0.10490990081E+02 -0.13618469870E+02  0.74266942215E+01  0.72461564633E+02  0.69999992625E+02 0.  0.
         12    1    1    2    0    0  0.10490990081E+02  0.13618469870E+02 -0.74266942215E+01  0.18726435367E+02  0.00000000000E+00 0. -1.
         11    1    3    3    0    0 -0.10978615020E+02  0.15411121127E+01  0.27570365761E+02  0.29715822095E+02  0.51100000000E-03 0.  1.
        -11    1    3    3    0    0 -0.15235018293E+02 -0.39344431951E+01 -0.13481418420E+01  0.15792501775E+02  0.51100000000E-03 0. -1.
         12    1    3    3    0    0  0.15722643232E+02 -0.11225138788E+02 -0.18795529698E+02  0.26953240763E+02  0.00000000000E+00 0. -1.
</event>
<event>
 7    1  0.2932741E-013  0.7246157E+02  0.7816164E-02  0.1226708E+00
        -11   -1    0    0    0    0  0.00000000000E+00  0.00000000000E+00  0.45593999997E+02  0.45594000000E+02  0.51100000000E-03 0.  1.
         11   -1    0    0    0    0 -0.00000000000E+00 -0.00000000000E+00 -0.45593999997E+02  0.45594000000E+02  0.51100000000E-03 0. -1.
    9900012    2    1    2    0    0 -0.12195004485E+02  0.13489921412E+02  0.44702388205E+01  0.72461570836E+02  0.70000000706E+02 0.  0.
         12    1    1    2    0    0  0.12195004485E+02 -0.13489921412E+02 -0.44702388205E+01  0.18726429164E+02  0.00000000000E+00 0. -1.
         11    1    3    3    0    0 -0.15238709640E+02 -0.35151866416E+01  0.90076826691E+01  0.18047524925E+02  0.51100000000E-03 0. -1.
        -11    1    3    3    0    0  0.11920898981E+01 -0.18226512939E+02 -0.56405698938E+01  0.19116560392E+02  0.51100000000E-03 0.  1.
        -12    1    3    3    0    0  0.18516152564E+01  0.35231620993E+02  0.11031260452E+01  0.35297485519E+02  0.00000000000E+00 0.  1.
</event>
<event>
 7    1  0.2932741E-013  0.7246148E+02  0.7816164E-02  0.1226708E+00
        -11   -1    0    0    0    0  0.00000000000E+00  0.00000000000E+00  0.45593999997E+02  0.45594000000E+02  0.51100000000E-03 0. -1.
         11   -1    0    0    0    0 -0.00000000000E+00 -0.00000000000E+00 -0.45593999997E+02  0.45594000000E+02  0.51100000000E-03 0.  1.
    9900012    2    1    2    0    0 -0.18443960699E+02  0.32079012971E+00  0.32248839686E+01  0.72461482193E+02  0.69999885231E+02 0.  0.
         12    1    1    2    0    0  0.18443960699E+02 -0.32079012971E+00 -0.32248839686E+01  0.18726517807E+02  0.00000000000E+00 0. -1.
         11    1    3    3    0    0 -0.24429785036E+02 -0.12846250345E+02  0.17692682121E+02  0.32785233654E+02  0.51100000000E-03 0. -1.
        -11    1    3    3    0    0 -0.13535910475E+02  0.58535849270E+01 -0.84182451687E+00  0.14771391189E+02  0.51100000000E-03 0.  1.
        -12    1    3    3    0    0  0.19521734812E+02  0.73134555474E+01 -0.13625973635E+02  0.24904857350E+02  0.00000000000E+00 0.  1.
</event>
<event>
 7    1  0.2932741E-013  0.7246222E+02  0.7816164E-02  0.1226706E+00
        -11   -1    0    0    0    0  0.00000000000E+00  0.00000000000E+00  0.45593999997E+02  0.45594000000E+02  0.51100000000E-03 0. -1.
         11   -1    0    0    0    0 -0.00000000000E+00 -0.00000000000E+00 -0.45593999997E+02  0.45594000000E+02  0.51100000000E-03 0.  1.
    9900012    2    1    2    0    0 -0.95308286621E+01  0.16028374743E+02 -0.17056744364E+01  0.72462220519E+02  0.70000847033E+02 0.  0.
         12    1    1    2    0    0  0.95308286621E+01 -0.16028374743E+02  0.17056744364E+01  0.18725779481E+02  0.00000000000E+00 0. -1.
         11    1    3    3    0    0  0.34657701506E+01  0.62736352153E+01  0.31216454749E+02  0.32028691964E+02  0.51100000000E-03 0. -1.
        -11    1    3    3    0    0  0.15865877081E+01  0.44117937697E+01 -0.80333064380E+00  0.47567347210E+01  0.51100000000E-03 0.  1.
        -12    1    3    3    0    0 -0.14583186521E+02  0.53429457580E+01 -0.32118798542E+02  0.35676793834E+02  0.00000000000E+00 0.  1.
</event>
<event>
 7    1  0.2932741E-013  0.7246127E+02  0.7816164E-02  0.1226709E+00
        -11   -1    0    0    0    0  0.00000000000E+00  0.00000000000E+00  0.45593999997E+02  0.45594000000E+02  0.51100000000E-03 0.  1.
         11   -1    0    0    0    0 -0.00000000000E+00 -0.00000000000E+00 -0.45593999997E+02  0.45594000000E+02  0.51100000000E-03 0. -1.
    9900012    2    1    2    0    0 -0.37512159662E+00 -0.94570404381E+00  0.18699076356E+02  0.72461266998E+02  0.69999604899E+02 0.  0.
         12    1    1    2    0    0  0.37512159662E+00  0.94570404381E+00 -0.18699076356E+02  0.18726733002E+02  0.00000000000E+00 0. -1.
         11    1    3    3    0    0  0.74011006991E+00 -0.11315477421E+02  0.21591505730E+02  0.24388130558E+02  0.51100000000E-03 0. -1.
        -11    1    3    3    0    0 -0.81101934408E+01  0.20619023952E+02  0.14667232622E+02  0.26571546802E+02  0.51100000000E-03 0.  1.
         12    1    3    3    0    0  0.69949617743E+01 -0.10249250574E+02 -0.17559661996E+02  0.21501589638E+02  0.00000000000E+00 0. -1.
</event>
<event>
 7    1  0.2932741E-013  0.7246154E+02  0.7816164E-02  0.1226708E+00
        -11   -1    0    0    0    0  0.00000000000E+00  0.00000000000E+00  0.45593999997E+02  0.45594000000E+02  0.51100000000E-03 0. -1.
         11   -1    0    0    0    0 -0.00000000000E+00 -0.00000000000E+00 -0.45593999997E+02  0.45594000000E+02  0.51100000000E-03 0.  1.
    9900012    2    1    2    0    0  0.16577527978E+02  0.19635832561E+01 -0.84858727193E+01  0.72461544679E+02  0.69999966631E+02 0.  0.
         12    1    1    2    0    0 -0.16577527978E+02 -0.19635832561E+01  0.84858727193E+01  0.18726455321E+02  0.00000000000E+00 0. -1.
         11    1    3    3    0    0 -0.14659920071E+02  0.29916576990E+01  0.56916134594E+01  0.16008052233E+02  0.51100000000E-03 0. -1.
        -11    1    3    3    0    0 -0.85230722529E+01 -0.10231629614E+02 -0.68997628697E+01  0.14997857617E+02  0.51100000000E-03 0.  1.
         12    1    3    3    0    0  0.39760520302E+02  0.92035551711E+01 -0.72777233090E+01  0.41455634829E+02  0.00000000000E+00 0. -1.
</event>
<event>
 7    1  0.2932741E-013  0.7246159E+02  0.7816164E-02  0.1226708E+00
        -11   -1    0    0    0    0  0.00000000000E+00  0.00000000000E+00  0.45593999997E+02  0.45594000000E+02  0.51100000000E-03 0. -1.
         11   -1    0    0    0    0 -0.00000000000E+00 -0.00000000000E+00 -0.45593999997E+02  0.45594000000E+02  0.51100000000E-03 0.  1.
    9900012    2    1    2    0    0 -0.14000111459E+02  0.10678319562E+02  0.63756372067E+01  0.72461591393E+02  0.70000027485E+02 0.  0.
         12    1    1    2    0    0  0.14000111459E+02 -0.10678319562E+02 -0.63756372067E+01  0.18726408607E+02  0.00000000000E+00 0. -1.
         11    1    3    3    0    0 -0.55521235402E+01  0.22179998182E+01 -0.15132421349E+02  0.16270702970E+02  0.51100000000E-03 0. -1.
        -11    1    3    3    0    0  0.15976605359E+02 -0.22693785486E+01 -0.66035882478E+01  0.17435864642E+02  0.51100000000E-03 0.  1.
         12    1    3    3    0    0 -0.24424593278E+02  0.10729698292E+02  0.28111646804E+02  0.38755023781E+02  0.00000000000E+00 0. -1.
</event>
<event>
 7    1  0.2932741E-013  0.7246156E+02  0.7816164E-02  0.1226708E+00
        -11   -1    0    0    0    0  0.00000000000E+00  0.00000000000E+00  0.45593999997E+02  0.45594000000E+02  0.51100000000E-03 0.  1.
         11   -1    0    0    0    0 -0.00000000000E+00 -0.00000000000E+00 -0.45593999997E+02  0.45594000000E+02  0.51100000000E-03 0. -1.
    9900012    2    1    2    0    0 -0.81693030425E+01  0.14228428415E+02  0.90274031913E+01  0.72461556244E+02  0.69999981697E+02 0.  0.
         12    1    1    2    0    0  0.81693030425E+01 -0.14228428415E+02 -0.90274031913E+01  0.18726443756E+02  0.00000000000E+00 0. -1.
         11    1    3    3    0    0  0.10768233308E+02 -0.36875702263E+01 -0.60136508401E+01  0.12873112267E+02  0.51100000000E-03 0. -1.
        -11    1    3    3    0    0  0.13543688137E+02  0.77483567893E+01  0.19813653598E+02  0.25220019636E+02  0.51100000000E-03 0.  1.
        -12    1    3    3    0    0 -0.32481224488E+02  0.10167641852E+02 -0.47725995661E+01  0.34368424341E+02  0.00000000000E+00 0.  1.
</event>
<event>
 7    1  0.2932741E-013  0.7246156E+02  0.7816164E-02  0.1226708E+00
        -11   -1    0    0    0    0  0.00000000000E+00  0.00000000000E+00  0.45593999997E+02  0.45594000000E+02  0.51100000000E-03 0.  1.
         11   -1    0    0    0    0 -0.00000000000E+00 -0.00000000000E+00 -0.45593999997E+02  0.45594000000E+02  0.51100000000E-03 0. -1.
    9900012    2    1    2    0    0 -0.10264641041E+02 -0.11431306505E+02  0.10707095509E+02  0.72461560981E+02  0.69999987868E+02 0.  0.
         12    1    1    2    0    0  0.10264641041E+02  0.11431306505E+02 -0.10707095509E+02  0.18726439019E+02  0.00000000000E+00 0. -1.
         11    1    3    3    0    0  0.17438690910E+02 -0.89939939471E+01 -0.17304453528E+02  0.26161880283E+02  0.51100000000E-03 0. -1.
        -11    1    3    3    0    0  0.42358412432E+01  0.25802450737E+00  0.94499401705E+00  0.43476363276E+01  0.51100000000E-03 0.  1.
        -12    1    3    3    0    0 -0.31939173194E+02 -0.26953370651E+01  0.27066555020E+02  0.41952044370E+02  0.00000000000E+00 0.  1.
</event>
<event>
 7    1  0.2932741E-013  0.7246150E+02  0.7816164E-02  0.1226708E+00
        -11   -1    0    0    0    0  0.00000000000E+00  0.00000000000E+00  0.45593999997E+02  0.45594000000E+02  0.51100000000E-03 0.  1.
         11   -1    0    0    0    0 -0.00000000000E+00 -0.00000000000E+00 -0.45593999997E+02  0.45594000000E+02  0.51100000000E-03 0. -1.
    9900012    2    1    2    0    0 -0.21036980082E+01  0.13198826830E+02  0.13116673806E+02  0.72461502551E+02  0.69999911751E+02 0.  0.
         12    1    1    2    0    0  0.21036980082E+01 -0.13198826830E+02 -0.13116673806E+02  0.18726497449E+02  0.00000000000E+00 0. -1.
         11    1    3    3    0    0 -0.16531158123E+02 -0.84035994907E+01  0.13270638379E+02  0.22803717165E+02  0.51100000000E-03 0. -1.
        -11    1    3    3    0    0  0.53792625705E+01 -0.12888580172E+02 -0.86186852457E+00  0.13992668876E+02  0.51100000000E-03 0.  1.
        -12    1    3    3    0    0  0.90481975442E+01  0.34491006492E+02  0.70790395096E+00  0.35665116510E+02  0.00000000000E+00 0.  1.
</event>
<event>
 7    1  0.2932741E-013  0.7246122E+02  0.7816164E-02  0.1226709E+00
        -11   -1    0    0    0    0  0.00000000000E+00  0.00000000000E+00  0.45593999997E+02  0.45594000000E+02  0.51100000000E-03 0.  1.
         11   -1    0    0    0    0 -0.00000000000E+00 -0.00000000000E+00 -0.45593999997E+02  0.45594000000E+02  0.51100000000E-03 0. -1.
    9900012    2    1    2    0    0 -0.13685812381E+02 -0.69999657717E+01 -0.10695381787E+02  0.72461223104E+02  0.69999547719E+02 0.  0.
         12    1    1    2    0    0  0.13685812381E+02  0.69999657717E+01  0.10695381787E+02  0.18726776896E+02  0.00000000000E+00 0. -1.
         11    1    3    3    0    0  0.21091604664E+02  0.33894492284E+01 -0.21496616012E+02  0.30305917798E+02  0.51100000000E-03 0. -1.
        -11    1    3    3    0    0  0.14014823207E+01 -0.17377579521E+00 -0.19944687573E+01  0.24438200849E+01  0.51100000000E-03 0.  1.
        -12    1    3    3    0    0 -0.36178899365E+02 -0.10215639205E+02  0.12795702983E+02  0.39711485221E+02  0.00000000000E+00 0.  1.
</event>
<event>
 7    1  0.2932741E-013  0.7246160E+02  0.7816164E-02  0.1226708E+00
        -11   -1    0    0    0    0  0.00000000000E+00  0.00000000000E+00  0.45593999997E+02  0.45594000000E+02  0.51100000000E-03 0.  1.
         11   -1    0    0    0    0 -0.00000000000E+00 -0.00000000000E+00 -0.45593999997E+02  0.45594000000E+02  0.51100000000E-03 0. -1.
    9900012    2    1    2    0    0  0.12237746496E+02 -0.13418428415E+02 -0.45674151328E+01  0.72461603085E+02  0.70000042716E+02 0.  0.
         12    1    1    2    0    0 -0.12237746496E+02  0.13418428415E+02  0.45674151328E+01  0.18726396915E+02  0.00000000000E+00 0. -1.
         11    1    3    3    0    0  0.24117489075E+01 -0.43313970233E+01 -0.17857782659E+02  0.18533157710E+02  0.51100000000E-03 0. -1.
        -11    1    3    3    0    0 -0.14843234474E+02 -0.17636277858E+02 -0.28605764944E+01  0.23228060712E+02  0.51100000000E-03 0.  1.
        -12    1    3    3    0    0  0.24669232062E+02  0.85492464662E+01  0.16150944020E+02  0.30700384663E+02  0.00000000000E+00 0.  1.
</event>
<event>
 7    1  0.2932741E-013  0.7246163E+02  0.7816164E-02  0.1226708E+00
        -11   -1    0    0    0    0  0.00000000000E+00  0.00000000000E+00  0.45593999997E+02  0.45594000000E+02  0.51100000000E-03 0.  1.
         11   -1    0    0    0    0 -0.00000000000E+00 -0.00000000000E+00 -0.45593999997E+02  0.45594000000E+02  0.51100000000E-03 0. -1.
    9900012    2    1    2    0    0  0.13970337582E+02  0.48081663731E+01 -0.11506000429E+02  0.72461632443E+02  0.70000080960E+02 0.  0.
         12    1    1    2    0    0 -0.13970337582E+02 -0.48081663731E+01  0.11506000429E+02  0.18726367557E+02  0.00000000000E+00 0. -1.
         11    1    3    3    0    0  0.16702494630E+02  0.19110540288E+02  0.96236592792E+01  0.27144076613E+02  0.51100000000E-03 0. -1.
        -11    1    3    3    0    0  0.13798314230E+02 -0.49905684537E+01  0.26354813090E+01  0.14907884191E+02  0.51100000000E-03 0.  1.
         12    1    3    3    0    0 -0.16530471278E+02 -0.93118054614E+01 -0.23765141017E+02  0.30409671639E+02  0.00000000000E+00 0. -1.
</event>
<event>
 7    1  0.2932741E-013  0.7246153E+02  0.7816164E-02  0.1226708E+00
        -11   -1    0    0    0    0  0.00000000000E+00  0.00000000000E+00  0.45593999997E+02  0.45594000000E+02  0.51100000000E-03 0.  1.
         11   -1    0    0    0    0 -0.00000000000E+00 -0.00000000000E+00 -0.45593999997E+02  0.45594000000E+02  0.51100000000E-03 0. -1.
    9900012    2    1    2    0    0 -0.11635561237E+02 -0.13150010577E+02  0.65093566930E+01  0.72461527079E+02  0.69999943704E+02 0.  0.
         12    1    1    2    0    0  0.11635561237E+02  0.13150010577E+02 -0.65093566930E+01  0.18726472921E+02  0.00000000000E+00 0. -1.
         11    1    3    3    0    0 -0.37377744289E+02 -0.12946104918E+02  0.10052331560E+02  0.40813561114E+02  0.51100000000E-03 0. -1.
        -11    1    3    3    0    0  0.82788611964E+01  0.14157595240E+01  0.72155185323E+01  0.11072832776E+02  0.51100000000E-03 0.  1.
        -12    1    3    3    0    0  0.17463321856E+02 -0.16196651835E+01 -0.10758493399E+02  0.20575133190E+02  0.00000000000E+00 0.  1.
</event>
<event>
 7    1  0.2932741E-013  0.7246165E+02  0.7816164E-02  0.1226708E+00
        -11   -1    0    0    0    0  0.00000000000E+00  0.00000000000E+00  0.45593999997E+02  0.45594000000E+02  0.51100000000E-03 0. -1.
         11   -1    0    0    0    0 -0.00000000000E+00 -0.00000000000E+00 -0.45593999997E+02  0.45594000000E+02  0.51100000000E-03 0.  1.
    9900012    2    1    2    0    0 -0.78166976670E+01  0.11803069564E+02 -0.12258183484E+02  0.72461647556E+02  0.70000100647E+02 0.  0.
         12    1    1    2    0    0  0.78166976670E+01 -0.11803069564E+02  0.12258183484E+02  0.18726352444E+02  0.00000000000E+00 0. -1.
         11    1    3    3    0    0 -0.84554370015E+00  0.98509008838E+01  0.26931888115E+02  0.28689402052E+02  0.51100000000E-03 0. -1.
        -11    1    3    3    0    0  0.23763851131E+01  0.28798141120E+01 -0.27979413828E+00  0.37441715434E+01  0.51100000000E-03 0.  1.
         12    1    3    3    0    0 -0.93475390799E+01 -0.92764543202E+00 -0.38910277461E+02  0.40028073960E+02  0.00000000000E+00 0. -1.
</event>
<event>
 7    1  0.2932741E-013  0.7246130E+02  0.7816164E-02  0.1226709E+00
        -11   -1    0    0    0    0  0.00000000000E+00  0.00000000000E+00  0.45593999997E+02  0.45594000000E+02  0.51100000000E-03 0. -1.
         11   -1    0    0    0    0 -0.00000000000E+00 -0.00000000000E+00 -0.45593999997E+02  0.45594000000E+02  0.51100000000E-03 0.  1.
    9900012    2    1    2    0    0  0.64377046201E+01  0.89591724215E+01  0.15132034571E+02  0.72461300304E+02  0.69999648286E+02 0.  0.
         12    1    1    2    0    0 -0.64377046201E+01 -0.89591724215E+01 -0.15132034571E+02  0.18726699696E+02  0.00000000000E+00 0. -1.
         11    1    3    3    0    0 -0.16183806784E+02  0.15012855873E+02  0.12474867486E+02  0.25355941366E+02  0.51100000000E-03 0. -1.
        -11    1    3    3    0    0 -0.28577653248E+00 -0.15832243600E+02 -0.10437988533E+02  0.18965579625E+02  0.51100000000E-03 0.  1.
         12    1    3    3    0    0  0.22907287936E+02  0.97785601478E+01  0.13095155617E+02  0.28139779313E+02  0.00000000000E+00 0. -1.
</event>
<event>
 7    1  0.3571462E-013  0.7246160E+02  0.7816164E-02  0.1226708E+00
        -11   -1    0    0    0    0  0.00000000000E+00  0.00000000000E+00  0.45593999997E+02  0.45594000000E+02  0.51100000000E-03 0. -1.
         11   -1    0    0    0    0 -0.00000000000E+00 -0.00000000000E+00 -0.45593999997E+02  0.45594000000E+02  0.51100000000E-03 0.  1.
    9900012    2    1    2    0    0 -0.71215932449E+00  0.82020676610E+01 -0.16819538042E+02  0.72461602995E+02  0.70000042599E+02 0.  0.
         12    1    1    2    0    0  0.71215932449E+00 -0.82020676610E+01  0.16819538042E+02  0.18726397005E+02  0.00000000000E+00 0. -1.
         11    1    3    3    0    0 -0.15585388079E+02  0.27855139632E+02  0.48230862838E+01  0.32281190917E+02  0.51100000000E-03 0. -1.
        -11    1    3    3    0    0 -0.74694650838E+00  0.47801184447E+01 -0.35332863142E+01  0.59909576756E+01  0.51100000000E-03 0.  1.
        -12    1    3    3    0    0  0.15620175262E+02 -0.24433190415E+02 -0.18109338012E+02  0.34189454403E+02  0.00000000000E+00 0.  1.
</event>
<event>
 7    1  0.2932741E-013  0.7246151E+02  0.7816164E-02  0.1226708E+00
        -11   -1    0    0    0    0  0.00000000000E+00  0.00000000000E+00  0.45593999997E+02  0.45594000000E+02  0.51100000000E-03 0.  1.
         11   -1    0    0    0    0 -0.00000000000E+00 -0.00000000000E+00 -0.45593999997E+02  0.45594000000E+02  0.51100000000E-03 0. -1.
    9900012    2    1    2    0    0 -0.10488275193E+02  0.14515788949E+02 -0.54744161957E+01  0.72461513997E+02  0.69999926663E+02 0.  0.
         12    1    1    2    0    0  0.10488275193E+02 -0.14515788949E+02  0.54744161957E+01  0.18726486003E+02  0.00000000000E+00 0. -1.
         11    1    3    3    0    0 -0.20749832338E+02 -0.93477854974E+01  0.22711383479E+02  0.32151882923E+02  0.51100000000E-03 0. -1.
        -11    1    3    3    0    0 -0.79799116840E+00  0.35249154050E+01  0.27183882723E+00  0.36243227128E+01  0.51100000000E-03 0.  1.
        -12    1    3    3    0    0  0.11059548313E+02  0.20338659041E+02 -0.28457638501E+02  0.36685308361E+02  0.00000000000E+00 0.  1.
</event>
<event>
 7    1  0.2932741E-013  0.7246156E+02  0.7816164E-02  0.1226708E+00
        -11   -1    0    0    0    0  0.00000000000E+00  0.00000000000E+00  0.45593999997E+02  0.45594000000E+02  0.51100000000E-03 0. -1.
         11   -1    0    0    0    0 -0.00000000000E+00 -0.00000000000E+00 -0.45593999997E+02  0.45594000000E+02  0.51100000000E-03 0.  1.
    9900012    2    1    2    0    0  0.10235707623E+02  0.13502361678E+02 -0.79747187472E+01  0.72461558252E+02  0.69999984313E+02 0.  0.
         12    1    1    2    0    0 -0.10235707623E+02 -0.13502361678E+02  0.79747187472E+01  0.18726441748E+02  0.00000000000E+00 0. -1.
         11    1    3    3    0    0  0.12665021981E+02  0.34565211357E+02  0.44541496346E-02  0.36812452214E+02  0.51100000000E-03 0.  1.
        -11    1    3    3    0    0  0.89413485854E+01 -0.29618548344E+00 -0.79575724222E+01  0.11973236801E+02  0.51100000000E-03 0. -1.
         12    1    3    3    0    0 -0.11370662943E+02 -0.20766664195E+02 -0.21600474596E-01  0.23675869237E+02  0.00000000000E+00 0. -1.
</event>
<event>
 7    1  0.2932741E-013  0.7246148E+02  0.7816164E-02  0.1226708E+00
        -11   -1    0    0    0    0  0.00000000000E+00  0.00000000000E+00  0.45593999997E+02  0.45594000000E+02  0.51100000000E-03 0. -1.
         11   -1    0    0    0    0 -0.00000000000E+00 -0.00000000000E+00 -0.45593999997E+02  0.45594000000E+02  0.51100000000E-03 0.  1.
    9900012    2    1    2    0    0 -0.16683244624E+02  0.84988303882E+01 -0.34895790893E+00  0.72461480282E+02  0.69999882741E+02 0.  0.
         12    1    1    2    0    0  0.16683244624E+02 -0.84988303882E+01  0.34895790893E+00  0.18726519718E+02  0.00000000000E+00 0. -1.
         11    1    3    3    0    0 -0.20706427130E+02 -0.26639705901E+02  0.91471218077E+01  0.34958545344E+02  0.51100000000E-03 0. -1.
        -11    1    3    3    0    0 -0.16445593359E+01  0.95262566854E+01 -0.18938988295E+00  0.96690232513E+01  0.51100000000E-03 0.  1.
        -12    1    3    3    0    0  0.56677418422E+01  0.25612279603E+02 -0.93066898337E+01  0.27833911686E+02  0.00000000000E+00 0.  1.
</event>
<event>
 7    1  0.2932741E-013  0.7246155E+02  0.7816164E-02  0.1226708E+00
        -11   -1    0    0    0    0  0.00000000000E+00  0.00000000000E+00  0.45593999997E+02  0.45594000000E+02  0.51100000000E-03 0.  1.
         11   -1    0    0    0    0 -0.00000000000E+00 -0.00000000000E+00 -0.45593999997E+02  0.45594000000E+02  0.51100000000E-03 0. -1.
    9900012    2    1    2    0    0  0.84528665794E+01  0.14478407869E+02 -0.83429450980E+01  0.72461548635E+02  0.69999971784E+02 0.  0.
         12    1    1    2    0    0 -0.84528665794E+01 -0.14478407869E+02  0.83429450980E+01  0.18726451365E+02  0.00000000000E+00 0. -1.
         11    1    3    3    0    0  0.51901046241E+01  0.30289316671E+02 -0.55147255606E+01  0.31221660569E+02  0.51100000000E-03 0. -1.
        -11    1    3    3    0    0  0.17778918051E+02 -0.19081102909E+00  0.50886989292E+01  0.18493814992E+02  0.51100000000E-03 0.  1.
         12    1    3    3    0    0 -0.14516156096E+02 -0.15620097773E+02 -0.79169184666E+01  0.22746073073E+02  0.00000000000E+00 0. -1.
</event>
<event>
 7    1  0.2932741E-013  0.7246138E+02  0.7816164E-02  0.1226709E+00
        -11   -1    0    0    0    0  0.00000000000E+00  0.00000000000E+00  0.45593999997E+02  0.45594000000E+02  0.51100000000E-03 0.  1.
         11   -1    0    0    0    0 -0.00000000000E+00 -0.00000000000E+00 -0.45593999997E+02  0.45594000000E+02  0.51100000000E-03 0. -1.
    9900012    2    1    2    0    0 -0.17205801322E+02 -0.73361509461E+01 -0.90966708166E+00  0.72461382472E+02  0.69999755326E+02 0.  0.
         12    1    1    2    0    0  0.17205801322E+02  0.73361509461E+01  0.90966708166E+00  0.18726617528E+02  0.00000000000E+00 0. -1.
         11    1    3    3    0    0  0.38941108733E+01 -0.13064346919E+02 -0.10417763544E+02  0.17157245042E+02  0.51100000000E-03 0. -1.
        -11    1    3    3    0    0 -0.17666989976E+02  0.17726085383E+02 -0.14009185715E+02  0.28680898216E+02  0.51100000000E-03 0.  1.
        -12    1    3    3    0    0 -0.34329222189E+01 -0.11997889410E+02  0.23517282177E+02  0.26623239214E+02  0.00000000000E+00 0.  1.
</event>
<event>
 7    1  0.2932741E-013  0.7246159E+02  0.7816164E-02  0.1226708E+00
        -11   -1    0    0    0    0  0.00000000000E+00  0.00000000000E+00  0.45593999997E+02  0.45594000000E+02  0.51100000000E-03 0.  1.
         11   -1    0    0    0    0 -0.00000000000E+00 -0.00000000000E+00 -0.45593999997E+02  0.45594000000E+02  0.51100000000E-03 0. -1.
    9900012    2    1    2    0    0 -0.11803437926E+02  0.73984241061E+01  0.12514819104E+02  0.72461587548E+02  0.70000022476E+02 0.  0.
         12    1    1    2    0    0  0.11803437926E+02 -0.73984241061E+01 -0.12514819104E+02  0.18726412452E+02  0.00000000000E+00 0. -1.
         11    1    3    3    0    0 -0.60529134703E+01 -0.10218707805E+02 -0.11017948765E+02  0.16200461288E+02  0.51100000000E-03 0. -1.
        -11    1    3    3    0    0  0.75076479211E+01 -0.92472638941E+01 -0.67276344210E+01  0.13679829385E+02  0.51100000000E-03 0.  1.
        -12    1    3    3    0    0 -0.13258172377E+02  0.26864395806E+02  0.30260402290E+02  0.42581296875E+02  0.00000000000E+00 0.  1.
</event>
<event>
 7    1  0.2932741E-013  0.7246159E+02  0.7816164E-02  0.1226708E+00
        -11   -1    0    0    0    0  0.00000000000E+00  0.00000000000E+00  0.45593999997E+02  0.45594000000E+02  0.51100000000E-03 0.  1.
         11   -1    0    0    0    0 -0.00000000000E+00 -0.00000000000E+00 -0.45593999997E+02  0.45594000000E+02  0.51100000000E-03 0. -1.
    9900012    2    1    2    0    0 -0.73064950661E+01  0.14822318847E+02  0.88086459534E+01  0.72461594854E+02  0.70000031993E+02 0.  0.
         12    1    1    2    0    0  0.73064950661E+01 -0.14822318847E+02 -0.88086459534E+01  0.18726405146E+02  0.00000000000E+00 0. -1.
         11    1    3    3    0    0 -0.89432049105E+01 -0.21911303329E+02 -0.52018667135E+00  0.23671855062E+02  0.51100000000E-03 0. -1.
        -11    1    3    3    0    0  0.26112807957E+01 -0.48705465096E+01  0.40266262054E+01  0.68377430162E+01  0.51100000000E-03 0.  1.
         12    1    3    3    0    0 -0.97457095129E+00  0.41604168686E+02  0.53022064193E+01  0.41951996776E+02  0.00000000000E+00 0. -1.
</event>
<event>
 7    1  0.2932741E-013  0.7246169E+02  0.7816164E-02  0.1226708E+00
        -11   -1    0    0    0    0  0.00000000000E+00  0.00000000000E+00  0.45593999997E+02  0.45594000000E+02  0.51100000000E-03 0.  1.
         11   -1    0    0    0    0 -0.00000000000E+00 -0.00000000000E+00 -0.45593999997E+02  0.45594000000E+02  0.51100000000E-03 0. -1.
    9900012    2    1    2    0    0  0.89780972182E+01  0.14147222022E+02 -0.83621004566E+01  0.72461685770E+02  0.70000150428E+02 0.  0.
         12    1    1    2    0    0 -0.89780972182E+01 -0.14147222022E+02  0.83621004566E+01  0.18726314230E+02  0.00000000000E+00 0. -1.
         11    1    3    3    0    0 -0.25652731763E+01 -0.17944931846E+01 -0.15409651228E+02  0.15724445412E+02  0.51100000000E-03 0. -1.
        -11    1    3    3    0    0 -0.17537553728E+02 -0.66997569121E+01  0.65332854719E+01  0.19878036944E+02  0.51100000000E-03 0.  1.
         12    1    3    3    0    0  0.29080924123E+02  0.22641472118E+02  0.51426529999E+00  0.36859203414E+02  0.00000000000E+00 0. -1.
</event>
<event>
 7    1  0.2932741E-013  0.7246157E+02  0.7816164E-02  0.1226708E+00
        -11   -1    0    0    0    0  0.00000000000E+00  0.00000000000E+00  0.45593999997E+02  0.45594000000E+02  0.51100000000E-03 0.  1.
         11   -1    0    0    0    0 -0.00000000000E+00 -0.00000000000E+00 -0.45593999997E+02  0.45594000000E+02  0.51100000000E-03 0. -1.
    9900012    2    1    2    0    0  0.61804238767E+00  0.18434728047E+02  0.32338590226E+01  0.72461574321E+02  0.70000005245E+02 0.  0.
         12    1    1    2    0    0 -0.61804238767E+00 -0.18434728047E+02 -0.32338590226E+01  0.18726425679E+02  0.00000000000E+00 0. -1.
         11    1    3    3    0    0 -0.19706690817E+02 -0.71015129329E+00 -0.83871811007E+01  0.21429017357E+02  0.51100000000E-03 0. -1.
        -11    1    3    3    0    0 -0.63928309973E+01 -0.85116647401E+01  0.58539422763E+01  0.12148471725E+02  0.51100000000E-03 0.  1.
         12    1    3    3    0    0  0.26717564202E+02  0.27656544080E+02  0.57670978470E+01  0.38884085239E+02  0.00000000000E+00 0. -1.
</event>
<event>
 7    1  0.2932741E-013  0.7246159E+02  0.7816164E-02  0.1226708E+00
        -11   -1    0    0    0    0  0.00000000000E+00  0.00000000000E+00  0.45593999997E+02  0.45594000000E+02  0.51100000000E-03 0.  1.
         11   -1    0    0    0    0 -0.00000000000E+00 -0.00000000000E+00 -0.45593999997E+02  0.45594000000E+02  0.51100000000E-03 0. -1.
    9900012    2    1    2    0    0 -0.11029295302E+02  0.35550208106E+01  0.14710372588E+02  0.72461585781E+02  0.70000020174E+02 0.  0.
         12    1    1    2    0    0  0.11029295302E+02 -0.35550208106E+01 -0.14710372588E+02  0.18726414219E+02  0.00000000000E+00 0. -1.
         11    1    3    3    0    0 -0.21301718730E+01  0.49247287511E+01 -0.47694855180E+01  0.71790373901E+01  0.51100000000E-03 0. -1.
        -11    1    3    3    0    0 -0.24452106007E+02  0.17440436915E+02  0.26319700916E+02  0.39934959428E+02  0.51100000000E-03 0.  1.
         12    1    3    3    0    0  0.15552982578E+02 -0.18810144856E+02 -0.68398428093E+01  0.25347588963E+02  0.00000000000E+00 0. -1.
</event>
<event>
 7    1  0.2932741E-013  0.7246159E+02  0.7816164E-02  0.1226708E+00
        -11   -1    0    0    0    0  0.00000000000E+00  0.00000000000E+00  0.45593999997E+02  0.45594000000E+02  0.51100000000E-03 0.  1.
         11   -1    0    0    0    0 -0.00000000000E+00 -0.00000000000E+00 -0.45593999997E+02  0.45594000000E+02  0.51100000000E-03 0. -1.
    9900012    2    1    2    0    0  0.90666879102E+00  0.68824488865E+00  0.18691781064E+02  0.72461590609E+02  0.70000026464E+02 0.  0.
         12    1    1    2    0    0 -0.90666879102E+00 -0.68824488865E+00 -0.18691781064E+02  0.18726409391E+02  0.00000000000E+00 0. -1.
         11    1    3    3    0    0 -0.98971189206E+01 -0.11252046354E+02 -0.77241464726E+01  0.16858942703E+02  0.51100000000E-03 0. -1.
        -11    1    3    3    0    0 -0.43049186030E+01 -0.15861276564E+02  0.14078849058E+02  0.21640850480E+02  0.51100000000E-03 0.  1.
         12    1    3    3    0    0  0.15108706315E+02  0.27801567807E+02  0.12337078479E+02  0.33961797426E+02  0.00000000000E+00 0. -1.
</event>
<event>
 7    1  0.2932741E-013  0.7246154E+02  0.7816164E-02  0.1226708E+00
        -11   -1    0    0    0    0  0.00000000000E+00  0.00000000000E+00  0.45593999997E+02  0.45594000000E+02  0.51100000000E-03 0. -1.
         11   -1    0    0    0    0 -0.00000000000E+00 -0.00000000000E+00 -0.45593999997E+02  0.45594000000E+02  0.51100000000E-03 0.  1.
    9900012    2    1    2    0    0  0.15599985782E+02  0.92546033383E+01 -0.46554260333E+01  0.72461541955E+02  0.69999963083E+02 0.  0.
         12    1    1    2    0    0 -0.15599985782E+02 -0.92546033383E+01  0.46554260333E+01  0.18726458045E+02  0.00000000000E+00 0. -1.
         11    1    3    3    0    0  0.23662843562E+02  0.68408626029E+01  0.19486817892E+02  0.31408018696E+02  0.51100000000E-03 0. -1.
        -11    1    3    3    0    0 -0.20806899399E+01 -0.88159431257E+01  0.42013237800E+01  0.99850511059E+01  0.51100000000E-03 0.  1.
        -12    1    3    3    0    0 -0.59821678399E+01  0.11229683861E+02 -0.28343567705E+02  0.31068472153E+02  0.00000000000E+00 0.  1.
</event>
<event>
 7    1  0.2932741E-013  0.7246151E+02  0.7816164E-02  0.1226708E+00
        -11   -1    0    0    0    0  0.00000000000E+00  0.00000000000E+00  0.45593999997E+02  0.45594000000E+02  0.51100000000E-03 0. -1.
         11   -1    0    0    0    0 -0.00000000000E+00 -0.00000000000E+00 -0.45593999997E+02  0.45594000000E+02  0.51100000000E-03 0.  1.
    9900012    2    1    2    0    0 -0.10684539712E+02 -0.13590684929E+02 -0.71982889439E+01  0.72461508887E+02  0.69999920005E+02 0.  0.
         12    1    1    2    0    0  0.10684539712E+02  0.13590684929E+02  0.71982889439E+01  0.18726491113E+02  0.00000000000E+00 0. -1.
         11    1    3    3    0    0  0.33555687403E+01  0.15030611697E+02 -0.15630596908E+02  0.21942987252E+02  0.51100000000E-03 0. -1.
        -11    1    3    3    0    0 -0.24229558062E+02 -0.11490623797E+02 -0.38725028375E+01  0.27094320394E+02  0.51100000000E-03 0.  1.
         12    1    3    3    0    0  0.10189449610E+02 -0.17130672829E+02  0.12304810801E+02  0.23424201241E+02  0.00000000000E+00 0. -1.
</event>
<event>
 7    1  0.2932741E-013  0.7246157E+02  0.7816164E-02  0.1226708E+00
        -11   -1    0    0    0    0  0.00000000000E+00  0.00000000000E+00  0.45593999997E+02  0.45594000000E+02  0.51100000000E-03 0.  1.
         11   -1    0    0    0    0 -0.00000000000E+00 -0.00000000000E+00 -0.45593999997E+02  0.45594000000E+02  0.51100000000E-03 0. -1.
    9900012    2    1    2    0    0 -0.18631853385E+02 -0.18779571230E+01 -0.80867675014E-01  0.72461568864E+02  0.69999998137E+02 0.  0.
         12    1    1    2    0    0  0.18631853385E+02  0.18779571230E+01  0.80867675014E-01  0.18726431136E+02  0.00000000000E+00 0. -1.
         11    1    3    3    0    0  0.30512995022E+01  0.24944052472E+02 -0.11164046250E+02  0.27498220148E+02  0.51100000000E-03 0.  1.
        -11    1    3    3    0    0 -0.90768190792E+01 -0.15173831140E+02 -0.79044351345E+01  0.19367857164E+02  0.51100000000E-03 0. -1.
        -12    1    3    3    0    0 -0.12606333808E+02 -0.11648178455E+02  0.18987613709E+02  0.25595491552E+02  0.00000000000E+00 0.  1.
</event>
<event>
 7    1  0.2932741E-013  0.7246162E+02  0.7816164E-02  0.1226708E+00
        -11   -1    0    0    0    0  0.00000000000E+00  0.00000000000E+00  0.45593999997E+02  0.45594000000E+02  0.51100000000E-03 0.  1.
         11   -1    0    0    0    0 -0.00000000000E+00 -0.00000000000E+00 -0.45593999997E+02  0.45594000000E+02  0.51100000000E-03 0. -1.
    9900012    2    1    2    0    0 -0.12917027829E+02 -0.10967339042E+02  0.79715139458E+01  0.72461623730E+02  0.70000069610E+02 0.  0.
         12    1    1    2    0    0  0.12917027829E+02  0.10967339042E+02 -0.79715139458E+01  0.18726376270E+02  0.00000000000E+00 0. -1.
         11    1    3    3    0    0  0.16310684399E+02 -0.64033706167E+01 -0.60647492874E+01  0.18542458440E+02  0.51100000000E-03 0. -1.
        -11    1    3    3    0    0  0.64360793365E+00 -0.80461958044E+01 -0.11782965287E+02  0.14282638738E+02  0.51100000000E-03 0.  1.
        -12    1    3    3    0    0 -0.29871320162E+02  0.34822273793E+01  0.25819228520E+02  0.39636526552E+02  0.00000000000E+00 0.  1.
</event>
<event>
 7    1  0.2932741E-013  0.7246158E+02  0.7816164E-02  0.1226708E+00
        -11   -1    0    0    0    0  0.00000000000E+00  0.00000000000E+00  0.45593999997E+02  0.45594000000E+02  0.51100000000E-03 0.  1.
         11   -1    0    0    0    0 -0.00000000000E+00 -0.00000000000E+00 -0.45593999997E+02  0.45594000000E+02  0.51100000000E-03 0. -1.
    9900012    2    1    2    0    0  0.91417951450E+01  0.13941699274E+02  0.85285075316E+01  0.72461579151E+02  0.70000011537E+02 0.  0.
         12    1    1    2    0    0 -0.91417951450E+01 -0.13941699274E+02 -0.85285075316E+01  0.18726420849E+02  0.00000000000E+00 0. -1.
         11    1    3    3    0    0  0.21754451789E+02  0.79269473640E+01 -0.41310507788E+01  0.23519316486E+02  0.51100000000E-03 0. -1.
        -11    1    3    3    0    0  0.24298364257E+01 -0.12157548092E+02  0.20606988690E+02  0.24049076152E+02  0.51100000000E-03 0.  1.
        -12    1    3    3    0    0 -0.15042493070E+02  0.18172300002E+02 -0.79474303792E+01  0.24893186512E+02  0.00000000000E+00 0.  1.
</event>
<event>
 7    1  0.2932741E-013  0.7246160E+02  0.7816164E-02  0.1226708E+00
        -11   -1    0    0    0    0  0.00000000000E+00  0.00000000000E+00  0.45593999997E+02  0.45594000000E+02  0.51100000000E-03 0.  1.
         11   -1    0    0    0    0 -0.00000000000E+00 -0.00000000000E+00 -0.45593999997E+02  0.45594000000E+02  0.51100000000E-03 0. -1.
    9900012    2    1    2    0    0  0.16904299910E+02 -0.53038246841E+01  0.60656530319E+01  0.72461599960E+02  0.70000038645E+02 0.  0.
         12    1    1    2    0    0 -0.16904299910E+02  0.53038246841E+01 -0.60656530319E+01  0.18726400040E+02  0.00000000000E+00 0. -1.
         11    1    3    3    0    0 -0.37252243186E+01 -0.10950656020E+02 -0.11738546746E+02  0.16479916367E+02  0.51100000000E-03 0. -1.
        -11    1    3    3    0    0  0.31728615939E+02 -0.10071840539E+02  0.15088317834E+02  0.36548657658E+02  0.51100000000E-03 0.  1.
         12    1    3    3    0    0 -0.11099091710E+02  0.15718671875E+02  0.27158819437E+01  0.19433025936E+02  0.00000000000E+00 0. -1.
</event>
<event>
 7    1  0.2932741E-013  0.7246154E+02  0.7816164E-02  0.1226708E+00
        -11   -1    0    0    0    0  0.00000000000E+00  0.00000000000E+00  0.45593999997E+02  0.45594000000E+02  0.51100000000E-03 0.  1.
         11   -1    0    0    0    0 -0.00000000000E+00 -0.00000000000E+00 -0.45593999997E+02  0.45594000000E+02  0.51100000000E-03 0. -1.
    9900012    2    1    2    0    0 -0.10963821322E+02 -0.11863614307E+02  0.94725750301E+01  0.72461537438E+02  0.69999957198E+02 0.  0.
         12    1    1    2    0    0  0.10963821322E+02  0.11863614307E+02 -0.94725750301E+01  0.18726462562E+02  0.00000000000E+00 0. -1.
         11    1    3    3    0    0  0.19837683680E+02 -0.10286157295E+01  0.58322995122E+01  0.20702837051E+02  0.51100000000E-03 0. -1.
        -11    1    3    3    0    0 -0.33888554001E+00  0.12591046151E+02 -0.25039855683E+01  0.12842088248E+02  0.51100000000E-03 0.  1.
        -12    1    3    3    0    0 -0.30462619461E+02 -0.23426044728E+02  0.61442610862E+01  0.38916612139E+02  0.00000000000E+00 0.  1.
</event>
<event>
 7    1  0.2932741E-013  0.7246163E+02  0.7816164E-02  0.1226708E+00
        -11   -1    0    0    0    0  0.00000000000E+00  0.00000000000E+00  0.45593999997E+02  0.45594000000E+02  0.51100000000E-03 0. -1.
         11   -1    0    0    0    0 -0.00000000000E+00 -0.00000000000E+00 -0.45593999997E+02  0.45594000000E+02  0.51100000000E-03 0.  1.
    9900012    2    1    2    0    0  0.13268945003E+02  0.12474076456E+02 -0.43599662743E+01  0.72461633806E+02  0.70000082736E+02 0.  0.
         12    1    1    2    0    0 -0.13268945003E+02 -0.12474076456E+02  0.43599662743E+01  0.18726366194E+02  0.00000000000E+00 0. -1.
         11    1    3    3    0    0  0.75339557811E+01  0.16014980765E+01  0.96964358529E+01  0.12383301430E+02  0.51100000000E-03 0. -1.
        -11    1    3    3    0    0  0.27410045829E+02 -0.83501221356E+00 -0.20935813313E+02  0.34500958495E+02  0.51100000000E-03 0.  1.
        -12    1    3    3    0    0 -0.21675056606E+02  0.11707590593E+02  0.68794111861E+01  0.25577373881E+02  0.00000000000E+00 0.  1.
</event>
<event>
 7    1  0.2932741E-013  0.7246157E+02  0.7816164E-02  0.1226708E+00
        -11   -1    0    0    0    0  0.00000000000E+00  0.00000000000E+00  0.45593999997E+02  0.45594000000E+02  0.51100000000E-03 0. -1.
         11   -1    0    0    0    0 -0.00000000000E+00 -0.00000000000E+00 -0.45593999997E+02  0.45594000000E+02  0.51100000000E-03 0.  1.
    9900012    2    1    2    0    0 -0.13929686393E+02  0.95462906594E+01  0.80939094182E+01  0.72461569533E+02  0.69999999008E+02 0.  0.
         12    1    1    2    0    0  0.13929686393E+02 -0.95462906594E+01 -0.80939094182E+01  0.18726430467E+02  0.00000000000E+00 0. -1.
         11    1    3    3    0    0 -0.17471699894E+02  0.16309581953E+02  0.13730036153E+02  0.27564046396E+02  0.51100000000E-03 0. -1.
        -11    1    3    3    0    0 -0.15117832947E+02 -0.12045132676E+02 -0.13908942136E+02  0.23813709618E+02  0.51100000000E-03 0.  1.
        -12    1    3    3    0    0  0.18659846448E+02  0.52818413818E+01  0.82728154012E+01  0.21083813519E+02  0.00000000000E+00 0.  1.
</event>
<event>
 7    1  0.2932741E-013  0.7246157E+02  0.7816164E-02  0.1226708E+00
        -11   -1    0    0    0    0  0.00000000000E+00  0.00000000000E+00  0.45593999997E+02  0.45594000000E+02  0.51100000000E-03 0.  1.
         11   -1    0    0    0    0 -0.00000000000E+00 -0.00000000000E+00 -0.45593999997E+02  0.45594000000E+02  0.51100000000E-03 0. -1.
    9900012    2    1    2    0    0 -0.14991134886E+02 -0.10491363276E+02  0.39845098698E+01  0.72461570884E+02  0.70000000768E+02 0.  0.
         12    1    1    2    0    0  0.14991134886E+02  0.10491363276E+02 -0.39845098698E+01  0.18726429116E+02  0.00000000000E+00 0. -1.
         11    1    3    3    0    0  0.20220381202E+02  0.83034475029E+01 -0.89107178063E+01  0.23605337288E+02  0.51100000000E-03 0. -1.
        -11    1    3    3    0    0  0.62047226922E+00  0.30218718220E+01 -0.27005143294E+01  0.40999357373E+01  0.51100000000E-03 0.  1.
        -12    1    3    3    0    0 -0.35831988357E+02 -0.21816682601E+02  0.15595742006E+02  0.44756297859E+02  0.00000000000E+00 0.  1.
</event>
<event>
 7    1  0.2932741E-013  0.7246151E+02  0.7816164E-02  0.1226708E+00
        -11   -1    0    0    0    0  0.00000000000E+00  0.00000000000E+00  0.45593999997E+02  0.45594000000E+02  0.51100000000E-03 0. -1.
         11   -1    0    0    0    0 -0.00000000000E+00 -0.00000000000E+00 -0.45593999997E+02  0.45594000000E+02  0.51100000000E-03 0.  1.
    9900012    2    1    2    0    0 -0.91110632622E+01  0.11003644102E+02 -0.12107432818E+02  0.72461505754E+02  0.69999915924E+02 0.  0.
         12    1    1    2    0    0  0.91110632622E+01 -0.11003644102E+02  0.12107432818E+02  0.18726494246E+02  0.00000000000E+00 0. -1.
         11    1    3    3    0    0 -0.11616235645E+02  0.20169762559E+02 -0.53195461661E+01  0.23875799964E+02  0.51100000000E-03 0. -1.
        -11    1    3    3    0    0  0.16242037862E+02  0.13822318408E+02 -0.28049120256E+01  0.21511109033E+02  0.51100000000E-03 0.  1.
         12    1    3    3    0    0 -0.13736865479E+02 -0.22988436865E+02 -0.39829746263E+01  0.27074596757E+02  0.00000000000E+00 0. -1.
</event>
<event>
 7    1  0.2932741E-013  0.7246144E+02  0.7816164E-02  0.1226708E+00
        -11   -1    0    0    0    0  0.00000000000E+00  0.00000000000E+00  0.45593999997E+02  0.45594000000E+02  0.51100000000E-03 0.  1.
         11   -1    0    0    0    0 -0.00000000000E+00 -0.00000000000E+00 -0.45593999997E+02  0.45594000000E+02  0.51100000000E-03 0. -1.
    9900012    2    1    2    0    0 -0.12226097904E+02 -0.63923320353E+01 -0.12662728496E+02  0.72461439403E+02  0.69999829490E+02 0.  0.
         12    1    1    2    0    0  0.12226097904E+02  0.63923320353E+01  0.12662728496E+02  0.18726560597E+02  0.00000000000E+00 0. -1.
         11    1    3    3    0    0 -0.86287734067E+01 -0.27034188226E+01 -0.14452648269E+02  0.17048262260E+02  0.51100000000E-03 0. -1.
        -11    1    3    3    0    0 -0.23045191815E+02 -0.19539389262E+02 -0.51900099140E+00  0.30218172692E+02  0.51100000000E-03 0.  1.
         12    1    3    3    0    0  0.19447867318E+02  0.15850476049E+02  0.23089207640E+01  0.25195004451E+02  0.00000000000E+00 0. -1.
</event>
<event>
 7    1  0.2932741E-013  0.7246161E+02  0.7816164E-02  0.1226708E+00
        -11   -1    0    0    0    0  0.00000000000E+00  0.00000000000E+00  0.45593999997E+02  0.45594000000E+02  0.51100000000E-03 0.  1.
         11   -1    0    0    0    0 -0.00000000000E+00 -0.00000000000E+00 -0.45593999997E+02  0.45594000000E+02  0.51100000000E-03 0. -1.
    9900012    2    1    2    0    0 -0.11985226802E+02 -0.14104581224E+02  0.28448037299E+01  0.72461607361E+02  0.70000048286E+02 0.  0.
         12    1    1    2    0    0  0.11985226802E+02  0.14104581224E+02 -0.28448037299E+01  0.18726392639E+02  0.00000000000E+00 0. -1.
         11    1    3    3    0    0  0.45237343246E+01 -0.10781322034E+02 -0.17031579787E+02  0.20658552402E+02  0.51100000000E-03 0. -1.
        -11    1    3    3    0    0  0.10464790830E+02 -0.14445795490E+00 -0.77795352459E+01  0.13040471008E+02  0.51100000000E-03 0.  1.
        -12    1    3    3    0    0 -0.26973751957E+02 -0.31788012350E+01  0.27655918763E+02  0.38762583951E+02  0.00000000000E+00 0.  1.
</event>
<event>
 7    1  0.2932741E-013  0.7246160E+02  0.7816164E-02  0.1226708E+00
        -11   -1    0    0    0    0  0.00000000000E+00  0.00000000000E+00  0.45593999997E+02  0.45594000000E+02  0.51100000000E-03 0.  1.
         11   -1    0    0    0    0 -0.00000000000E+00 -0.00000000000E+00 -0.45593999997E+02  0.45594000000E+02  0.51100000000E-03 0. -1.
    9900012    2    1    2    0    0  0.66822819944E+01 -0.85881123190E+01  0.15240384214E+02  0.72461604809E+02  0.70000044962E+02 0.  0.
         12    1    1    2    0    0 -0.66822819944E+01  0.85881123190E+01 -0.15240384214E+02  0.18726395191E+02  0.00000000000E+00 0. -1.
         11    1    3    3    0    0 -0.32471372006E+00 -0.72523216995E+01 -0.48540504293E+01  0.87328926974E+01  0.51100000000E-03 0. -1.
        -11    1    3    3    0    0  0.10769142447E+02 -0.14739886922E+02  0.37340928674E+02  0.41564211168E+02  0.51100000000E-03 0.  1.
         12    1    3    3    0    0 -0.37621467327E+01  0.13404096302E+02 -0.17246494031E+02  0.22164500943E+02  0.00000000000E+00 0. -1.
</event>
<event>
 7    1  0.2932741E-013  0.7246158E+02  0.7816164E-02  0.1226708E+00
        -11   -1    0    0    0    0  0.00000000000E+00  0.00000000000E+00  0.45593999997E+02  0.45594000000E+02  0.51100000000E-03 0. -1.
         11   -1    0    0    0    0 -0.00000000000E+00 -0.00000000000E+00 -0.45593999997E+02  0.45594000000E+02  0.51100000000E-03 0.  1.
    9900012    2    1    2    0    0  0.11670337458E+02 -0.11914815570E+02 -0.85158244075E+01  0.72461578244E+02  0.70000010355E+02 0.  0.
         12    1    1    2    0    0 -0.11670337458E+02  0.11914815570E+02  0.85158244075E+01  0.18726421756E+02  0.00000000000E+00 0. -1.
         11    1    3    3    0    0  0.25287169434E+02 -0.38511145447E+01  0.21198237805E+02  0.33221037123E+02  0.51100000000E-03 0. -1.
        -11    1    3    3    0    0 -0.78887211738E+01 -0.23132682114E+01  0.22177106209E+00  0.82238868087E+01  0.51100000000E-03 0.  1.
        -12    1    3    3    0    0 -0.57281108017E+01 -0.57504328141E+01 -0.29935833274E+02  0.31016654312E+02  0.00000000000E+00 0.  1.
</event>
<event>
 7    1  0.2932741E-013  0.7246153E+02  0.7816164E-02  0.1226708E+00
        -11   -1    0    0    0    0  0.00000000000E+00  0.00000000000E+00  0.45593999997E+02  0.45594000000E+02  0.51100000000E-03 0.  1.
         11   -1    0    0    0    0 -0.00000000000E+00 -0.00000000000E+00 -0.45593999997E+02  0.45594000000E+02  0.51100000000E-03 0. -1.
    9900012    2    1    2    0    0 -0.86487155242E+01 -0.93849433082E+01  0.13704130439E+02  0.72461531240E+02  0.69999949125E+02 0.  0.
         12    1    1    2    0    0  0.86487155242E+01  0.93849433082E+01 -0.13704130439E+02  0.18726468760E+02  0.00000000000E+00 0. -1.
         11    1    3    3    0    0  0.83155890770E+00 -0.18784504504E+02  0.35793960168E+01  0.19140563623E+02  0.51100000000E-03 0. -1.
        -11    1    3    3    0    0 -0.24901274380E+02 -0.10626707662E+02  0.54206069542E+01  0.27611290471E+02  0.51100000000E-03 0.  1.
         12    1    3    3    0    0  0.15420999948E+02  0.20026268858E+02  0.47041274680E+01  0.25709677147E+02  0.00000000000E+00 0. -1.
</event>
<event>
 7    1  0.2932741E-013  0.7246146E+02  0.7816164E-02  0.1226708E+00
        -11   -1    0    0    0    0  0.00000000000E+00  0.00000000000E+00  0.45593999997E+02  0.45594000000E+02  0.51100000000E-03 0.  1.
         11   -1    0    0    0    0 -0.00000000000E+00 -0.00000000000E+00 -0.45593999997E+02  0.45594000000E+02  0.51100000000E-03 0. -1.
    9900012    2    1    2    0    0 -0.43776093814E+01  0.17186719063E+02  0.60113713756E+01  0.72461458358E+02  0.69999854183E+02 0.  0.
         12    1    1    2    0    0  0.43776093814E+01 -0.17186719063E+02 -0.60113713756E+01  0.18726541642E+02  0.00000000000E+00 0. -1.
         11    1    3    3    0    0  0.83844919723E+01  0.91833016325E+01 -0.65275732639E+01  0.14044285225E+02  0.51100000000E-03 0. -1.
        -11    1    3    3    0    0 -0.49946564987E+01  0.27237417408E+02  0.22240789005E+02  0.35517266173E+02  0.51100000000E-03 0.  1.
         12    1    3    3    0    0 -0.77674448551E+01 -0.19233999978E+02 -0.97018443651E+01  0.22899906960E+02  0.00000000000E+00 0. -1.
</event>
<event>
 7    1  0.2932741E-013  0.7246156E+02  0.7816164E-02  0.1226708E+00
        -11   -1    0    0    0    0  0.00000000000E+00  0.00000000000E+00  0.45593999997E+02  0.45594000000E+02  0.51100000000E-03 0. -1.
         11   -1    0    0    0    0 -0.00000000000E+00 -0.00000000000E+00 -0.45593999997E+02  0.45594000000E+02  0.51100000000E-03 0.  1.
    9900012    2    1    2    0    0  0.44971620438E+01 -0.17099823426E+02  0.61685612672E+01  0.72461559447E+02  0.69999985870E+02 0.  0.
         12    1    1    2    0    0 -0.44971620438E+01  0.17099823426E+02 -0.61685612672E+01  0.18726440553E+02  0.00000000000E+00 0. -1.
         11    1    3    3    0    0 -0.22151956664E+02 -0.77355827751E+01  0.14420610357E+02  0.27540922792E+02  0.51100000000E-03 0. -1.
        -11    1    3    3    0    0  0.24608519610E+01  0.66920166182E+01  0.87414236984E+01  0.11280574778E+02  0.51100000000E-03 0.  1.
        -12    1    3    3    0    0  0.24188266747E+02 -0.16056257270E+02 -0.16993472788E+02  0.33640061877E+02  0.00000000000E+00 0.  1.
</event>
<event>
 7    1  0.2932741E-013  0.7246156E+02  0.7816164E-02  0.1226708E+00
        -11   -1    0    0    0    0  0.00000000000E+00  0.00000000000E+00  0.45593999997E+02  0.45594000000E+02  0.51100000000E-03 0.  1.
         11   -1    0    0    0    0 -0.00000000000E+00 -0.00000000000E+00 -0.45593999997E+02  0.45594000000E+02  0.51100000000E-03 0. -1.
    9900012    2    1    2    0    0 -0.14162302672E+02  0.10931911171E+02  0.55319066486E+01  0.72461561738E+02  0.69999988853E+02 0.  0.
         12    1    1    2    0    0  0.14162302672E+02 -0.10931911171E+02 -0.55319066486E+01  0.18726438262E+02  0.00000000000E+00 0. -1.
         11    1    3    3    0    0 -0.10720419839E+02  0.22309279875E+02  0.57593559102E+01  0.25412625815E+02  0.51100000000E-03 0. -1.
        -11    1    3    3    0    0  0.13473761837E+02  0.11902639446E+02  0.24657795032E+01  0.18146491470E+02  0.51100000000E-03 0.  1.
         12    1    3    3    0    0 -0.16915644671E+02 -0.23280008151E+02 -0.26932287648E+01  0.28902444453E+02  0.00000000000E+00 0. -1.
</event>
<event>
 7    1  0.2932741E-013  0.7246159E+02  0.7816164E-02  0.1226708E+00
        -11   -1    0    0    0    0  0.00000000000E+00  0.00000000000E+00  0.45593999997E+02  0.45594000000E+02  0.51100000000E-03 0.  1.
         11   -1    0    0    0    0 -0.00000000000E+00 -0.00000000000E+00 -0.45593999997E+02  0.45594000000E+02  0.51100000000E-03 0. -1.
    9900012    2    1    2    0    0 -0.45167982027E+00 -0.43600920890E+01  0.18206152117E+02  0.72461591038E+02  0.70000027023E+02 0.  0.
         12    1    1    2    0    0  0.45167982027E+00  0.43600920890E+01 -0.18206152117E+02  0.18726408962E+02  0.00000000000E+00 0. -1.
         11    1    3    3    0    0  0.12846138624E+02 -0.13201260456E+02 -0.68562819760E+01  0.19654647236E+02  0.51100000000E-03 0. -1.
        -11    1    3    3    0    0 -0.43156143666E+01 -0.14900703950E+01 -0.12244244156E+02  0.13067760036E+02  0.51100000000E-03 0.  1.
        -12    1    3    3    0    0 -0.89822040773E+01  0.10331238762E+02  0.37306678249E+02  0.39739183767E+02  0.00000000000E+00 0.  1.
</event>
<event>
 7    1  0.2932741E-013  0.7246155E+02  0.7816164E-02  0.1226708E+00
        -11   -1    0    0    0    0  0.00000000000E+00  0.00000000000E+00  0.45593999997E+02  0.45594000000E+02  0.51100000000E-03 0. -1.
         11   -1    0    0    0    0 -0.00000000000E+00 -0.00000000000E+00 -0.45593999997E+02  0.45594000000E+02  0.51100000000E-03 0.  1.
    9900012    2    1    2    0    0  0.14160891507E+01  0.16191572915E+02 -0.93009468861E+01  0.72461549324E+02  0.69999972682E+02 0.  0.
         12    1    1    2    0    0 -0.14160891507E+01 -0.16191572915E+02  0.93009468861E+01  0.18726450676E+02  0.00000000000E+00 0. -1.
         11    1    3    3    0    0  0.43852387293E+01 -0.20382536345E+02 -0.18085655715E+02  0.27600163939E+02  0.51100000000E-03 0. -1.
        -11    1    3    3    0    0 -0.92066915838E+01  0.28089408955E+01  0.26204908955E+01  0.99759857492E+01  0.51100000000E-03 0.  1.
        -12    1    3    3    0    0  0.62375420052E+01  0.33765168365E+02  0.61642179331E+01  0.34885399635E+02  0.00000000000E+00 0.  1.
</event>
<event>
 7    1  0.2932741E-013  0.7246110E+02  0.7816164E-02  0.1226709E+00
        -11   -1    0    0    0    0  0.00000000000E+00  0.00000000000E+00  0.45593999997E+02  0.45594000000E+02  0.51100000000E-03 0. -1.
         11   -1    0    0    0    0 -0.00000000000E+00 -0.00000000000E+00 -0.45593999997E+02  0.45594000000E+02  0.51100000000E-03 0.  1.
    9900012    2    1    2    0    0  0.15701668988E+02  0.10187857275E+02  0.60160850486E+00  0.72461100159E+02  0.69999387559E+02 0.  0.
         12    1    1    2    0    0 -0.15701668988E+02 -0.10187857275E+02 -0.60160850486E+00  0.18726899841E+02  0.00000000000E+00 0. -1.
         11    1    3    3    0    0 -0.14407471782E+02 -0.83289512116E+01  0.91419504714E+01  0.18987415046E+02  0.51100000000E-03 0.  1.
        -11    1    3    3    0    0 -0.79715012126E+01 -0.34004057528E+01 -0.30835055137E+01  0.91986736751E+01  0.51100000000E-03 0. -1.
        -12    1    3    3    0    0  0.38080641982E+02  0.21917214239E+02 -0.54568364528E+01  0.44275011438E+02  0.00000000000E+00 0.  1.
</event>
<event>
 7    1  0.2932741E-013  0.7246157E+02  0.7816164E-02  0.1226708E+00
        -11   -1    0    0    0    0  0.00000000000E+00  0.00000000000E+00  0.45593999997E+02  0.45594000000E+02  0.51100000000E-03 0.  1.
         11   -1    0    0    0    0 -0.00000000000E+00 -0.00000000000E+00 -0.45593999997E+02  0.45594000000E+02  0.51100000000E-03 0. -1.
    9900012    2    1    2    0    0 -0.38952615777E+01 -0.85983775064E+01  0.16173248408E+02  0.72461571548E+02  0.70000001633E+02 0.  0.
         12    1    1    2    0    0  0.38952615777E+01  0.85983775064E+01 -0.16173248408E+02  0.18726428452E+02  0.00000000000E+00 0. -1.
         11    1    3    3    0    0 -0.39526259127E+01 -0.16643464132E+02 -0.96414420349E+01  0.19636332516E+02  0.51100000000E-03 0. -1.
        -11    1    3    3    0    0  0.15520993737E+02 -0.12729587066E+02  0.94184729155E+01  0.22173210543E+02  0.51100000000E-03 0.  1.
        -12    1    3    3    0    0 -0.15463629402E+02  0.20774673691E+02  0.16396217528E+02  0.30652028489E+02  0.00000000000E+00 0.  1.
</event>
<event>
 7    1  0.2932741E-013  0.7246157E+02  0.7816164E-02  0.1226708E+00
        -11   -1    0    0    0    0  0.00000000000E+00  0.00000000000E+00  0.45593999997E+02  0.45594000000E+02  0.51100000000E-03 0. -1.
         11   -1    0    0    0    0 -0.00000000000E+00 -0.00000000000E+00 -0.45593999997E+02  0.45594000000E+02  0.51100000000E-03 0.  1.
    9900012    2    1    2    0    0 -0.59558195147E+01 -0.17350815903E+02 -0.37625054953E+01  0.72461573587E+02  0.70000004289E+02 0.  0.
         12    1    1    2    0    0  0.59558195147E+01  0.17350815903E+02  0.37625054953E+01  0.18726426413E+02  0.00000000000E+00 0. -1.
         11    1    3    3    0    0 -0.22061428121E+02 -0.11700169636E+02  0.52722206529E+01  0.25522478154E+02  0.51100000000E-03 0. -1.
        -11    1    3    3    0    0  0.12105155411E+02 -0.17444417711E+02  0.10565892141E+02  0.23716672907E+02  0.51100000000E-03 0.  1.
        -12    1    3    3    0    0  0.40004531946E+01  0.11793771443E+02 -0.19600618290E+02  0.23222422525E+02  0.00000000000E+00 0.  1.
</event>
<event>
 7    1  0.2932741E-013  0.7246154E+02  0.7816164E-02  0.1226708E+00
        -11   -1    0    0    0    0  0.00000000000E+00  0.00000000000E+00  0.45593999997E+02  0.45594000000E+02  0.51100000000E-03 0. -1.
         11   -1    0    0    0    0 -0.00000000000E+00 -0.00000000000E+00 -0.45593999997E+02  0.45594000000E+02  0.51100000000E-03 0.  1.
    9900012    2    1    2    0    0  0.44242969878E+01 -0.38337268802E+00 -0.18192278193E+02  0.72461538393E+02  0.69999958443E+02 0.  0.
         12    1    1    2    0    0 -0.44242969878E+01  0.38337268802E+00  0.18192278193E+02  0.18726461607E+02  0.00000000000E+00 0. -1.
         11    1    3    3    0    0 -0.13373215491E+02  0.98685397242E+01  0.13407996212E+02  0.21354281340E+02  0.51100000000E-03 0. -1.
        -11    1    3    3    0    0  0.15822071797E+02 -0.48336819372E+01  0.23150040718E+01  0.16705139363E+02  0.51100000000E-03 0.  1.
        -12    1    3    3    0    0  0.19754406820E+01 -0.54182304751E+01 -0.33915278477E+02  0.34402117690E+02  0.00000000000E+00 0.  1.
</event>
<event>
 7    1  0.2932741E-013  0.7246146E+02  0.7816164E-02  0.1226708E+00
        -11   -1    0    0    0    0  0.00000000000E+00  0.00000000000E+00  0.45593999997E+02  0.45594000000E+02  0.51100000000E-03 0.  1.
         11   -1    0    0    0    0 -0.00000000000E+00 -0.00000000000E+00 -0.45593999997E+02  0.45594000000E+02  0.51100000000E-03 0. -1.
    9900012    2    1    2    0    0 -0.15289144674E+02  0.72349600492E+01  0.80362148857E+01  0.72461458903E+02  0.69999854892E+02 0.  0.
         12    1    1    2    0    0  0.15289144674E+02 -0.72349600492E+01 -0.80362148857E+01  0.18726541097E+02  0.00000000000E+00 0. -1.
         11    1    3    3    0    0 -0.31963926449E+01 -0.35192552334E+01 -0.11938692903E+02  0.12850465822E+02  0.51100000000E-03 0. -1.
        -11    1    3    3    0    0  0.17050781175E+02 -0.89748041887E+01  0.14225938356E+02  0.23951066182E+02  0.51100000000E-03 0.  1.
        -12    1    3    3    0    0 -0.29143533204E+02  0.19729019471E+02  0.57489694331E+01  0.35659926899E+02  0.00000000000E+00 0.  1.
</event>
<event>
 7    1  0.2932741E-013  0.7246156E+02  0.7816164E-02  0.1226708E+00
        -11   -1    0    0    0    0  0.00000000000E+00  0.00000000000E+00  0.45593999997E+02  0.45594000000E+02  0.51100000000E-03 0.  1.
         11   -1    0    0    0    0 -0.00000000000E+00 -0.00000000000E+00 -0.45593999997E+02  0.45594000000E+02  0.51100000000E-03 0. -1.
    9900012    2    1    2    0    0  0.17615808535E+02  0.52547181371E+01  0.35708071148E+01  0.72461563167E+02  0.69999990715E+02 0.  0.
         12    1    1    2    0    0 -0.17615808535E+02 -0.52547181371E+01 -0.35708071148E+01  0.18726436833E+02  0.00000000000E+00 0. -1.
         11    1    3    3    0    0  0.16884827798E+02 -0.26152183969E+01 -0.29040887507E+02  0.33694360426E+02  0.51100000000E-03 0. -1.
        -11    1    3    3    0    0  0.13337710472E+01 -0.63012706850E+01  0.13592859354E+02  0.15041634988E+02  0.51100000000E-03 0.  1.
        -12    1    3    3    0    0 -0.60279031060E+00  0.14171207219E+02  0.19018835268E+02  0.23725567752E+02  0.00000000000E+00 0.  1.
</event>
<event>
 7    1  0.2932741E-013  0.7246158E+02  0.7816164E-02  0.1226708E+00
        -11   -1    0    0    0    0  0.00000000000E+00  0.00000000000E+00  0.45593999997E+02  0.45594000000E+02  0.51100000000E-03 0. -1.
         11   -1    0    0    0    0 -0.00000000000E+00 -0.00000000000E+00 -0.45593999997E+02  0.45594000000E+02  0.51100000000E-03 0.  1.
    9900012    2    1    2    0    0 -0.16634204966E+02  0.66302421290E+01 -0.54792288445E+01  0.72461579246E+02  0.70000011661E+02 0.  0.
         12    1    1    2    0    0  0.16634204966E+02 -0.66302421290E+01  0.54792288445E+01  0.18726420754E+02  0.00000000000E+00 0. -1.
         11    1    3    3    0    0 -0.27424517301E+01 -0.81688257475E+01 -0.86741432854E+00  0.86604366786E+01  0.51100000000E-03 0. -1.
        -11    1    3    3    0    0 -0.25279402154E+02 -0.98617553418E+01 -0.18939535170E+02  0.33090910903E+02  0.51100000000E-03 0.  1.
        -12    1    3    3    0    0  0.11387648918E+02  0.24660823218E+02  0.14327720654E+02  0.30710231664E+02  0.00000000000E+00 0.  1.
</event>
<event>
 7    1  0.2932741E-013  0.7246160E+02  0.7816164E-02  0.1226708E+00
        -11   -1    0    0    0    0  0.00000000000E+00  0.00000000000E+00  0.45593999997E+02  0.45594000000E+02  0.51100000000E-03 0. -1.
         11   -1    0    0    0    0 -0.00000000000E+00 -0.00000000000E+00 -0.45593999997E+02  0.45594000000E+02  0.51100000000E-03 0.  1.
    9900012    2    1    2    0    0 -0.67918940326E+01  0.16603288855E+02 -0.53739212839E+01  0.72461600043E+02  0.70000038754E+02 0.  0.
         12    1    1    2    0    0  0.67918940326E+01 -0.16603288855E+02  0.53739212839E+01  0.18726399957E+02  0.00000000000E+00 0. -1.
         11    1    3    3    0    0 -0.12336202770E+02  0.85136097683E+01 -0.63640134412E+01  0.16283860642E+02  0.51100000000E-03 0. -1.
        -11    1    3    3    0    0  0.92450978769E+01  0.69502472682E+00 -0.26182137500E+02  0.27775154697E+02  0.51100000000E-03 0.  1.
         12    1    3    3    0    0 -0.37007891394E+01  0.73946543604E+01  0.27172229657E+02  0.28402584704E+02  0.00000000000E+00 0. -1.
</event>
<event>
 7    1  0.2932741E-013  0.7246155E+02  0.7816164E-02  0.1226708E+00
        -11   -1    0    0    0    0  0.00000000000E+00  0.00000000000E+00  0.45593999997E+02  0.45594000000E+02  0.51100000000E-03 0.  1.
         11   -1    0    0    0    0 -0.00000000000E+00 -0.00000000000E+00 -0.45593999997E+02  0.45594000000E+02  0.51100000000E-03 0. -1.
    9900012    2    1    2    0    0  0.10392116573E+01  0.89957469637E+01  0.16391351034E+02  0.72461553113E+02  0.69999977618E+02 0.  0.
         12    1    1    2    0    0 -0.10392116573E+01 -0.89957469637E+01 -0.16391351034E+02  0.18726446887E+02  0.00000000000E+00 0. -1.
         11    1    3    3    0    0  0.15304999639E+02  0.30048511287E+02  0.25606620508E+02  0.42342119203E+02  0.51100000000E-03 0. -1.
        -11    1    3    3    0    0 -0.22824893796E+01  0.15848852597E+01  0.30103091442E+00  0.27950382693E+01  0.51100000000E-03 0.  1.
        -12    1    3    3    0    0 -0.11983298602E+02 -0.22637649583E+02 -0.95163003885E+01  0.27324395640E+02  0.00000000000E+00 0.  1.
</event>
<event>
 7    1  0.2932741E-013  0.7246169E+02  0.7816164E-02  0.1226708E+00
        -11   -1    0    0    0    0  0.00000000000E+00  0.00000000000E+00  0.45593999997E+02  0.45594000000E+02  0.51100000000E-03 0.  1.
         11   -1    0    0    0    0 -0.00000000000E+00 -0.00000000000E+00 -0.45593999997E+02  0.45594000000E+02  0.51100000000E-03 0. -1.
    9900012    2    1    2    0    0  0.67644709001E+01  0.52746893565E+01  0.16646144147E+02  0.72461694189E+02  0.70000161396E+02 0.  0.
         12    1    1    2    0    0 -0.67644709001E+01 -0.52746893565E+01 -0.16646144147E+02  0.18726305811E+02  0.00000000000E+00 0. -1.
         11    1    3    3    0    0 -0.25653943597E+01  0.15379394957E+02 -0.17956768199E+02  0.23781349034E+02  0.51100000000E-03 0. -1.
        -11    1    3    3    0    0 -0.47643415146E+01 -0.83026886017E+00 -0.41762962874E+01  0.63898159121E+01  0.51100000000E-03 0.  1.
        -12    1    3    3    0    0  0.14094206774E+02 -0.92744367406E+01  0.38779208633E+02  0.42290529243E+02  0.00000000000E+00 0.  1.
</event>
<event>
 7    1  0.2932741E-013  0.7246173E+02  0.7816164E-02  0.1226708E+00
        -11   -1    0    0    0    0  0.00000000000E+00  0.00000000000E+00  0.45593999997E+02  0.45594000000E+02  0.51100000000E-03 0. -1.
         11   -1    0    0    0    0 -0.00000000000E+00 -0.00000000000E+00 -0.45593999997E+02  0.45594000000E+02  0.51100000000E-03 0.  1.
    9900012    2    1    2    0    0  0.68129980071E+01  0.12634548014E+02 -0.12025991983E+02  0.72461728920E+02  0.70000206639E+02 0.  0.
         12    1    1    2    0    0 -0.68129980071E+01 -0.12634548014E+02  0.12025991983E+02  0.18726271080E+02  0.00000000000E+00 0. -1.
         11    1    3    3    0    0  0.14030411393E+02  0.78040992091E+01  0.11787421629E+02  0.19917322040E+02  0.51100000000E-03 0. -1.
        -11    1    3    3    0    0 -0.13422809691E+02  0.16919392795E+02  0.36497078342E+01  0.21903379650E+02  0.51100000000E-03 0.  1.
        -12    1    3    3    0    0  0.62053963060E+01 -0.12088943990E+02 -0.27463121447E+02  0.30641027230E+02  0.00000000000E+00 0.  1.
</event>
<event>
 7    1  0.2932741E-013  0.7246161E+02  0.7816164E-02  0.1226708E+00
        -11   -1    0    0    0    0  0.00000000000E+00  0.00000000000E+00  0.45593999997E+02  0.45594000000E+02  0.51100000000E-03 0.  1.
         11   -1    0    0    0    0 -0.00000000000E+00 -0.00000000000E+00 -0.45593999997E+02  0.45594000000E+02  0.51100000000E-03 0. -1.
    9900012    2    1    2    0    0 -0.13781951346E+02 -0.10796346458E+02  0.66463853885E+01  0.72461609038E+02  0.70000050470E+02 0.  0.
         12    1    1    2    0    0  0.13781951346E+02  0.10796346458E+02 -0.66463853885E+01  0.18726390962E+02  0.00000000000E+00 0. -1.
         11    1    3    3    0    0 -0.20033856683E+02  0.14449501309E+02 -0.34198309505E+01  0.24936694762E+02  0.51100000000E-03 0. -1.
        -11    1    3    3    0    0  0.18755169829E+02 -0.16397025660E+02 -0.56861186058E+01  0.25552901809E+02  0.51100000000E-03 0.  1.
        -12    1    3    3    0    0 -0.12503264492E+02 -0.88488221067E+01  0.15752334945E+02  0.21972012467E+02  0.00000000000E+00 0.  1.
</event>
<event>
 7    1  0.2932741E-013  0.7246159E+02  0.7816164E-02  0.1226708E+00
        -11   -1    0    0    0    0  0.00000000000E+00  0.00000000000E+00  0.45593999997E+02  0.45594000000E+02  0.51100000000E-03 0.  1.
         11   -1    0    0    0    0 -0.00000000000E+00 -0.00000000000E+00 -0.45593999997E+02  0.45594000000E+02  0.51100000000E-03 0. -1.
    9900012    2    1    2    0    0 -0.50986772127E+01 -0.85074234379E+01  0.15884130154E+02  0.72461592079E+02  0.70000028379E+02 0.  0.
         12    1    1    2    0    0  0.50986772127E+01  0.85074234379E+01 -0.15884130154E+02  0.18726407921E+02  0.00000000000E+00 0. -1.
         11    1    3    3    0    0 -0.17356070965E+02 -0.14243623770E+02 -0.90114387410E+01  0.24193388475E+02  0.51100000000E-03 0. -1.
        -11    1    3    3    0    0 -0.99183081744E+01 -0.36130137458E+01 -0.34303710175E+01  0.11099286056E+02  0.51100000000E-03 0.  1.
        -12    1    3    3    0    0  0.22175701927E+02  0.93492140782E+01  0.28325939912E+02  0.37168917549E+02  0.00000000000E+00 0.  1.
</event>
<event>
 7    1  0.2932741E-013  0.7246153E+02  0.7816164E-02  0.1226708E+00
        -11   -1    0    0    0    0  0.00000000000E+00  0.00000000000E+00  0.45593999997E+02  0.45594000000E+02  0.51100000000E-03 0.  1.
         11   -1    0    0    0    0 -0.00000000000E+00 -0.00000000000E+00 -0.45593999997E+02  0.45594000000E+02  0.51100000000E-03 0. -1.
    9900012    2    1    2    0    0  0.18042130684E+02  0.30938341946E+01 -0.39484728300E+01  0.72461528700E+02  0.69999945816E+02 0.  0.
         12    1    1    2    0    0 -0.18042130684E+02 -0.30938341946E+01  0.39484728300E+01  0.18726471300E+02  0.00000000000E+00 0. -1.
         11    1    3    3    0    0  0.18636714479E+02 -0.10759967082E+02 -0.19013185875E+02  0.28715940791E+02  0.51100000000E-03 0. -1.
        -11    1    3    3    0    0 -0.33311218016E+00  0.89911129822E+01 -0.12696090352E+02  0.15560905721E+02  0.51100000000E-03 0.  1.
        -12    1    3    3    0    0 -0.26147161468E+00  0.48626882940E+01  0.27760803396E+02  0.28184682188E+02  0.00000000000E+00 0.  1.
</event>
<event>
 7    1  0.2932741E-013  0.7246216E+02  0.7816164E-02  0.1226706E+00
        -11   -1    0    0    0    0  0.00000000000E+00  0.00000000000E+00  0.45593999997E+02  0.45594000000E+02  0.51100000000E-03 0.  1.
         11   -1    0    0    0    0 -0.00000000000E+00 -0.00000000000E+00 -0.45593999997E+02  0.45594000000E+02  0.51100000000E-03 0. -1.
    9900012    2    1    2    0    0 -0.11742106944E+02  0.74854287022E+01  0.12519917628E+02  0.72462160746E+02  0.70000769169E+02 0.  0.
         12    1    1    2    0    0  0.11742106944E+02 -0.74854287022E+01 -0.12519917628E+02  0.18725839254E+02  0.00000000000E+00 0. -1.
         11    1    3    3    0    0  0.43996714166E+01 -0.14876598930E+02  0.30984104932E+01  0.15819938437E+02  0.51100000000E-03 0. -1.
        -11    1    3    3    0    0  0.17481130444E+02  0.79822230821E+01  0.19307298081E+01  0.19314075820E+02  0.51100000000E-03 0.  1.
        -12    1    3    3    0    0 -0.33622908804E+02  0.14379804550E+02  0.74907773269E+01  0.37328146489E+02  0.00000000000E+00 0.  1.
</event>
<event>
 7    1  0.2932741E-013  0.7246162E+02  0.7816164E-02  0.1226708E+00
        -11   -1    0    0    0    0  0.00000000000E+00  0.00000000000E+00  0.45593999997E+02  0.45594000000E+02  0.51100000000E-03 0.  1.
         11   -1    0    0    0    0 -0.00000000000E+00 -0.00000000000E+00 -0.45593999997E+02  0.45594000000E+02  0.51100000000E-03 0. -1.
    9900012    2    1    2    0    0  0.12772161946E+02  0.65120398774E-02  0.13694852126E+02  0.72461624539E+02  0.70000070663E+02 0.  0.
         12    1    1    2    0    0 -0.12772161946E+02 -0.65120398774E-02 -0.13694852126E+02  0.18726375461E+02  0.00000000000E+00 0. -1.
         11    1    3    3    0    0 -0.24639591467E+02  0.79254967955E+01 -0.60273067347E+01  0.26575390756E+02  0.51100000000E-03 0. -1.
        -11    1    3    3    0    0  0.14366698848E+02 -0.46680003111E+01  0.16533980079E+02  0.22395641545E+02  0.51100000000E-03 0.  1.
        -12    1    3    3    0    0  0.23045054564E+02 -0.32509844446E+01  0.31881787816E+01  0.23490592238E+02  0.00000000000E+00 0.  1.
</event>
<event>
 7    1  0.2932741E-013  0.7246157E+02  0.7816164E-02  0.1226708E+00
        -11   -1    0    0    0    0  0.00000000000E+00  0.00000000000E+00  0.45593999997E+02  0.45594000000E+02  0.51100000000E-03 0. -1.
         11   -1    0    0    0    0 -0.00000000000E+00 -0.00000000000E+00 -0.45593999997E+02  0.45594000000E+02  0.51100000000E-03 0.  1.
    9900012    2    1    2    0    0 -0.11950837002E+02  0.23925221241E+01 -0.14217331536E+02  0.72461569930E+02  0.69999999525E+02 0.  0.
         12    1    1    2    0    0  0.11950837002E+02 -0.23925221241E+01  0.14217331536E+02  0.18726430070E+02  0.00000000000E+00 0. -1.
         11    1    3    3    0    0  0.89531228617E-01 -0.12765197883E+02 -0.15438636204E+02  0.20032717762E+02  0.51100000000E-03 0. -1.
        -11    1    3    3    0    0 -0.44143408552E+00 -0.29639119954E+01 -0.21166873665E+02  0.21377936743E+02  0.51100000000E-03 0.  1.
         12    1    3    3    0    0 -0.11598934145E+02  0.18121632002E+02  0.22388178332E+02  0.31050915425E+02  0.00000000000E+00 0. -1.
</event>
<event>
 7    1  0.2932741E-013  0.7246153E+02  0.7816164E-02  0.1226708E+00
        -11   -1    0    0    0    0  0.00000000000E+00  0.00000000000E+00  0.45593999997E+02  0.45594000000E+02  0.51100000000E-03 0.  1.
         11   -1    0    0    0    0 -0.00000000000E+00 -0.00000000000E+00 -0.45593999997E+02  0.45594000000E+02  0.51100000000E-03 0. -1.
    9900012    2    1    2    0    0 -0.18371183370E+02  0.12878219948E+00  0.36281680960E+01  0.72461532982E+02  0.69999951393E+02 0.  0.
         12    1    1    2    0    0  0.18371183370E+02 -0.12878219948E+00 -0.36281680960E+01  0.18726467018E+02  0.00000000000E+00 0. -1.
         11    1    3    3    0    0 -0.20611158238E+02  0.10053767875E+02  0.43800824158E+01  0.23347017254E+02  0.51100000000E-03 0. -1.
        -11    1    3    3    0    0 -0.16169279084E+02 -0.18158061838E+02 -0.10775255285E+02  0.26594490455E+02  0.51100000000E-03 0.  1.
         12    1    3    3    0    0  0.18409253953E+02  0.82330761630E+01  0.10023340965E+02  0.22520025273E+02  0.00000000000E+00 0. -1.
</event>
<event>
 7    1  0.2932741E-013  0.7246160E+02  0.7816164E-02  0.1226708E+00
        -11   -1    0    0    0    0  0.00000000000E+00  0.00000000000E+00  0.45593999997E+02  0.45594000000E+02  0.51100000000E-03 0.  1.
         11   -1    0    0    0    0 -0.00000000000E+00 -0.00000000000E+00 -0.45593999997E+02  0.45594000000E+02  0.51100000000E-03 0. -1.
    9900012    2    1    2    0    0 -0.15114154873E+02 -0.81865084378E+01  0.74311247290E+01  0.72461595842E+02  0.70000033281E+02 0.  0.
         12    1    1    2    0    0  0.15114154873E+02  0.81865084378E+01 -0.74311247290E+01  0.18726404158E+02  0.00000000000E+00 0. -1.
         11    1    3    3    0    0 -0.37769050999E+00 -0.10082434192E+02 -0.14407432702E+02  0.17588980831E+02  0.51100000000E-03 0. -1.
        -11    1    3    3    0    0 -0.25236522136E+01  0.85415823698E+01 -0.13909018484E+02  0.16516302411E+02  0.51100000000E-03 0.  1.
         12    1    3    3    0    0 -0.12212812150E+02 -0.66456566158E+01  0.35747575915E+02  0.38356312600E+02  0.00000000000E+00 0. -1.
</event>
<event>
 7    1  0.2932741E-013  0.7246156E+02  0.7816164E-02  0.1226708E+00
        -11   -1    0    0    0    0  0.00000000000E+00  0.00000000000E+00  0.45593999997E+02  0.45594000000E+02  0.51100000000E-03 0. -1.
         11   -1    0    0    0    0 -0.00000000000E+00 -0.00000000000E+00 -0.45593999997E+02  0.45594000000E+02  0.51100000000E-03 0.  1.
    9900012    2    1    2    0    0 -0.30674524978E+01  0.12163892626E+02 -0.13903599393E+02  0.72461558141E+02  0.69999984167E+02 0.  0.
         12    1    1    2    0    0  0.30674524978E+01 -0.12163892626E+02  0.13903599393E+02  0.18726441859E+02  0.00000000000E+00 0. -1.
         11    1    3    3    0    0  0.46187284750E+01 -0.42552877681E+01 -0.12852480845E+01  0.64103033949E+01  0.51100000000E-03 0. -1.
        -11    1    3    3    0    0  0.11841307646E+02  0.18714452120E+01 -0.32483707497E+02  0.34625281615E+02  0.51100000000E-03 0.  1.
         12    1    3    3    0    0 -0.19527488619E+02  0.14547735182E+02  0.19865356188E+02  0.31425973130E+02  0.00000000000E+00 0. -1.
</event>
<event>
 7    1  0.2932741E-013  0.7246156E+02  0.7816164E-02  0.1226708E+00
        -11   -1    0    0    0    0  0.00000000000E+00  0.00000000000E+00  0.45593999997E+02  0.45594000000E+02  0.51100000000E-03 0. -1.
         11   -1    0    0    0    0 -0.00000000000E+00 -0.00000000000E+00 -0.45593999997E+02  0.45594000000E+02  0.51100000000E-03 0.  1.
    9900012    2    1    2    0    0 -0.85394684205E+01 -0.13448837692E+02  0.98430594675E+01  0.72461559445E+02  0.69999985867E+02 0.  0.
         12    1    1    2    0    0  0.85394684205E+01  0.13448837692E+02 -0.98430594675E+01  0.18726440555E+02  0.00000000000E+00 0. -1.
         11    1    3    3    0    0  0.41978894566E+01 -0.73412778485E+01  0.28528875121E+02  0.29755896093E+02  0.51100000000E-03 0. -1.
        -11    1    3    3    0    0 -0.70129733696E+00 -0.10608761030E+01  0.10582841376E+02  0.10658977808E+02  0.51100000000E-03 0.  1.
        -12    1    3    3    0    0 -0.12036060540E+02 -0.50466837407E+01 -0.29268657029E+02  0.32046685545E+02  0.00000000000E+00 0.  1.
</event>
<event>
 7    1  0.2932741E-013  0.7246154E+02  0.7816164E-02  0.1226708E+00
        -11   -1    0    0    0    0  0.00000000000E+00  0.00000000000E+00  0.45593999997E+02  0.45594000000E+02  0.51100000000E-03 0.  1.
         11   -1    0    0    0    0 -0.00000000000E+00 -0.00000000000E+00 -0.45593999997E+02  0.45594000000E+02  0.51100000000E-03 0. -1.
    9900012    2    1    2    0    0  0.11473730407E+02 -0.14184911734E+02  0.42216060312E+01  0.72461543639E+02  0.69999965277E+02 0.  0.
         12    1    1    2    0    0 -0.11473730407E+02  0.14184911734E+02 -0.42216060312E+01  0.18726456361E+02  0.00000000000E+00 0. -1.
         11    1    3    3    0    0 -0.92409262432E+01 -0.65022782593E+01 -0.39306848322E+00  0.11306141848E+02  0.51100000000E-03 0. -1.
        -11    1    3    3    0    0 -0.15679869894E+02 -0.10147685545E+02  0.14173167599E+02  0.23445948943E+02  0.51100000000E-03 0.  1.
         12    1    3    3    0    0  0.36394526544E+02  0.24650520701E+01 -0.95584930843E+01  0.37709452848E+02  0.00000000000E+00 0. -1.
</event>
<event>
 7    1  0.2932741E-013  0.7246153E+02  0.7816164E-02  0.1226708E+00
        -11   -1    0    0    0    0  0.00000000000E+00  0.00000000000E+00  0.45593999997E+02  0.45594000000E+02  0.51100000000E-03 0.  1.
         11   -1    0    0    0    0 -0.00000000000E+00 -0.00000000000E+00 -0.45593999997E+02  0.45594000000E+02  0.51100000000E-03 0. -1.
    9900012    2    1    2    0    0  0.89663150505E+01  0.12362093448E+02  0.10838102788E+02  0.72461531244E+02  0.69999949130E+02 0.  0.
         12    1    1    2    0    0 -0.89663150505E+01 -0.12362093448E+02 -0.10838102788E+02  0.18726468756E+02  0.00000000000E+00 0. -1.
         11    1    3    3    0    0  0.80097921481E+01 -0.18607985804E+02  0.15156504921E+02  0.25300860610E+02  0.51100000000E-03 0. -1.
        -11    1    3    3    0    0  0.74111077700E+01  0.22676504096E+01 -0.14157220630E+02  0.16139815767E+02  0.51100000000E-03 0.  1.
        -12    1    3    3    0    0 -0.64545848676E+01  0.28702428842E+02  0.98388184980E+01  0.31020854867E+02  0.00000000000E+00 0.  1.
</event>
<event>
 7    1  0.2932741E-013  0.7246155E+02  0.7816164E-02  0.1226708E+00
        -11   -1    0    0    0    0  0.00000000000E+00  0.00000000000E+00  0.45593999997E+02  0.45594000000E+02  0.51100000000E-03 0. -1.
         11   -1    0    0    0    0 -0.00000000000E+00 -0.00000000000E+00 -0.45593999997E+02  0.45594000000E+02  0.51100000000E-03 0.  1.
    9900012    2    1    2    0    0 -0.42997792519E+00 -0.18721377693E+02 -0.70838541557E-01  0.72461551275E+02  0.69999975224E+02 0.  0.
         12    1    1    2    0    0  0.42997792519E+00  0.18721377693E+02  0.70838541557E-01  0.18726448725E+02  0.00000000000E+00 0. -1.
         11    1    3    3    0    0 -0.81549203823E+01 -0.60811185196E+01 -0.94422911452E+01  0.13879466532E+02  0.51100000000E-03 0. -1.
        -11    1    3    3    0    0  0.67601699410E+00 -0.65878602553E+01 -0.23503937648E+02  0.24419090625E+02  0.51100000000E-03 0.  1.
         12    1    3    3    0    0  0.70489254630E+01 -0.60523989182E+01  0.32875390252E+02  0.34162994118E+02  0.00000000000E+00 0. -1.
</event>
<event>
 7    1  0.2932741E-013  0.7246156E+02  0.7816164E-02  0.1226708E+00
        -11   -1    0    0    0    0  0.00000000000E+00  0.00000000000E+00  0.45593999997E+02  0.45594000000E+02  0.51100000000E-03 0.  1.
         11   -1    0    0    0    0 -0.00000000000E+00 -0.00000000000E+00 -0.45593999997E+02  0.45594000000E+02  0.51100000000E-03 0. -1.
    9900012    2    1    2    0    0 -0.10564659560E+02  0.20442056489E+01  0.15326084250E+02  0.72461557017E+02  0.69999982704E+02 0.  0.
         12    1    1    2    0    0  0.10564659560E+02 -0.20442056489E+01 -0.15326084250E+02  0.18726442983E+02  0.00000000000E+00 0. -1.
         11    1    3    3    0    0 -0.11129007886E+02  0.94838905153E+01  0.32053721769E+02  0.35231237209E+02  0.51100000000E-03 0. -1.
        -11    1    3    3    0    0 -0.83223085959E+01  0.55709463740E+00  0.68511635155E+01  0.10793962043E+02  0.51100000000E-03 0.  1.
        -12    1    3    3    0    0  0.88866569224E+01 -0.79967795038E+01 -0.23578801034E+02  0.26436357765E+02  0.00000000000E+00 0.  1.
</event>
<event>
 7    1  0.2932741E-013  0.7246168E+02  0.7816164E-02  0.1226708E+00
        -11   -1    0    0    0    0  0.00000000000E+00  0.00000000000E+00  0.45593999997E+02  0.45594000000E+02  0.51100000000E-03 0.  1.
         11   -1    0    0    0    0 -0.00000000000E+00 -0.00000000000E+00 -0.45593999997E+02  0.45594000000E+02  0.51100000000E-03 0. -1.
    9900012    2    1    2    0    0  0.16417978435E+02  0.72161348904E+01  0.53900175440E+01  0.72461684085E+02  0.70000148233E+02 0.  0.
         12    1    1    2    0    0 -0.16417978435E+02 -0.72161348904E+01 -0.53900175440E+01  0.18726315915E+02  0.00000000000E+00 0. -1.
         11    1    3    3    0    0 -0.11493669439E+01  0.16042504274E+01 -0.13494234039E+02  0.13637779011E+02  0.51100000000E-03 0. -1.
        -11    1    3    3    0    0 -0.14006165356E+02 -0.20387361303E+01  0.22029821366E+02  0.26184769288E+02  0.51100000000E-03 0.  1.
        -12    1    3    3    0    0  0.31573510734E+02  0.76506205933E+01 -0.31455697834E+01  0.32639135785E+02  0.00000000000E+00 0.  1.
</event>
<event>
 7    1  0.2932741E-013  0.7246148E+02  0.7816164E-02  0.1226708E+00
        -11   -1    0    0    0    0  0.00000000000E+00  0.00000000000E+00  0.45593999997E+02  0.45594000000E+02  0.51100000000E-03 0.  1.
         11   -1    0    0    0    0 -0.00000000000E+00 -0.00000000000E+00 -0.45593999997E+02  0.45594000000E+02  0.51100000000E-03 0. -1.
    9900012    2    1    2    0    0  0.70419273533E+01 -0.17055338750E+01  0.17268036651E+02  0.72461476660E+02  0.69999878023E+02 0.  0.
         12    1    1    2    0    0 -0.70419273533E+01  0.17055338750E+01 -0.17268036651E+02  0.18726523340E+02  0.00000000000E+00 0. -1.
         11    1    3    3    0    0 -0.13976585977E+02 -0.65461481569E+01 -0.40123324819E+01  0.15946655558E+02  0.51100000000E-03 0. -1.
        -11    1    3    3    0    0  0.17205160367E+02 -0.66711714979E+01  0.34159306876E+02  0.38824996058E+02  0.51100000000E-03 0.  1.
         12    1    3    3    0    0  0.38133529635E+01  0.11511785780E+02 -0.12878937744E+02  0.17689825043E+02  0.00000000000E+00 0. -1.
</event>
<event>
 7    1  0.2932741E-013  0.7246156E+02  0.7816164E-02  0.1226708E+00
        -11   -1    0    0    0    0  0.00000000000E+00  0.00000000000E+00  0.45593999997E+02  0.45594000000E+02  0.51100000000E-03 0. -1.
         11   -1    0    0    0    0 -0.00000000000E+00 -0.00000000000E+00 -0.45593999997E+02  0.45594000000E+02  0.51100000000E-03 0.  1.
    9900012    2    1    2    0    0 -0.16805388716E+02  0.82499171587E+01 -0.44407198684E+00  0.72461563528E+02  0.69999991185E+02 0.  0.
         12    1    1    2    0    0  0.16805388716E+02 -0.82499171587E+01  0.44407198684E+00  0.18726436472E+02  0.00000000000E+00 0. -1.
         11    1    3    3    0    0 -0.26230674897E+02 -0.30913861490E+01  0.45166444044E+01  0.26795616261E+02  0.51100000000E-03 0. -1.
        -11    1    3    3    0    0 -0.14494519329E+02  0.14939883418E+02 -0.52799913770E+01  0.21474857772E+02  0.51100000000E-03 0.  1.
        -12    1    3    3    0    0  0.23919805510E+02 -0.35985801102E+01  0.31927498572E+00  0.24191089495E+02  0.00000000000E+00 0.  1.
</event>
<event>
 7    1  0.2932741E-013  0.7246157E+02  0.7816164E-02  0.1226708E+00
        -11   -1    0    0    0    0  0.00000000000E+00  0.00000000000E+00  0.45593999997E+02  0.45594000000E+02  0.51100000000E-03 0.  1.
         11   -1    0    0    0    0 -0.00000000000E+00 -0.00000000000E+00 -0.45593999997E+02  0.45594000000E+02  0.51100000000E-03 0. -1.
    9900012    2    1    2    0    0 -0.17121429421E+02 -0.62472820849E+01  0.43019941375E+01  0.72461573955E+02  0.70000004768E+02 0.  0.
         12    1    1    2    0    0  0.17121429421E+02  0.62472820849E+01 -0.43019941375E+01  0.18726426045E+02  0.00000000000E+00 0. -1.
         11    1    3    3    0    0 -0.16490966345E+02 -0.35965931039E+01  0.15155021344E+02  0.22683961849E+02  0.51100000000E-03 0. -1.
        -11    1    3    3    0    0 -0.20515243919E+02  0.31579910132E+01  0.75308687688E+01  0.22080808974E+02  0.51100000000E-03 0.  1.
         12    1    3    3    0    0  0.19884780843E+02 -0.58086799943E+01 -0.18383895976E+02  0.27696803131E+02  0.00000000000E+00 0. -1.
</event>
<event>
 7    1  0.2932741E-013  0.7246153E+02  0.7816164E-02  0.1226708E+00
        -11   -1    0    0    0    0  0.00000000000E+00  0.00000000000E+00  0.45593999997E+02  0.45594000000E+02  0.51100000000E-03 0.  1.
         11   -1    0    0    0    0 -0.00000000000E+00 -0.00000000000E+00 -0.45593999997E+02  0.45594000000E+02  0.51100000000E-03 0. -1.
    9900012    2    1    2    0    0 -0.40258812303E+01 -0.12725068485E+02  0.13135663894E+02  0.72461528000E+02  0.69999944904E+02 0.  0.
         12    1    1    2    0    0  0.40258812303E+01  0.12725068485E+02 -0.13135663894E+02  0.18726472000E+02  0.00000000000E+00 0. -1.
         11    1    3    3    0    0  0.44068920149E+01 -0.17318861076E+02  0.11467828210E+02  0.21233811017E+02  0.51100000000E-03 0. -1.
        -11    1    3    3    0    0 -0.24276386537E+00 -0.79665593271E+01  0.23459003431E+02  0.24775993301E+02  0.51100000000E-03 0.  1.
         12    1    3    3    0    0 -0.81900093799E+01  0.12560351918E+02 -0.21791167748E+02  0.26451723682E+02  0.00000000000E+00 0. -1.
</event>
<event>
 7    1  0.2932741E-013  0.7246147E+02  0.7816164E-02  0.1226708E+00
        -11   -1    0    0    0    0  0.00000000000E+00  0.00000000000E+00  0.45593999997E+02  0.45594000000E+02  0.51100000000E-03 0. -1.
         11   -1    0    0    0    0 -0.00000000000E+00 -0.00000000000E+00 -0.45593999997E+02  0.45594000000E+02  0.51100000000E-03 0.  1.
    9900012    2    1    2    0    0 -0.12277922118E+02 -0.12811399864E+02 -0.59836061625E+01  0.72461471205E+02  0.69999870917E+02 0.  0.
         12    1    1    2    0    0  0.12277922118E+02  0.12811399864E+02  0.59836061625E+01  0.18726528795E+02  0.00000000000E+00 0. -1.
         11    1    3    3    0    0 -0.15805606236E+02 -0.64290308218E+01  0.57303843358E+01  0.17999636960E+02  0.51100000000E-03 0. -1.
        -11    1    3    3    0    0 -0.69915644934E+01 -0.16083465399E+02 -0.27839381377E+02  0.32902750478E+02  0.51100000000E-03 0.  1.
         12    1    3    3    0    0  0.10519248612E+02  0.97010963566E+01  0.16125390879E+02  0.21559083767E+02  0.00000000000E+00 0. -1.
</event>
<event>
 7    1  0.2932741E-013  0.7246152E+02  0.7816164E-02  0.1226708E+00
        -11   -1    0    0    0    0  0.00000000000E+00  0.00000000000E+00  0.45593999997E+02  0.45594000000E+02  0.51100000000E-03 0.  1.
         11   -1    0    0    0    0 -0.00000000000E+00 -0.00000000000E+00 -0.45593999997E+02  0.45594000000E+02  0.51100000000E-03 0. -1.
    9900012    2    1    2    0    0  0.78713809960E+01 -0.13494772144E+02  0.10325385254E+02  0.72461518893E+02  0.69999933041E+02 0.  0.
         12    1    1    2    0    0 -0.78713809960E+01  0.13494772144E+02 -0.10325385254E+02  0.18726481107E+02  0.00000000000E+00 0. -1.
         11    1    3    3    0    0 -0.15226247596E+02 -0.17498669575E+02 -0.15784130891E+02  0.28056743236E+02  0.51100000000E-03 0. -1.
        -11    1    3    3    0    0  0.53178440599E+01 -0.35524670168E+01  0.24155003777E+02  0.24987270661E+02  0.51100000000E-03 0.  1.
        -12    1    3    3    0    0  0.17779784532E+02  0.75563644480E+01  0.19545123671E+01  0.19417504996E+02  0.00000000000E+00 0.  1.
</event>
<event>
 7    1  0.2932741E-013  0.7246161E+02  0.7816164E-02  0.1226708E+00
        -11   -1    0    0    0    0  0.00000000000E+00  0.00000000000E+00  0.45593999997E+02  0.45594000000E+02  0.51100000000E-03 0. -1.
         11   -1    0    0    0    0 -0.00000000000E+00 -0.00000000000E+00 -0.45593999997E+02  0.45594000000E+02  0.51100000000E-03 0.  1.
    9900012    2    1    2    0    0 -0.14727428277E+02  0.17103607369E+01 -0.11439200771E+02  0.72461607080E+02  0.70000047921E+02 0.  0.
         12    1    1    2    0    0  0.14727428277E+02 -0.17103607369E+01  0.11439200771E+02  0.18726392920E+02  0.00000000000E+00 0. -1.
         11    1    3    3    0    0 -0.35689586861E+02  0.16132254160E+02  0.26530250174E+00  0.39167162525E+02  0.51100000000E-03 0. -1.
        -11    1    3    3    0    0  0.25084999799E+01 -0.13344502782E+01  0.46008245249E+01  0.54074870563E+01  0.51100000000E-03 0.  1.
        -12    1    3    3    0    0  0.18453658604E+02 -0.13087443145E+02 -0.16305327797E+02  0.27886957499E+02  0.00000000000E+00 0.  1.
</event>
<event>
 7    1  0.2932741E-013  0.7246168E+02  0.7816164E-02  0.1226708E+00
        -11   -1    0    0    0    0  0.00000000000E+00  0.00000000000E+00  0.45593999997E+02  0.45594000000E+02  0.51100000000E-03 0.  1.
         11   -1    0    0    0    0 -0.00000000000E+00 -0.00000000000E+00 -0.45593999997E+02  0.45594000000E+02  0.51100000000E-03 0. -1.
    9900012    2    1    2    0    0 -0.28289157630E+01 -0.74172624819E+00  0.18496548819E+02  0.72461675202E+02  0.70000136662E+02 0.  0.
         12    1    1    2    0    0  0.28289157630E+01  0.74172624819E+00 -0.18496548819E+02  0.18726324798E+02  0.00000000000E+00 0. -1.
         11    1    3    3    0    0  0.17728801997E+02  0.40122623864E+01 -0.46500657087E+01  0.18762509988E+02  0.51100000000E-03 0. -1.
        -11    1    3    3    0    0  0.32286535943E+01  0.14891562498E+02  0.17978290199E+00  0.15238607542E+02  0.51100000000E-03 0.  1.
        -12    1    3    3    0    0 -0.23786371354E+02 -0.19645551133E+02  0.22966831626E+02  0.38460557672E+02  0.00000000000E+00 0.  1.
</event>
<event>
 7    1  0.2932741E-013  0.7246164E+02  0.7816164E-02  0.1226708E+00
        -11   -1    0    0    0    0  0.00000000000E+00  0.00000000000E+00  0.45593999997E+02  0.45594000000E+02  0.51100000000E-03 0.  1.
         11   -1    0    0    0    0 -0.00000000000E+00 -0.00000000000E+00 -0.45593999997E+02  0.45594000000E+02  0.51100000000E-03 0. -1.
    9900012    2    1    2    0    0 -0.14378986680E+01  0.28923714684E+01  0.18445685355E+02  0.72461636938E+02  0.70000086816E+02 0.  0.
         12    1    1    2    0    0  0.14378986680E+01 -0.28923714684E+01 -0.18445685355E+02  0.18726363062E+02  0.00000000000E+00 0. -1.
         11    1    3    3    0    0 -0.72523559887E+01 -0.14281229168E+02  0.36690300104E+01  0.16432040513E+02  0.51100000000E-03 0. -1.
        -11    1    3    3    0    0 -0.83343114833E+01 -0.15879878026E+02  0.69467162518E+01  0.19232476204E+02  0.51100000000E-03 0.  1.
         12    1    3    3    0    0  0.14148768804E+02  0.33053478662E+02  0.78299390931E+01  0.36797120221E+02  0.00000000000E+00 0. -1.
</event>
<event>
 7    1  0.2932741E-013  0.7246152E+02  0.7816164E-02  0.1226708E+00
        -11   -1    0    0    0    0  0.00000000000E+00  0.00000000000E+00  0.45593999997E+02  0.45594000000E+02  0.51100000000E-03 0.  1.
         11   -1    0    0    0    0 -0.00000000000E+00 -0.00000000000E+00 -0.45593999997E+02  0.45594000000E+02  0.51100000000E-03 0. -1.
    9900012    2    1    2    0    0 -0.14516421368E+02  0.97792831528E+01  0.66573546350E+01  0.72461515038E+02  0.69999928018E+02 0.  0.
         12    1    1    2    0    0  0.14516421368E+02 -0.97792831528E+01 -0.66573546350E+01  0.18726484962E+02  0.00000000000E+00 0. -1.
         11    1    3    3    0    0 -0.13502482369E+02  0.60261316220E+01 -0.23258593787E+02  0.27560723460E+02  0.51100000000E-03 0. -1.
        -11    1    3    3    0    0 -0.95139198602E+01 -0.83594942428E+01  0.13586972299E+01  0.12737420207E+02  0.51100000000E-03 0.  1.
        -12    1    3    3    0    0  0.84999808613E+01  0.12112645774E+02  0.28557251192E+02  0.32163371371E+02  0.00000000000E+00 0.  1.
</event>
<event>
 7    1  0.2932741E-013  0.7246153E+02  0.7816164E-02  0.1226708E+00
        -11   -1    0    0    0    0  0.00000000000E+00  0.00000000000E+00  0.45593999997E+02  0.45594000000E+02  0.51100000000E-03 0. -1.
         11   -1    0    0    0    0 -0.00000000000E+00 -0.00000000000E+00 -0.45593999997E+02  0.45594000000E+02  0.51100000000E-03 0.  1.
    9900012    2    1    2    0    0 -0.11887068798E+02  0.14110160876E+02 -0.32065099542E+01  0.72461528078E+02  0.69999945006E+02 0.  0.
         12    1    1    2    0    0  0.11887068798E+02 -0.14110160876E+02  0.32065099542E+01  0.18726471922E+02  0.00000000000E+00 0. -1.
         11    1    3    3    0    0  0.15668482388E+02 -0.51141220558E+01  0.17020667251E+02  0.23693009490E+02  0.51100000000E-03 0. -1.
        -11    1    3    3    0    0 -0.76212925567E+01 -0.45546284096E+01  0.36664627354E+01  0.96058153967E+01  0.51100000000E-03 0.  1.
        -12    1    3    3    0    0 -0.19934258629E+02  0.23778911342E+02 -0.23893639941E+02  0.39162703192E+02  0.00000000000E+00 0.  1.
</event>
<event>
 7    1  0.2932741E-013  0.7246156E+02  0.7816164E-02  0.1226708E+00
        -11   -1    0    0    0    0  0.00000000000E+00  0.00000000000E+00  0.45593999997E+02  0.45594000000E+02  0.51100000000E-03 0. -1.
         11   -1    0    0    0    0 -0.00000000000E+00 -0.00000000000E+00 -0.45593999997E+02  0.45594000000E+02  0.51100000000E-03 0.  1.
    9900012    2    1    2    0    0  0.65032221350E+01  0.17526530107E+02 -0.10993159353E+01  0.72461557432E+02  0.69999983244E+02 0.  0.
         12    1    1    2    0    0 -0.65032221350E+01 -0.17526530107E+02  0.10993159353E+01  0.18726442568E+02  0.00000000000E+00 0. -1.
         11    1    3    3    0    0  0.97557436646E+01  0.15100539549E+02 -0.50650351027E+01  0.18677671428E+02  0.51100000000E-03 0.  1.
        -11    1    3    3    0    0 -0.27339493874E+02  0.73804184265E+01 -0.22864243942E+01  0.28410319220E+02  0.51100000000E-03 0. -1.
         12    1    3    3    0    0  0.24086972344E+02 -0.49544278683E+01  0.62521435616E+01  0.25373566784E+02  0.00000000000E+00 0. -1.
</event>
<event>
 7    1  0.2932741E-013  0.7246155E+02  0.7816164E-02  0.1226708E+00
        -11   -1    0    0    0    0  0.00000000000E+00  0.00000000000E+00  0.45593999997E+02  0.45594000000E+02  0.51100000000E-03 0.  1.
         11   -1    0    0    0    0 -0.00000000000E+00 -0.00000000000E+00 -0.45593999997E+02  0.45594000000E+02  0.51100000000E-03 0. -1.
    9900012    2    1    2    0    0 -0.74435159176E+01 -0.11876073868E+02  0.12419048491E+02  0.72461552789E+02  0.69999977196E+02 0.  0.
         12    1    1    2    0    0  0.74435159176E+01  0.11876073868E+02 -0.12419048491E+02  0.18726447211E+02  0.00000000000E+00 0. -1.
         11    1    3    3    0    0  0.13347829808E+02 -0.23128655961E+01 -0.23172101353E+02  0.26841389480E+02  0.51100000000E-03 0. -1.
        -11    1    3    3    0    0 -0.65172681313E+01  0.35323780963E+01  0.36471893176E+01  0.82616262981E+01  0.51100000000E-03 0.  1.
        -12    1    3    3    0    0 -0.14274077594E+02 -0.13095586368E+02  0.31943960526E+02  0.37358537011E+02  0.00000000000E+00 0.  1.
</event>
<event>
 7    1  0.2932741E-013  0.7246140E+02  0.7816164E-02  0.1226708E+00
        -11   -1    0    0    0    0  0.00000000000E+00  0.00000000000E+00  0.45593999997E+02  0.45594000000E+02  0.51100000000E-03 0. -1.
         11   -1    0    0    0    0 -0.00000000000E+00 -0.00000000000E+00 -0.45593999997E+02  0.45594000000E+02  0.51100000000E-03 0.  1.
    9900012    2    1    2    0    0  0.27277334933E+01  0.16857917270E+02 -0.76847668736E+01  0.72461400026E+02  0.69999778193E+02 0.  0.
         12    1    1    2    0    0 -0.27277334933E+01 -0.16857917270E+02  0.76847668736E+01  0.18726599974E+02  0.00000000000E+00 0. -1.
         11    1    3    3    0    0  0.23357203666E+02  0.17310142703E+02 -0.26528178687E+02  0.39356629279E+02  0.51100000000E-03 0. -1.
        -11    1    3    3    0    0  0.77589488451E+00 -0.22488879597E+01 -0.20489144819E+01  0.31396752606E+01  0.51100000000E-03 0.  1.
        -12    1    3    3    0    0 -0.21405365058E+02  0.17966625266E+01  0.20892326295E+02  0.29965095486E+02  0.00000000000E+00 0.  1.
</event>
<event>
 7    1  0.2932741E-013  0.7246160E+02  0.7816164E-02  0.1226708E+00
        -11   -1    0    0    0    0  0.00000000000E+00  0.00000000000E+00  0.45593999997E+02  0.45594000000E+02  0.51100000000E-03 0.  1.
         11   -1    0    0    0    0 -0.00000000000E+00 -0.00000000000E+00 -0.45593999997E+02  0.45594000000E+02  0.51100000000E-03 0. -1.
    9900012    2    1    2    0    0  0.82144830149E+01 -0.11829608816E+02  0.11969162446E+02  0.72461595497E+02  0.70000032831E+02 0.  0.
         12    1    1    2    0    0 -0.82144830149E+01  0.11829608816E+02 -0.11969162446E+02  0.18726404503E+02  0.00000000000E+00 0. -1.
         11    1    3    3    0    0 -0.50462379562E+01  0.20731031719E+00 -0.17732677260E+02  0.18437877811E+02  0.51100000000E-03 0. -1.
        -11    1    3    3    0    0 -0.12941528779E+02  0.39176262572E+01  0.14359249604E+02  0.19723564893E+02  0.51100000000E-03 0.  1.
        -12    1    3    3    0    0  0.26202249750E+02 -0.15954545391E+02  0.15342590103E+02  0.34300152793E+02  0.00000000000E+00 0.  1.
</event>
<event>
 7    1  0.2932741E-013  0.7246159E+02  0.7816164E-02  0.1226708E+00
        -11   -1    0    0    0    0  0.00000000000E+00  0.00000000000E+00  0.45593999997E+02  0.45594000000E+02  0.51100000000E-03 0.  1.
         11   -1    0    0    0    0 -0.00000000000E+00 -0.00000000000E+00 -0.45593999997E+02  0.45594000000E+02  0.51100000000E-03 0. -1.
    9900012    2    1    2    0    0  0.15713646517E+02 -0.50681249373E+01  0.88359345201E+01  0.72461593081E+02  0.70000029684E+02 0.  0.
         12    1    1    2    0    0 -0.15713646517E+02  0.50681249373E+01 -0.88359345201E+01  0.18726406919E+02  0.00000000000E+00 0. -1.
         11    1    3    3    0    0 -0.74579512553E+00  0.13964748841E+02 -0.70080511510E+01  0.15642352820E+02  0.51100000000E-03 0. -1.
        -11    1    3    3    0    0 -0.89385682361E+01 -0.13787097693E+02 -0.10780108314E+02  0.19651788733E+02  0.51100000000E-03 0.  1.
        -12    1    3    3    0    0  0.25398009879E+02 -0.52457760848E+01  0.26624093985E+02  0.37167451528E+02  0.00000000000E+00 0.  1.
</event>
<event>
 7    1  0.2932741E-013  0.7246156E+02  0.7816164E-02  0.1226708E+00
        -11   -1    0    0    0    0  0.00000000000E+00  0.00000000000E+00  0.45593999997E+02  0.45594000000E+02  0.51100000000E-03 0. -1.
         11   -1    0    0    0    0 -0.00000000000E+00 -0.00000000000E+00 -0.45593999997E+02  0.45594000000E+02  0.51100000000E-03 0.  1.
    9900012    2    1    2    0    0  0.62028480358E+00 -0.16342768259E+02  0.91218719421E+01  0.72461564799E+02  0.69999992841E+02 0.  0.
         12    1    1    2    0    0 -0.62028480358E+00  0.16342768259E+02 -0.91218719421E+01  0.18726435201E+02  0.00000000000E+00 0. -1.
         11    1    3    3    0    0  0.27179565094E+02 -0.14110404640E+02  0.18429442960E+02  0.35741805297E+02  0.51100000000E-03 0. -1.
        -11    1    3    3    0    0 -0.48224643386E+01 -0.80964260970E+01  0.43583341139E+01  0.10382839417E+02  0.51100000000E-03 0.  1.
        -12    1    3    3    0    0 -0.21736815952E+02  0.58640624782E+01 -0.13665905132E+02  0.26336920085E+02  0.00000000000E+00 0.  1.
</event>
<event>
 7    1  0.2932741E-013  0.7246161E+02  0.7816164E-02  0.1226708E+00
        -11   -1    0    0    0    0  0.00000000000E+00  0.00000000000E+00  0.45593999997E+02  0.45594000000E+02  0.51100000000E-03 0. -1.
         11   -1    0    0    0    0 -0.00000000000E+00 -0.00000000000E+00 -0.45593999997E+02  0.45594000000E+02  0.51100000000E-03 0.  1.
    9900012    2    1    2    0    0  0.11402415667E+02 -0.53390826634E+01 -0.13862064942E+02  0.72461608698E+02  0.70000050028E+02 0.  0.
         12    1    1    2    0    0 -0.11402415667E+02  0.53390826634E+01  0.13862064942E+02  0.18726391302E+02  0.00000000000E+00 0. -1.
         11    1    3    3    0    0 -0.67309278017E+01 -0.35388473497E+01 -0.23968709477E+01  0.79733192735E+01  0.51100000000E-03 0. -1.
        -11    1    3    3    0    0 -0.12585312091E+02  0.67668213975E+01 -0.25824175853E+02  0.29513861337E+02  0.51100000000E-03 0.  1.
         12    1    3    3    0    0  0.30718655559E+02 -0.85670567111E+01  0.14358981859E+02  0.34974428088E+02  0.00000000000E+00 0. -1.
</event>
<event>
 7    1  0.2932741E-013  0.7246159E+02  0.7816164E-02  0.1226708E+00
        -11   -1    0    0    0    0  0.00000000000E+00  0.00000000000E+00  0.45593999997E+02  0.45594000000E+02  0.51100000000E-03 0. -1.
         11   -1    0    0    0    0 -0.00000000000E+00 -0.00000000000E+00 -0.45593999997E+02  0.45594000000E+02  0.51100000000E-03 0.  1.
    9900012    2    1    2    0    0  0.62451576400E+01 -0.94597060575E+01 -0.14906054302E+02  0.72461588505E+02  0.70000023722E+02 0.  0.
         12    1    1    2    0    0 -0.62451576400E+01  0.94597060575E+01  0.14906054302E+02  0.18726411495E+02  0.00000000000E+00 0. -1.
         11    1    3    3    0    0  0.15296689545E+02 -0.26469725254E+02  0.26069498305E+01  0.30682751730E+02  0.51100000000E-03 0. -1.
        -11    1    3    3    0    0  0.12016780594E+02  0.42825979841E+01 -0.26634405409E+01  0.13032174688E+02  0.51100000000E-03 0.  1.
        -12    1    3    3    0    0 -0.21068312498E+02  0.12727421212E+02 -0.14849563591E+02  0.28746662086E+02  0.00000000000E+00 0.  1.
</event>
<event>
 7    1  0.2932741E-013  0.7246159E+02  0.7816164E-02  0.1226708E+00
        -11   -1    0    0    0    0  0.00000000000E+00  0.00000000000E+00  0.45593999997E+02  0.45594000000E+02  0.51100000000E-03 0.  1.
         11   -1    0    0    0    0 -0.00000000000E+00 -0.00000000000E+00 -0.45593999997E+02  0.45594000000E+02  0.51100000000E-03 0. -1.
    9900012    2    1    2    0    0 -0.17138617358E+02 -0.59743684625E+01  0.46101076698E+01  0.72461591476E+02  0.70000027593E+02 0.  0.
         12    1    1    2    0    0  0.17138617358E+02  0.59743684625E+01 -0.46101076698E+01  0.18726408524E+02  0.00000000000E+00 0. -1.
         11    1    3    3    0    0 -0.15875898825E+01  0.15427540450E+02 -0.17436210517E+02  0.23335614057E+02  0.51100000000E-03 0. -1.
        -11    1    3    3    0    0 -0.56978034641E+01 -0.19388964297E+02 -0.45301572944E+01  0.20710365187E+02  0.51100000000E-03 0.  1.
        -12    1    3    3    0    0 -0.98532240118E+01 -0.20129446157E+01  0.26576475482E+02  0.28415612231E+02  0.00000000000E+00 0.  1.
</event>
<event>
 7    1  0.2932741E-013  0.7246150E+02  0.7816164E-02  0.1226708E+00
        -11   -1    0    0    0    0  0.00000000000E+00  0.00000000000E+00  0.45593999997E+02  0.45594000000E+02  0.51100000000E-03 0.  1.
         11   -1    0    0    0    0 -0.00000000000E+00 -0.00000000000E+00 -0.45593999997E+02  0.45594000000E+02  0.51100000000E-03 0. -1.
    9900012    2    1    2    0    0 -0.12470074942E+02  0.13149954985E+02  0.47178065548E+01  0.72461500491E+02  0.69999909068E+02 0.  0.
         12    1    1    2    0    0  0.12470074942E+02 -0.13149954985E+02 -0.47178065548E+01  0.18726499509E+02  0.00000000000E+00 0. -1.
         11    1    3    3    0    0  0.67830451787E+01  0.39787852746E+01  0.48498699784E+01  0.92391381214E+01  0.51100000000E-03 0. -1.
        -11    1    3    3    0    0  0.31813787585E+01  0.19173122537E+02  0.22563137129E+02  0.29779606377E+02  0.51100000000E-03 0.  1.
         12    1    3    3    0    0 -0.22434498879E+02 -0.10001952826E+02 -0.22695200552E+02  0.33442755993E+02  0.00000000000E+00 0. -1.
</event>
<event>
 7    1  0.2932741E-013  0.7246160E+02  0.7816164E-02  0.1226708E+00
        -11   -1    0    0    0    0  0.00000000000E+00  0.00000000000E+00  0.45593999997E+02  0.45594000000E+02  0.51100000000E-03 0.  1.
         11   -1    0    0    0    0 -0.00000000000E+00 -0.00000000000E+00 -0.45593999997E+02  0.45594000000E+02  0.51100000000E-03 0. -1.
    9900012    2    1    2    0    0  0.39902394961E+01 -0.17526609853E+02  0.52510811017E+01  0.72461603739E+02  0.70000043568E+02 0.  0.
         12    1    1    2    0    0 -0.39902394961E+01  0.17526609853E+02 -0.52510811017E+01  0.18726396261E+02  0.00000000000E+00 0. -1.
         11    1    3    3    0    0 -0.75928951446E+01 -0.26295116157E+02  0.20983352588E+01  0.27449739553E+02  0.51100000000E-03 0.  1.
        -11    1    3    3    0    0 -0.18856012315E+01  0.10820291745E+02 -0.17267062135E+02  0.20464252747E+02  0.51100000000E-03 0. -1.
         12    1    3    3    0    0  0.13468735872E+02 -0.20517854410E+01  0.20419807978E+02  0.24547611439E+02  0.00000000000E+00 0. -1.
</event>
<event>
 7    1  0.2932741E-013  0.7246157E+02  0.7816164E-02  0.1226708E+00
        -11   -1    0    0    0    0  0.00000000000E+00  0.00000000000E+00  0.45593999997E+02  0.45594000000E+02  0.51100000000E-03 0.  1.
         11   -1    0    0    0    0 -0.00000000000E+00 -0.00000000000E+00 -0.45593999997E+02  0.45594000000E+02  0.51100000000E-03 0. -1.
    9900012    2    1    2    0    0 -0.16145335334E+01  0.72886560305E+01  0.17174043467E+02  0.72461574974E+02  0.70000006096E+02 0.  0.
         12    1    1    2    0    0  0.16145335334E+01 -0.72886560305E+01 -0.17174043467E+02  0.18726425026E+02  0.00000000000E+00 0. -1.
         11    1    3    3    0    0  0.45303272209E+01 -0.14930486463E+02  0.28558300865E+02  0.32542585012E+02  0.51100000000E-03 0. -1.
        -11    1    3    3    0    0 -0.71250332845E+01 -0.26973599166E+00 -0.15476344520E+02  0.17039838519E+02  0.51100000000E-03 0.  1.
        -12    1    3    3    0    0  0.98017253012E+00  0.22488878485E+02  0.40920871217E+01  0.22879151442E+02  0.00000000000E+00 0.  1.
</event>
<event>
 7    1  0.2932741E-013  0.7246155E+02  0.7816164E-02  0.1226708E+00
        -11   -1    0    0    0    0  0.00000000000E+00  0.00000000000E+00  0.45593999997E+02  0.45594000000E+02  0.51100000000E-03 0.  1.
         11   -1    0    0    0    0 -0.00000000000E+00 -0.00000000000E+00 -0.45593999997E+02  0.45594000000E+02  0.51100000000E-03 0. -1.
    9900012    2    1    2    0    0 -0.12419004373E+02 -0.77646060859E+01  0.11668719265E+02  0.72461553819E+02  0.69999978538E+02 0.  0.
         12    1    1    2    0    0  0.12419004373E+02  0.77646060859E+01 -0.11668719265E+02  0.18726446181E+02  0.00000000000E+00 0. -1.
         11    1    3    3    0    0 -0.22292918686E+02  0.15635138418E+02  0.91216293028E+01  0.28716474336E+02  0.51100000000E-03 0. -1.
        -11    1    3    3    0    0 -0.12372677259E+02 -0.69920605932E+01  0.68381186675E+01  0.15771237144E+02  0.51100000000E-03 0.  1.
         12    1    3    3    0    0  0.22246591572E+02 -0.16407683911E+02 -0.42910287055E+01  0.27973842339E+02  0.00000000000E+00 0. -1.
</event>
<event>
 7    1  0.2932741E-013  0.7246155E+02  0.7816164E-02  0.1226708E+00
        -11   -1    0    0    0    0  0.00000000000E+00  0.00000000000E+00  0.45593999997E+02  0.45594000000E+02  0.51100000000E-03 0.  1.
         11   -1    0    0    0    0 -0.00000000000E+00 -0.00000000000E+00 -0.45593999997E+02  0.45594000000E+02  0.51100000000E-03 0. -1.
    9900012    2    1    2    0    0 -0.59448043508E+01  0.16912282845E+02  0.54142478684E+01  0.72461545723E+02  0.69999967992E+02 0.  0.
         12    1    1    2    0    0  0.59448043508E+01 -0.16912282845E+02 -0.54142478684E+01  0.18726454277E+02  0.00000000000E+00 0. -1.
         11    1    3    3    0    0 -0.84428762859E+00  0.15640407183E+01 -0.14085039162E+02  0.14196738126E+02  0.51100000000E-03 0. -1.
        -11    1    3    3    0    0 -0.16191663541E+02  0.26419460079E+02 -0.26862555410E+01  0.31102633460E+02  0.51100000000E-03 0.  1.
        -12    1    3    3    0    0  0.11091146818E+02 -0.11071217952E+02  0.22185542571E+02  0.27162174137E+02  0.00000000000E+00 0.  1.
</event>
<event>
 7    1  0.2932741E-013  0.7246166E+02  0.7816164E-02  0.1226708E+00
        -11   -1    0    0    0    0  0.00000000000E+00  0.00000000000E+00  0.45593999997E+02  0.45594000000E+02  0.51100000000E-03 0.  1.
         11   -1    0    0    0    0 -0.00000000000E+00 -0.00000000000E+00 -0.45593999997E+02  0.45594000000E+02  0.51100000000E-03 0. -1.
    9900012    2    1    2    0    0 -0.40463955554E+01  0.29900237169E+01  0.18037795616E+02  0.72461664814E+02  0.70000123130E+02 0.  0.
         12    1    1    2    0    0  0.40463955554E+01 -0.29900237169E+01 -0.18037795616E+02  0.18726335186E+02  0.00000000000E+00 0. -1.
         11    1    3    3    0    0  0.17655919455E+01 -0.19227985172E+02  0.29393597156E+02  0.35168398922E+02  0.51100000000E-03 0.  1.
        -11    1    3    3    0    0 -0.38065393310E+01 -0.50762458262E+01  0.22473091615E+01  0.67311523601E+01  0.51100000000E-03 0. -1.
        -12    1    3    3    0    0 -0.20054481699E+01  0.27294254715E+02 -0.13603110702E+02  0.30562113532E+02  0.00000000000E+00 0.  1.
</event>
<event>
 7    1  0.2932741E-013  0.7246147E+02  0.7816164E-02  0.1226708E+00
        -11   -1    0    0    0    0  0.00000000000E+00  0.00000000000E+00  0.45593999997E+02  0.45594000000E+02  0.51100000000E-03 0. -1.
         11   -1    0    0    0    0 -0.00000000000E+00 -0.00000000000E+00 -0.45593999997E+02  0.45594000000E+02  0.51100000000E-03 0.  1.
    9900012    2    1    2    0    0 -0.87277752062E+01  0.84177850821E-01 -0.16568098998E+02  0.72461466675E+02  0.69999865017E+02 0.  0.
         12    1    1    2    0    0  0.87277752062E+01 -0.84177850821E-01  0.16568098998E+02  0.18726533325E+02  0.00000000000E+00 0. -1.
         11    1    3    3    0    0 -0.33161759521E+01  0.72962478161E-01 -0.21576579484E+01  0.39569981743E+01  0.51100000000E-03 0. -1.
        -11    1    3    3    0    0 -0.29534082211E+01  0.30894294012E+02 -0.20141465559E+02  0.36998089920E+02  0.51100000000E-03 0.  1.
         12    1    3    3    0    0 -0.24581910330E+01 -0.30883078639E+02  0.57310245092E+01  0.31506378581E+02  0.00000000000E+00 0. -1.
</event>
<event>
 7    1  0.2932741E-013  0.7246142E+02  0.7816164E-02  0.1226708E+00
        -11   -1    0    0    0    0  0.00000000000E+00  0.00000000000E+00  0.45593999997E+02  0.45594000000E+02  0.51100000000E-03 0. -1.
         11   -1    0    0    0    0 -0.00000000000E+00 -0.00000000000E+00 -0.45593999997E+02  0.45594000000E+02  0.51100000000E-03 0.  1.
    9900012    2    1    2    0    0  0.86427774957E+01  0.12070236945E+02 -0.11414751338E+02  0.72461420738E+02  0.69999805175E+02 0.  0.
         12    1    1    2    0    0 -0.86427774957E+01 -0.12070236945E+02  0.11414751338E+02  0.18726579262E+02  0.00000000000E+00 0. -1.
         11    1    3    3    0    0  0.92926346309E+01 -0.12855571278E+02  0.87061937519E+01  0.18094656150E+02  0.51100000000E-03 0. -1.
        -11    1    3    3    0    0  0.10274127353E+02 -0.23289694103E+01 -0.22564687325E+02  0.24902748959E+02  0.51100000000E-03 0.  1.
        -12    1    3    3    0    0 -0.10923984488E+02  0.27254777633E+02  0.24437422346E+01  0.29464015630E+02  0.00000000000E+00 0.  1.
</event>
<event>
 7    1  0.2932741E-013  0.7246157E+02  0.7816164E-02  0.1226708E+00
        -11   -1    0    0    0    0  0.00000000000E+00  0.00000000000E+00  0.45593999997E+02  0.45594000000E+02  0.51100000000E-03 0.  1.
         11   -1    0    0    0    0 -0.00000000000E+00 -0.00000000000E+00 -0.45593999997E+02  0.45594000000E+02  0.51100000000E-03 0. -1.
    9900012    2    1    2    0    0 -0.11883047395E+02 -0.12487436883E+01  0.14419183154E+02  0.72461574313E+02  0.70000005235E+02 0.  0.
         12    1    1    2    0    0  0.11883047395E+02  0.12487436883E+01 -0.14419183154E+02  0.18726425687E+02  0.00000000000E+00 0. -1.
         11    1    3    3    0    0  0.40054529023E+01  0.12181923788E+02  0.29742764451E+02  0.32389426632E+02  0.51100000000E-03 0.  1.
        -11    1    3    3    0    0  0.41139698878E+01 -0.12294128237E+02  0.25625625261E+01  0.13215031756E+02  0.51100000000E-03 0. -1.
         12    1    3    3    0    0 -0.20002470185E+02 -0.11365392388E+01 -0.17886143823E+02  0.26857115925E+02  0.00000000000E+00 0. -1.
</event>
<event>
 7    1  0.2932741E-013  0.7246157E+02  0.7816164E-02  0.1226708E+00
        -11   -1    0    0    0    0  0.00000000000E+00  0.00000000000E+00  0.45593999997E+02  0.45594000000E+02  0.51100000000E-03 0. -1.
         11   -1    0    0    0    0 -0.00000000000E+00 -0.00000000000E+00 -0.45593999997E+02  0.45594000000E+02  0.51100000000E-03 0.  1.
    9900012    2    1    2    0    0 -0.13852635820E+02 -0.12548115596E+02  0.11526346697E+01  0.72461567055E+02  0.69999995780E+02 0.  0.
         12    1    1    2    0    0  0.13852635820E+02  0.12548115596E+02 -0.11526346697E+01  0.18726432945E+02  0.00000000000E+00 0. -1.
         11    1    3    3    0    0  0.55001422619E+01  0.13309711163E+01  0.46099535297E+01  0.72989534058E+01  0.51100000000E-03 0. -1.
        -11    1    3    3    0    0  0.11784362993E+02 -0.25726096269E+02 -0.12053092972E+02  0.30756792596E+02  0.51100000000E-03 0.  1.
         12    1    3    3    0    0 -0.31137141075E+02  0.11847009556E+02  0.85957741116E+01  0.34405821053E+02  0.00000000000E+00 0. -1.
</event>
<event>
 7    1  0.2932741E-013  0.7246155E+02  0.7816164E-02  0.1226708E+00
        -11   -1    0    0    0    0  0.00000000000E+00  0.00000000000E+00  0.45593999997E+02  0.45594000000E+02  0.51100000000E-03 0. -1.
         11   -1    0    0    0    0 -0.00000000000E+00 -0.00000000000E+00 -0.45593999997E+02  0.45594000000E+02  0.51100000000E-03 0.  1.
    9900012    2    1    2    0    0 -0.63546424161E+01  0.15011000841E+02 -0.92178335461E+01  0.72461545938E+02  0.69999968271E+02 0.  0.
         12    1    1    2    0    0  0.63546424161E+01 -0.15011000841E+02  0.92178335461E+01  0.18726454062E+02  0.00000000000E+00 0. -1.
         11    1    3    3    0    0 -0.58684932692E+01 -0.23657715821E+02  0.10274477564E+02  0.26451684646E+02  0.51100000000E-03 0. -1.
        -11    1    3    3    0    0  0.71244083754E+01  0.12144969093E+02 -0.63522448627E+01  0.15446957112E+02  0.51100000000E-03 0.  1.
        -12    1    3    3    0    0 -0.76105575222E+01  0.26523747568E+02 -0.13140066248E+02  0.30562904179E+02  0.00000000000E+00 0.  1.
</event>
<event>
 7    1  0.2932741E-013  0.7246152E+02  0.7816164E-02  0.1226708E+00
        -11   -1    0    0    0    0  0.00000000000E+00  0.00000000000E+00  0.45593999997E+02  0.45594000000E+02  0.51100000000E-03 0.  1.
         11   -1    0    0    0    0 -0.00000000000E+00 -0.00000000000E+00 -0.45593999997E+02  0.45594000000E+02  0.51100000000E-03 0. -1.
    9900012    2    1    2    0    0  0.42010276667E+01  0.45155421988E+01  0.17681691985E+02  0.72461521787E+02  0.69999936810E+02 0.  0.
         12    1    1    2    0    0 -0.42010276667E+01 -0.45155421988E+01 -0.17681691985E+02  0.18726478213E+02  0.00000000000E+00 0. -1.
         11    1    3    3    0    0 -0.91810205597E+01 -0.16288327837E+02 -0.13177781356E+02  0.22874760850E+02  0.51100000000E-03 0. -1.
        -11    1    3    3    0    0  0.45627319036E+01  0.49705655346E+01 -0.56668151747E+01  0.88112336618E+01  0.51100000000E-03 0.  1.
        -12    1    3    3    0    0  0.88193163227E+01  0.15833304501E+02  0.36526288515E+02  0.40775527275E+02  0.00000000000E+00 0.  1.
</event>
<event>
 7    1  0.2932741E-013  0.7246154E+02  0.7816164E-02  0.1226708E+00
        -11   -1    0    0    0    0  0.00000000000E+00  0.00000000000E+00  0.45593999997E+02  0.45594000000E+02  0.51100000000E-03 0.  1.
         11   -1    0    0    0    0 -0.00000000000E+00 -0.00000000000E+00 -0.45593999997E+02  0.45594000000E+02  0.51100000000E-03 0. -1.
    9900012    2    1    2    0    0 -0.40691265121E+01 -0.14876831914E+02  0.10620849891E+02  0.72461538220E+02  0.69999958218E+02 0.  0.
         12    1    1    2    0    0  0.40691265121E+01  0.14876831914E+02 -0.10620849891E+02  0.18726461780E+02  0.00000000000E+00 0. -1.
         11    1    3    3    0    0 -0.19647626011E+02 -0.23430465269E+02 -0.74142551397E+01  0.31464060293E+02  0.51100000000E-03 0. -1.
        -11    1    3    3    0    0  0.39174603532E+01 -0.10875650220E+02 -0.72083936013E+00  0.11582135942E+02  0.51100000000E-03 0.  1.
        -12    1    3    3    0    0  0.11661039145E+02  0.19429283574E+02  0.18755944390E+02  0.29415341986E+02  0.00000000000E+00 0.  1.
</event>
<event>
 7    1  0.2932741E-013  0.7246158E+02  0.7816164E-02  0.1226708E+00
        -11   -1    0    0    0    0  0.00000000000E+00  0.00000000000E+00  0.45593999997E+02  0.45594000000E+02  0.51100000000E-03 0. -1.
         11   -1    0    0    0    0 -0.00000000000E+00 -0.00000000000E+00 -0.45593999997E+02  0.45594000000E+02  0.51100000000E-03 0.  1.
    9900012    2    1    2    0    0 -0.16906868334E+02  0.46665399457E+01 -0.65620021841E+01  0.72461583776E+02  0.70000017563E+02 0.  0.
         12    1    1    2    0    0  0.16906868334E+02 -0.46665399457E+01  0.65620021841E+01  0.18726416224E+02  0.00000000000E+00 0. -1.
         11    1    3    3    0    0 -0.65361004278E+00  0.10939166805E+02  0.10629906132E+02  0.15267202793E+02  0.51100000000E-03 0. -1.
        -11    1    3    3    0    0 -0.18196919913E+02 -0.21645816360E+02  0.63763838519E+01  0.28988403397E+02  0.51100000000E-03 0.  1.
        -12    1    3    3    0    0  0.19436616217E+01  0.15373189500E+02 -0.23568292168E+02  0.28205977587E+02  0.00000000000E+00 0.  1.
</event>
<event>
 7    1  0.2932741E-013  0.7246084E+02  0.7816164E-02  0.1226710E+00
        -11   -1    0    0    0    0  0.00000000000E+00  0.00000000000E+00  0.45593999997E+02  0.45594000000E+02  0.51100000000E-03 0. -1.
         11   -1    0    0    0    0 -0.00000000000E+00 -0.00000000000E+00 -0.45593999997E+02  0.45594000000E+02  0.51100000000E-03 0.  1.
    9900012    2    1    2    0    0 -0.18444699159E+02 -0.20807282101E+01 -0.24839901948E+01  0.72460838864E+02  0.69999047169E+02 0.  0.
         12    1    1    2    0    0  0.18444699159E+02  0.20807282101E+01  0.24839901948E+01  0.18727161136E+02  0.00000000000E+00 0. -1.
         11    1    3    3    0    0  0.85911262136E+01 -0.23608662803E+02  0.75601464235E+01  0.26236086278E+02  0.51100000000E-03 0. -1.
        -11    1    3    3    0    0  0.22062790907E+01 -0.27943560019E+01 -0.72621795658E+01  0.80879753461E+01  0.51100000000E-03 0.  1.
        -12    1    3    3    0    0 -0.29242104463E+02  0.24322290595E+02 -0.27819570525E+01  0.38136777240E+02  0.00000000000E+00 0.  1.
</event>
<event>
 7    1  0.2932741E-013  0.7246158E+02  0.7816164E-02  0.1226708E+00
        -11   -1    0    0    0    0  0.00000000000E+00  0.00000000000E+00  0.45593999997E+02  0.45594000000E+02  0.51100000000E-03 0. -1.
         11   -1    0    0    0    0 -0.00000000000E+00 -0.00000000000E+00 -0.45593999997E+02  0.45594000000E+02  0.51100000000E-03 0.  1.
    9900012    2    1    2    0    0 -0.37765789660E+01 -0.12533299549E+02 -0.13391514922E+02  0.72461579675E+02  0.70000012220E+02 0.  0.
         12    1    1    2    0    0  0.37765789660E+01  0.12533299549E+02  0.13391514922E+02  0.18726420325E+02  0.00000000000E+00 0. -1.
         11    1    3    3    0    0 -0.61307514739E+01 -0.11314754939E+02  0.18755496289E-01  0.12868960525E+02  0.51100000000E-03 0. -1.
        -11    1    3    3    0    0 -0.24557781458E+02 -0.36900876644E+01  0.69138533491E+01  0.25777950762E+02  0.51100000000E-03 0.  1.
         12    1    3    3    0    0  0.26911953966E+02  0.24715430540E+01 -0.20324123768E+02  0.33814668389E+02  0.00000000000E+00 0. -1.
</event>
<event>
 7    1  0.2932741E-013  0.7246149E+02  0.7816164E-02  0.1226708E+00
        -11   -1    0    0    0    0  0.00000000000E+00  0.00000000000E+00  0.45593999997E+02  0.45594000000E+02  0.51100000000E-03 0. -1.
         11   -1    0    0    0    0 -0.00000000000E+00 -0.00000000000E+00 -0.45593999997E+02  0.45594000000E+02  0.51100000000E-03 0.  1.
    9900012    2    1    2    0    0 -0.97525376126E+01  0.41833060526E+01 -0.15429519943E+02  0.72461491380E+02  0.69999897200E+02 0.  0.
         12    1    1    2    0    0  0.97525376126E+01 -0.41833060526E+01  0.15429519943E+02  0.18726508620E+02  0.00000000000E+00 0. -1.
         11    1    3    3    0    0 -0.22159283686E+02  0.23785206908E+02 -0.56471266617E+01  0.32994847490E+02  0.51100000000E-03 0. -1.
        -11    1    3    3    0    0  0.10262364057E+01  0.50522792480E+01  0.61173582096E+01  0.80000474052E+01  0.51100000000E-03 0.  1.
        -12    1    3    3    0    0  0.11380509668E+02 -0.24654180103E+02 -0.15899751491E+02  0.31466596485E+02  0.00000000000E+00 0.  1.
</event>
<event>
 7    1  0.2932741E-013  0.7246164E+02  0.7816164E-02  0.1226708E+00
        -11   -1    0    0    0    0  0.00000000000E+00  0.00000000000E+00  0.45593999997E+02  0.45594000000E+02  0.51100000000E-03 0. -1.
         11   -1    0    0    0    0 -0.00000000000E+00 -0.00000000000E+00 -0.45593999997E+02  0.45594000000E+02  0.51100000000E-03 0.  1.
    9900012    2    1    2    0    0  0.28019770011E+01 -0.12835986505E+02 -0.13344019031E+02  0.72461642411E+02  0.70000093945E+02 0.  0.
         12    1    1    2    0    0 -0.28019770011E+01  0.12835986505E+02  0.13344019031E+02  0.18726357589E+02  0.00000000000E+00 0. -1.
         11    1    3    3    0    0  0.37539826156E+01  0.16477681936E+01 -0.30734266874E+00  0.41112024123E+01  0.51100000000E-03 0. -1.
        -11    1    3    3    0    0  0.21792576406E+01  0.22044242775E+02 -0.21341446618E+02  0.30759635033E+02  0.51100000000E-03 0.  1.
         12    1    3    3    0    0 -0.31312632551E+01 -0.36527997473E+02  0.83047702551E+01  0.37590804965E+02  0.00000000000E+00 0. -1.
</event>
<event>
 7    1  0.2932741E-013  0.7246149E+02  0.7816164E-02  0.1226708E+00
        -11   -1    0    0    0    0  0.00000000000E+00  0.00000000000E+00  0.45593999997E+02  0.45594000000E+02  0.51100000000E-03 0. -1.
         11   -1    0    0    0    0 -0.00000000000E+00 -0.00000000000E+00 -0.45593999997E+02  0.45594000000E+02  0.51100000000E-03 0.  1.
    9900012    2    1    2    0    0 -0.70579913317E+01 -0.14915473674E+02  0.88541365605E+01  0.72461485888E+02  0.69999890045E+02 0.  0.
         12    1    1    2    0    0  0.70579913317E+01  0.14915473674E+02 -0.88541365605E+01  0.18726514112E+02  0.00000000000E+00 0. -1.
         11    1    3    3    0    0 -0.20871327752E+02  0.57314502330E+01  0.21271843872E+02  0.30347210512E+02  0.51100000000E-03 0. -1.
        -11    1    3    3    0    0 -0.21756273178E+00  0.55772359840E+01 -0.11004396119E+02  0.12338947644E+02  0.51100000000E-03 0.  1.
        -12    1    3    3    0    0  0.14030899152E+02 -0.26224159891E+02 -0.14133111924E+01  0.29775327731E+02  0.00000000000E+00 0.  1.
</event>
<event>
 7    1  0.2932741E-013  0.7246160E+02  0.7816164E-02  0.1226708E+00
        -11   -1    0    0    0    0  0.00000000000E+00  0.00000000000E+00  0.45593999997E+02  0.45594000000E+02  0.51100000000E-03 0. -1.
         11   -1    0    0    0    0 -0.00000000000E+00 -0.00000000000E+00 -0.45593999997E+02  0.45594000000E+02  0.51100000000E-03 0.  1.
    9900012    2    1    2    0    0 -0.75779650681E+01  0.16323714897E+02  0.51757780393E+01  0.72461604166E+02  0.70000044125E+02 0.  0.
         12    1    1    2    0    0  0.75779650681E+01 -0.16323714897E+02 -0.51757780393E+01  0.18726395834E+02  0.00000000000E+00 0. -1.
         11    1    3    3    0    0 -0.12632035553E+01 -0.11249810422E+02  0.11830754955E+02  0.16374391006E+02  0.51100000000E-03 0. -1.
        -11    1    3    3    0    0  0.10048241791E+01 -0.10446154046E+02  0.94796966473E+01  0.14142010280E+02  0.51100000000E-03 0.  1.
        -12    1    3    3    0    0 -0.73195856920E+01  0.38019679364E+02 -0.16134673563E+02  0.41945202880E+02  0.00000000000E+00 0.  1.
</event>
<event>
 7    1  0.2932741E-013  0.7246157E+02  0.7816164E-02  0.1226708E+00
        -11   -1    0    0    0    0  0.00000000000E+00  0.00000000000E+00  0.45593999997E+02  0.45594000000E+02  0.51100000000E-03 0. -1.
         11   -1    0    0    0    0 -0.00000000000E+00 -0.00000000000E+00 -0.45593999997E+02  0.45594000000E+02  0.51100000000E-03 0.  1.
    9900012    2    1    2    0    0 -0.58047306818E+01  0.15255602109E+02 -0.91788370599E+01  0.72461565642E+02  0.69999993939E+02 0.  0.
         12    1    1    2    0    0  0.58047306818E+01 -0.15255602109E+02  0.91788370599E+01  0.18726434358E+02  0.00000000000E+00 0. -1.
         11    1    3    3    0    0 -0.77744357134E+01 -0.10368954872E+02  0.71396374321E+01  0.14796333962E+02  0.51100000000E-03 0. -1.
        -11    1    3    3    0    0 -0.10224776025E+02 -0.11760284919E+02 -0.78127335632E+01  0.17432416704E+02  0.51100000000E-03 0.  1.
         12    1    3    3    0    0  0.12194481057E+02  0.37384841900E+02 -0.85057409289E+01  0.40232814976E+02  0.00000000000E+00 0. -1.
</event>
<event>
 7    1  0.2932741E-013  0.7246159E+02  0.7816164E-02  0.1226708E+00
        -11   -1    0    0    0    0  0.00000000000E+00  0.00000000000E+00  0.45593999997E+02  0.45594000000E+02  0.51100000000E-03 0.  1.
         11   -1    0    0    0    0 -0.00000000000E+00 -0.00000000000E+00 -0.45593999997E+02  0.45594000000E+02  0.51100000000E-03 0. -1.
    9900012    2    1    2    0    0  0.96574182293E+01  0.10574100309E+02  0.12066530460E+02  0.72461588664E+02  0.70000023929E+02 0.  0.
         12    1    1    2    0    0 -0.96574182293E+01 -0.10574100309E+02 -0.12066530460E+02  0.18726411336E+02  0.00000000000E+00 0. -1.
         11    1    3    3    0    0  0.26132966203E+02  0.88352943687E+01 -0.13186187153E+02  0.30575641957E+02  0.51100000000E-03 0. -1.
        -11    1    3    3    0    0 -0.16827471397E+01  0.90531307744E+01 -0.25498441074E+01  0.95547119259E+01  0.51100000000E-03 0.  1.
        -12    1    3    3    0    0 -0.14792800835E+02 -0.73143248337E+01  0.27802561720E+02  0.32331234781E+02  0.00000000000E+00 0.  1.
</event>
<event>
 7    1  0.2932741E-013  0.7246157E+02  0.7816164E-02  0.1226708E+00
        -11   -1    0    0    0    0  0.00000000000E+00  0.00000000000E+00  0.45593999997E+02  0.45594000000E+02  0.51100000000E-03 0. -1.
         11   -1    0    0    0    0 -0.00000000000E+00 -0.00000000000E+00 -0.45593999997E+02  0.45594000000E+02  0.51100000000E-03 0.  1.
    9900012    2    1    2    0    0  0.15853041909E+02 -0.98452942207E+01  0.15589720641E+01  0.72461570817E+02  0.70000000680E+02 0.  0.
         12    1    1    2    0    0 -0.15853041909E+02  0.98452942207E+01 -0.15589720641E+01  0.18726429183E+02  0.00000000000E+00 0. -1.
         11    1    3    3    0    0 -0.27030484592E+01 -0.12193206020E+02 -0.75255743061E+00  0.12511877836E+02  0.51100000000E-03 0. -1.
        -11    1    3    3    0    0  0.16171872996E+01  0.29545281552E+00 -0.26453603019E+02  0.26504635445E+02  0.51100000000E-03 0.  1.
         12    1    3    3    0    0  0.16938903069E+02  0.20524589842E+01  0.28765132514E+02  0.33445057536E+02  0.00000000000E+00 0. -1.
</event>
<event>
 7    1  0.2932741E-013  0.7246156E+02  0.7816164E-02  0.1226708E+00
        -11   -1    0    0    0    0  0.00000000000E+00  0.00000000000E+00  0.45593999997E+02  0.45594000000E+02  0.51100000000E-03 0.  1.
         11   -1    0    0    0    0 -0.00000000000E+00 -0.00000000000E+00 -0.45593999997E+02  0.45594000000E+02  0.51100000000E-03 0. -1.
    9900012    2    1    2    0    0  0.79854118188E+01 -0.34351906488E+00  0.16935015891E+02  0.72461559589E+02  0.69999986054E+02 0.  0.
         12    1    1    2    0    0 -0.79854118188E+01  0.34351906488E+00 -0.16935015891E+02  0.18726440411E+02  0.00000000000E+00 0. -1.
         11    1    3    3    0    0  0.27813871711E+02 -0.17310132654E+02 -0.85813895420E+01  0.33865799840E+02  0.51100000000E-03 0. -1.
        -11    1    3    3    0    0 -0.12548341179E+01 -0.50281786873E+00 -0.10954383689E+01  0.17399482618E+01  0.51100000000E-03 0.  1.
        -12    1    3    3    0    0 -0.18573625774E+02  0.17469431458E+02  0.26611843801E+02  0.36855811487E+02  0.00000000000E+00 0.  1.
</event>
<event>
 7    1  0.2932741E-013  0.7246160E+02  0.7816164E-02  0.1226708E+00
        -11   -1    0    0    0    0  0.00000000000E+00  0.00000000000E+00  0.45593999997E+02  0.45594000000E+02  0.51100000000E-03 0. -1.
         11   -1    0    0    0    0 -0.00000000000E+00 -0.00000000000E+00 -0.45593999997E+02  0.45594000000E+02  0.51100000000E-03 0.  1.
    9900012    2    1    2    0    0 -0.27818429784E+01 -0.16692885248E+01 -0.18443238973E+02  0.72461595157E+02  0.70000032388E+02 0.  0.
         12    1    1    2    0    0  0.27818429784E+01  0.16692885248E+01  0.18443238973E+02  0.18726404843E+02  0.00000000000E+00 0. -1.
         11    1    3    3    0    0  0.11586780046E+02 -0.21403484030E+02 -0.69922520900E+01  0.25322997256E+02  0.51100000000E-03 0. -1.
        -11    1    3    3    0    0  0.58316343059E+01 -0.32015619239E+00 -0.17142995663E+02  0.18110570373E+02  0.51100000000E-03 0.  1.
        -12    1    3    3    0    0 -0.20200257331E+02  0.20054351697E+02  0.56920087805E+01  0.29028027528E+02  0.00000000000E+00 0.  1.
</event>
<event>
 7    1  0.2932741E-013  0.7246158E+02  0.7816164E-02  0.1226708E+00
        -11   -1    0    0    0    0  0.00000000000E+00  0.00000000000E+00  0.45593999997E+02  0.45594000000E+02  0.51100000000E-03 0. -1.
         11   -1    0    0    0    0 -0.00000000000E+00 -0.00000000000E+00 -0.45593999997E+02  0.45594000000E+02  0.51100000000E-03 0.  1.
    9900012    2    1    2    0    0 -0.16606191248E+02  0.62272707040E+01 -0.60111975119E+01  0.72461575256E+02  0.70000006463E+02 0.  0.
         12    1    1    2    0    0  0.16606191248E+02 -0.62272707040E+01  0.60111975119E+01  0.18726424744E+02  0.00000000000E+00 0. -1.
         11    1    3    3    0    0 -0.14036235452E+02  0.19498510254E+02  0.92467915323E+01  0.25743173108E+02  0.51100000000E-03 0. -1.
        -11    1    3    3    0    0  0.87170151025E+01  0.12276547823E+02 -0.10573343939E+02  0.18398249402E+02  0.51100000000E-03 0.  1.
         12    1    3    3    0    0 -0.11286970899E+02 -0.25547787373E+02 -0.46846451057E+01  0.28320152745E+02  0.00000000000E+00 0. -1.
</event>
<event>
 7    1  0.2932741E-013  0.7246158E+02  0.7816164E-02  0.1226708E+00
        -11   -1    0    0    0    0  0.00000000000E+00  0.00000000000E+00  0.45593999997E+02  0.45594000000E+02  0.51100000000E-03 0. -1.
         11   -1    0    0    0    0 -0.00000000000E+00 -0.00000000000E+00 -0.45593999997E+02  0.45594000000E+02  0.51100000000E-03 0.  1.
    9900012    2    1    2    0    0  0.15853936952E+02  0.98984331660E+01  0.11630488950E+01  0.72461575388E+02  0.70000006635E+02 0.  0.
         12    1    1    2    0    0 -0.15853936952E+02 -0.98984331660E+01 -0.11630488950E+01  0.18726424612E+02  0.00000000000E+00 0. -1.
         11    1    3    3    0    0  0.19101541658E+01  0.92664791349E+01 -0.31630667157E+01  0.99760370791E+01  0.51100000000E-03 0. -1.
        -11    1    3    3    0    0  0.33562467048E+02  0.16176630813E+02  0.37828669163E+01  0.37449067560E+02  0.51100000000E-03 0.  1.
         12    1    3    3    0    0 -0.19618684261E+02 -0.15544676782E+02  0.54324869447E+00  0.25036470748E+02  0.00000000000E+00 0. -1.
</event>
<event>
 7    1  0.2932741E-013  0.7246157E+02  0.7816164E-02  0.1226708E+00
        -11   -1    0    0    0    0  0.00000000000E+00  0.00000000000E+00  0.45593999997E+02  0.45594000000E+02  0.51100000000E-03 0. -1.
         11   -1    0    0    0    0 -0.00000000000E+00 -0.00000000000E+00 -0.45593999997E+02  0.45594000000E+02  0.51100000000E-03 0.  1.
    9900012    2    1    2    0    0  0.95494752342E+01 -0.14499802628E+02 -0.70172857764E+01  0.72461573401E+02  0.70000004047E+02 0.  0.
         12    1    1    2    0    0 -0.95494752342E+01  0.14499802628E+02  0.70172857764E+01  0.18726426599E+02  0.00000000000E+00 0. -1.
         11    1    3    3    0    0  0.15013514230E+01  0.84338350091E+01 -0.16880286787E+02  0.18929545988E+02  0.51100000000E-03 0. -1.
        -11    1    3    3    0    0  0.52306003513E+01  0.13976665929E+02 -0.99006026221E+00  0.14956155592E+02  0.51100000000E-03 0.  1.
         12    1    3    3    0    0  0.28175234599E+01 -0.36910303566E+02  0.10853061273E+02  0.38575871821E+02  0.00000000000E+00 0. -1.
</event>
<event>
 7    1  0.2932741E-013  0.7246154E+02  0.7816164E-02  0.1226708E+00
        -11   -1    0    0    0    0  0.00000000000E+00  0.00000000000E+00  0.45593999997E+02  0.45594000000E+02  0.51100000000E-03 0.  1.
         11   -1    0    0    0    0 -0.00000000000E+00 -0.00000000000E+00 -0.45593999997E+02  0.45594000000E+02  0.51100000000E-03 0. -1.
    9900012    2    1    2    0    0 -0.63914130614E+01  0.22943863990E+01  0.17451820019E+02  0.72461537658E+02  0.69999957485E+02 0.  0.
         12    1    1    2    0    0  0.63914130614E+01 -0.22943863990E+01 -0.17451820019E+02  0.18726462342E+02  0.00000000000E+00 0. -1.
         11    1    3    3    0    0 -0.14973596333E+02 -0.15804033245E+02  0.12502185223E+02  0.25105391643E+02  0.51100000000E-03 0. -1.
        -11    1    3    3    0    0 -0.10248851743E+02 -0.21146236133E+01  0.14713876286E+02  0.18055712412E+02  0.51100000000E-03 0.  1.
         12    1    3    3    0    0  0.18831035015E+02  0.20213043257E+02 -0.97642414902E+01  0.29300433603E+02  0.00000000000E+00 0. -1.
</event>
<event>
 7    1  0.2932741E-013  0.7246154E+02  0.7816164E-02  0.1226708E+00
        -11   -1    0    0    0    0  0.00000000000E+00  0.00000000000E+00  0.45593999997E+02  0.45594000000E+02  0.51100000000E-03 0.  1.
         11   -1    0    0    0    0 -0.00000000000E+00 -0.00000000000E+00 -0.45593999997E+02  0.45594000000E+02  0.51100000000E-03 0. -1.
    9900012    2    1    2    0    0 -0.83530446734E+01 -0.11246081616E+02  0.12427092038E+02  0.72461539481E+02  0.69999959860E+02 0.  0.
         12    1    1    2    0    0  0.83530446734E+01  0.11246081616E+02 -0.12427092038E+02  0.18726460519E+02  0.00000000000E+00 0. -1.
         11    1    3    3    0    0 -0.56749746116E+00  0.12236929449E+01 -0.20534685737E+01  0.24568702115E+01  0.51100000000E-03 0. -1.
        -11    1    3    3    0    0 -0.37520581965E+02 -0.87153505007E+01  0.81161893424E+01  0.39365263051E+02  0.51100000000E-03 0.  1.
         12    1    3    3    0    0  0.29735034753E+02 -0.37544240598E+01  0.63643712698E+01  0.30639406219E+02  0.00000000000E+00 0. -1.
</event>
<event>
 7    1  0.2932741E-013  0.7246159E+02  0.7816164E-02  0.1226708E+00
        -11   -1    0    0    0    0  0.00000000000E+00  0.00000000000E+00  0.45593999997E+02  0.45594000000E+02  0.51100000000E-03 0. -1.
         11   -1    0    0    0    0 -0.00000000000E+00 -0.00000000000E+00 -0.45593999997E+02  0.45594000000E+02  0.51100000000E-03 0.  1.
    9900012    2    1    2    0    0  0.15890237769E+02 -0.64011257033E+01  0.75633650454E+01  0.72461586637E+02  0.70000021289E+02 0.  0.
         12    1    1    2    0    0 -0.15890237769E+02  0.64011257033E+01 -0.75633650454E+01  0.18726413363E+02  0.00000000000E+00 0. -1.
         11    1    3    3    0    0  0.16024907442E+01 -0.97095923807E+01  0.29880220720E+02  0.31459048799E+02  0.51100000000E-03 0. -1.
        -11    1    3    3    0    0 -0.24644357588E+01  0.12383680372E+02 -0.13914909148E+01  0.12702961481E+02  0.51100000000E-03 0.  1.
        -12    1    3    3    0    0  0.16752182784E+02 -0.90752136945E+01 -0.20925364760E+02  0.28299576357E+02  0.00000000000E+00 0.  1.
</event>
<event>
 7    1  0.2932741E-013  0.7246230E+02  0.7816164E-02  0.1226706E+00
        -11   -1    0    0    0    0  0.00000000000E+00  0.00000000000E+00  0.45593999997E+02  0.45594000000E+02  0.51100000000E-03 0. -1.
         11   -1    0    0    0    0 -0.00000000000E+00 -0.00000000000E+00 -0.45593999997E+02  0.45594000000E+02  0.51100000000E-03 0.  1.
    9900012    2    1    2    0    0  0.11265883682E+01  0.18691031811E+02  0.16670098189E+00  0.72462304799E+02  0.70000956823E+02 0.  0.
         12    1    1    2    0    0 -0.11265883682E+01 -0.18691031811E+02 -0.16670098189E+00  0.18725695201E+02  0.00000000000E+00 0. -1.
         11    1    3    3    0    0  0.80536341205E+01  0.33665469381E+01  0.11492597508E+02  0.14431717104E+02  0.51100000000E-03 0. -1.
        -11    1    3    3    0    0  0.44529790202E+01  0.18121822651E+01  0.20810493872E+02  0.21358597383E+02  0.51100000000E-03 0.  1.
        -12    1    3    3    0    0 -0.11380024773E+02  0.13512302608E+02 -0.32136390398E+02  0.36671990312E+02  0.00000000000E+00 0.  1.
</event>
<event>
 7    1  0.2932741E-013  0.7246123E+02  0.7816164E-02  0.1226709E+00
        -11   -1    0    0    0    0  0.00000000000E+00  0.00000000000E+00  0.45593999997E+02  0.45594000000E+02  0.51100000000E-03 0.  1.
         11   -1    0    0    0    0 -0.00000000000E+00 -0.00000000000E+00 -0.45593999997E+02  0.45594000000E+02  0.51100000000E-03 0. -1.
    9900012    2    1    2    0    0 -0.48492853542E+01  0.69448319507E+01  0.16701665568E+02  0.72461230604E+02  0.69999557489E+02 0.  0.
         12    1    1    2    0    0  0.48492853542E+01 -0.69448319507E+01 -0.16701665568E+02  0.18726769396E+02  0.00000000000E+00 0. -1.
         11    1    3    3    0    0  0.66608116275E+01 -0.24690964306E+02  0.43095840148E+01  0.25934198359E+02  0.51100000000E-03 0. -1.
        -11    1    3    3    0    0 -0.15830277097E+01  0.14096724468E+02 -0.92652972701E+01  0.16943121059E+02  0.51100000000E-03 0.  1.
        -12    1    3    3    0    0 -0.99270692720E+01  0.17539071788E+02  0.21657378823E+02  0.29583911185E+02  0.00000000000E+00 0.  1.
</event>
<event>
 7    1  0.2932741E-013  0.7246159E+02  0.7816164E-02  0.1226708E+00
        -11   -1    0    0    0    0  0.00000000000E+00  0.00000000000E+00  0.45593999997E+02  0.45594000000E+02  0.51100000000E-03 0. -1.
         11   -1    0    0    0    0 -0.00000000000E+00 -0.00000000000E+00 -0.45593999997E+02  0.45594000000E+02  0.51100000000E-03 0.  1.
    9900012    2    1    2    0    0 -0.71993168646E+01 -0.14675793249E+02 -0.91361586981E+01  0.72461589064E+02  0.70000024451E+02 0.  0.
         12    1    1    2    0    0  0.71993168646E+01  0.14675793249E+02  0.91361586981E+01  0.18726410936E+02  0.00000000000E+00 0. -1.
         11    1    3    3    0    0 -0.23399382939E+02 -0.43717612356E+01  0.12577555099E+02  0.26922821375E+02  0.51100000000E-03 0. -1.
        -11    1    3    3    0    0 -0.42144556594E+01 -0.17381697602E+02 -0.13561116196E+02  0.22445242720E+02  0.51100000000E-03 0.  1.
        -12    1    3    3    0    0  0.20414521734E+02  0.70776655893E+01 -0.81525976014E+01  0.23093524969E+02  0.00000000000E+00 0.  1.
</event>
<event>
 7    1  0.2932741E-013  0.7246160E+02  0.7816164E-02  0.1226708E+00
        -11   -1    0    0    0    0  0.00000000000E+00  0.00000000000E+00  0.45593999997E+02  0.45594000000E+02  0.51100000000E-03 0. -1.
         11   -1    0    0    0    0 -0.00000000000E+00 -0.00000000000E+00 -0.45593999997E+02  0.45594000000E+02  0.51100000000E-03 0.  1.
    9900012    2    1    2    0    0  0.14668979233E+02  0.60350479149E+01 -0.99537596258E+01  0.72461599231E+02  0.70000037695E+02 0.  0.
         12    1    1    2    0    0 -0.14668979233E+02 -0.60350479149E+01  0.99537596258E+01  0.18726400769E+02  0.00000000000E+00 0. -1.
         11    1    3    3    0    0 -0.43531250806E+01  0.51114474001E+01 -0.10172572727E+01  0.67905379103E+01  0.51100000000E-03 0. -1.
        -11    1    3    3    0    0  0.17710502766E+01  0.26429147979E+02 -0.19744490164E+02  0.33037575185E+02  0.51100000000E-03 0.  1.
         12    1    3    3    0    0  0.17251054037E+02 -0.25505547464E+02  0.10807987811E+02  0.32633486136E+02  0.00000000000E+00 0. -1.
</event>
<event>
 7    1  0.2932741E-013  0.7246155E+02  0.7816164E-02  0.1226708E+00
        -11   -1    0    0    0    0  0.00000000000E+00  0.00000000000E+00  0.45593999997E+02  0.45594000000E+02  0.51100000000E-03 0. -1.
         11   -1    0    0    0    0 -0.00000000000E+00 -0.00000000000E+00 -0.45593999997E+02  0.45594000000E+02  0.51100000000E-03 0.  1.
    9900012    2    1    2    0    0  0.53332657933E+01  0.12283076544E+02 -0.13090543807E+02  0.72461547304E+02  0.69999970051E+02 0.  0.
         12    1    1    2    0    0 -0.53332657933E+01 -0.12283076544E+02  0.13090543807E+02  0.18726452696E+02  0.00000000000E+00 0. -1.
         11    1    3    3    0    0  0.11566209973E+02  0.11780630796E+02 -0.25336267288E+02  0.30240484709E+02  0.51100000000E-03 0. -1.
        -11    1    3    3    0    0  0.15667277752E+02  0.18440953064E+01 -0.22336998641E+01  0.15932786793E+02  0.51100000000E-03 0.  1.
         12    1    3    3    0    0 -0.21900221932E+02 -0.13416495593E+01  0.14479423345E+02  0.26288275801E+02  0.00000000000E+00 0. -1.
</event>
<event>
 7    1  0.2932741E-013  0.7246163E+02  0.7816164E-02  0.1226708E+00
        -11   -1    0    0    0    0  0.00000000000E+00  0.00000000000E+00  0.45593999997E+02  0.45594000000E+02  0.51100000000E-03 0.  1.
         11   -1    0    0    0    0 -0.00000000000E+00 -0.00000000000E+00 -0.45593999997E+02  0.45594000000E+02  0.51100000000E-03 0. -1.
    9900012    2    1    2    0    0 -0.18204758039E+02  0.38808010187E+01  0.20501074256E+01  0.72461634302E+02  0.70000083382E+02 0.  0.
         12    1    1    2    0    0  0.18204758039E+02 -0.38808010187E+01 -0.20501074256E+01  0.18726365698E+02  0.00000000000E+00 0. -1.
         11    1    3    3    0    0 -0.43640519647E+01  0.20146994063E+02  0.25033667722E+02  0.32428858123E+02  0.51100000000E-03 0. -1.
        -11    1    3    3    0    0 -0.53400582243E+01  0.33392456037E+01  0.24993944836E+01  0.67759690146E+01  0.51100000000E-03 0.  1.
        -12    1    3    3    0    0 -0.85006478497E+01 -0.19605438648E+02 -0.25482954780E+02  0.33256807164E+02  0.00000000000E+00 0.  1.
</event>
<event>
 7    1  0.2932741E-013  0.7246155E+02  0.7816164E-02  0.1226708E+00
        -11   -1    0    0    0    0  0.00000000000E+00  0.00000000000E+00  0.45593999997E+02  0.45594000000E+02  0.51100000000E-03 0. -1.
         11   -1    0    0    0    0 -0.00000000000E+00 -0.00000000000E+00 -0.45593999997E+02  0.45594000000E+02  0.51100000000E-03 0.  1.
    9900012    2    1    2    0    0  0.96342961030E+01  0.73283928551E+01 -0.14288273662E+02  0.72461554329E+02  0.69999979202E+02 0.  0.
         12    1    1    2    0    0 -0.96342961030E+01 -0.73283928551E+01  0.14288273662E+02  0.18726445671E+02  0.00000000000E+00 0. -1.
         11    1    3    3    0    0 -0.10983952535E+02  0.73486646025E+01  0.88459507694E+01  0.15902859177E+02  0.51100000000E-03 0. -1.
        -11    1    3    3    0    0 -0.10591093588E+02 -0.11213412833E+01 -0.22981690929E+02  0.25329563515E+02  0.51100000000E-03 0.  1.
         12    1    3    3    0    0  0.31209342226E+02  0.11010695359E+01 -0.15253350221E+00  0.31229131637E+02  0.00000000000E+00 0. -1.
</event>
<event>
 7    1  0.2932741E-013  0.7246157E+02  0.7816164E-02  0.1226708E+00
        -11   -1    0    0    0    0  0.00000000000E+00  0.00000000000E+00  0.45593999997E+02  0.45594000000E+02  0.51100000000E-03 0.  1.
         11   -1    0    0    0    0 -0.00000000000E+00 -0.00000000000E+00 -0.45593999997E+02  0.45594000000E+02  0.51100000000E-03 0. -1.
    9900012    2    1    2    0    0  0.51058105917E+01  0.13284364539E+02 -0.12171096107E+02  0.72461568855E+02  0.69999998124E+02 0.  0.
         12    1    1    2    0    0 -0.51058105917E+01 -0.13284364539E+02  0.12171096107E+02  0.18726431145E+02  0.00000000000E+00 0. -1.
         11    1    3    3    0    0  0.17444961418E+02  0.14022550799E+02  0.46118303945E+01  0.22852299439E+02  0.51100000000E-03 0. -1.
        -11    1    3    3    0    0  0.67797195400E+01 -0.10707969173E+02  0.93351178482E+01  0.15740699678E+02  0.51100000000E-03 0.  1.
         12    1    3    3    0    0 -0.19118870366E+02  0.99697829124E+01 -0.26118044350E+02  0.33868569738E+02  0.00000000000E+00 0. -1.
</event>
<event>
 7    1  0.2932741E-013  0.7246154E+02  0.7816164E-02  0.1226708E+00
        -11   -1    0    0    0    0  0.00000000000E+00  0.00000000000E+00  0.45593999997E+02  0.45594000000E+02  0.51100000000E-03 0. -1.
         11   -1    0    0    0    0 -0.00000000000E+00 -0.00000000000E+00 -0.45593999997E+02  0.45594000000E+02  0.51100000000E-03 0.  1.
    9900012    2    1    2    0    0  0.15624493705E+02 -0.51012436677E+01 -0.89739976200E+01  0.72461544815E+02  0.69999966809E+02 0.  0.
         12    1    1    2    0    0 -0.15624493705E+02  0.51012436677E+01  0.89739976200E+01  0.18726455185E+02  0.00000000000E+00 0. -1.
         11    1    3    3    0    0  0.14393940274E+02  0.11811985815E+01 -0.99226544441E+01  0.17522551703E+02  0.51100000000E-03 0. -1.
        -11    1    3    3    0    0 -0.41328477019E+01  0.83735902950E+01 -0.23864218443E+02  0.25626126643E+02  0.51100000000E-03 0.  1.
         12    1    3    3    0    0  0.53634011330E+01 -0.14656032544E+02  0.24812875267E+02  0.29312866469E+02  0.00000000000E+00 0. -1.
</event>
<event>
 7    1  0.2932741E-013  0.7246159E+02  0.7816164E-02  0.1226708E+00
        -11   -1    0    0    0    0  0.00000000000E+00  0.00000000000E+00  0.45593999997E+02  0.45594000000E+02  0.51100000000E-03 0.  1.
         11   -1    0    0    0    0 -0.00000000000E+00 -0.00000000000E+00 -0.45593999997E+02  0.45594000000E+02  0.51100000000E-03 0. -1.
    9900012    2    1    2    0    0 -0.78681229442E+01 -0.97277055017E+01  0.13933512457E+02  0.72461591311E+02  0.70000027378E+02 0.  0.
         12    1    1    2    0    0  0.78681229442E+01  0.97277055017E+01 -0.13933512457E+02  0.18726408689E+02  0.00000000000E+00 0. -1.
         11    1    3    3    0    0  0.32656313772E+01 -0.14568236281E+02 -0.11413095456E+02  0.18792461381E+02  0.51100000000E-03 0. -1.
        -11    1    3    3    0    0 -0.24146266785E+02 -0.80856423936E+01  0.44244462699E+01  0.25845609640E+02  0.51100000000E-03 0.  1.
        -12    1    3    3    0    0  0.13012512464E+02  0.12926173172E+02  0.20922161643E+02  0.27823520290E+02  0.00000000000E+00 0.  1.
</event>
<event>
 7    1  0.2932741E-013  0.7246152E+02  0.7816164E-02  0.1226708E+00
        -11   -1    0    0    0    0  0.00000000000E+00  0.00000000000E+00  0.45593999997E+02  0.45594000000E+02  0.51100000000E-03 0.  1.
         11   -1    0    0    0    0 -0.00000000000E+00 -0.00000000000E+00 -0.45593999997E+02  0.45594000000E+02  0.51100000000E-03 0. -1.
    9900012    2    1    2    0    0  0.14220521228E+02 -0.25646825714E+01  0.11911353765E+02  0.72461516902E+02  0.69999930447E+02 0.  0.
         12    1    1    2    0    0 -0.14220521228E+02  0.25646825714E+01 -0.11911353765E+02  0.18726483098E+02  0.00000000000E+00 0. -1.
         11    1    3    3    0    0 -0.97145791488E+01 -0.11809601951E+02 -0.12278144757E+02  0.19611032232E+02  0.51100000000E-03 0. -1.
        -11    1    3    3    0    0 -0.10475432545E+02  0.27120750887E+01  0.10983467416E+02  0.15418384968E+02  0.51100000000E-03 0.  1.
        -12    1    3    3    0    0  0.34410532922E+02  0.65328442909E+01  0.13206031106E+02  0.37432099702E+02  0.00000000000E+00 0.  1.
</event>
<event>
 7    1  0.2932741E-013  0.7246137E+02  0.7816164E-02  0.1226709E+00
        -11   -1    0    0    0    0  0.00000000000E+00  0.00000000000E+00  0.45593999997E+02  0.45594000000E+02  0.51100000000E-03 0.  1.
         11   -1    0    0    0    0 -0.00000000000E+00 -0.00000000000E+00 -0.45593999997E+02  0.45594000000E+02  0.51100000000E-03 0. -1.
    9900012    2    1    2    0    0  0.16174342416E+01  0.13811670967E+02  0.12542267638E+02  0.72461365867E+02  0.69999733695E+02 0.  0.
         12    1    1    2    0    0 -0.16174342416E+01 -0.13811670967E+02 -0.12542267638E+02  0.18726634133E+02  0.00000000000E+00 0. -1.
         11    1    3    3    0    0 -0.68761242454E+01 -0.19079189208E+02  0.94589881331E+00  0.20302494189E+02  0.51100000000E-03 0. -1.
        -11    1    3    3    0    0 -0.45076561300E+01 -0.45770332765E+01 -0.59823194944E+01  0.87781743087E+01  0.51100000000E-03 0.  1.
         12    1    3    3    0    0  0.13001214617E+02  0.37467893452E+02  0.17578688319E+02  0.43380697369E+02  0.00000000000E+00 0. -1.
</event>
<event>
 7    1  0.2932741E-013  0.7246161E+02  0.7816164E-02  0.1226708E+00
        -11   -1    0    0    0    0  0.00000000000E+00  0.00000000000E+00  0.45593999997E+02  0.45594000000E+02  0.51100000000E-03 0.  1.
         11   -1    0    0    0    0 -0.00000000000E+00 -0.00000000000E+00 -0.45593999997E+02  0.45594000000E+02  0.51100000000E-03 0. -1.
    9900012    2    1    2    0    0 -0.15854100757E+02  0.81049980311E+01 -0.57994882554E+01  0.72461613058E+02  0.70000055707E+02 0.  0.
         12    1    1    2    0    0  0.15854100757E+02 -0.81049980311E+01  0.57994882554E+01  0.18726386942E+02  0.00000000000E+00 0. -1.
         11    1    3    3    0    0 -0.61207013999E+01 -0.20641765774E+02  0.58236413742E+01  0.22303817588E+02  0.51100000000E-03 0. -1.
        -11    1    3    3    0    0  0.37477773554E+01  0.13101118834E+02  0.12437353102E+02  0.18449197876E+02  0.51100000000E-03 0.  1.
         12    1    3    3    0    0 -0.13481176712E+02  0.15645644971E+02 -0.24060482732E+02  0.31708597594E+02  0.00000000000E+00 0. -1.
</event>
<event>
 7    1  0.2932741E-013  0.7246132E+02  0.7816164E-02  0.1226709E+00
        -11   -1    0    0    0    0  0.00000000000E+00  0.00000000000E+00  0.45593999997E+02  0.45594000000E+02  0.51100000000E-03 0.  1.
         11   -1    0    0    0    0 -0.00000000000E+00 -0.00000000000E+00 -0.45593999997E+02  0.45594000000E+02  0.51100000000E-03 0. -1.
    9900012    2    1    2    0    0  0.40067202624E+01  0.18234870013E+02 -0.14575308302E+01  0.72461316157E+02  0.69999668938E+02 0.  0.
         12    1    1    2    0    0 -0.40067202624E+01 -0.18234870013E+02  0.14575308302E+01  0.18726683843E+02  0.00000000000E+00 0. -1.
         11    1    3    3    0    0 -0.31761403615E+01 -0.82139389829E+01 -0.22712479117E+02  0.24360077362E+02  0.51100000000E-03 0. -1.
        -11    1    3    3    0    0 -0.13007423432E+02  0.61752830047E+01  0.89609412914E+01  0.16959529876E+02  0.51100000000E-03 0.  1.
        -12    1    3    3    0    0  0.20190284056E+02  0.20273525991E+02  0.12294006995E+02  0.31141708918E+02  0.00000000000E+00 0.  1.
</event>
<event>
 7    1  0.2932741E-013  0.7246157E+02  0.7816164E-02  0.1226708E+00
        -11   -1    0    0    0    0  0.00000000000E+00  0.00000000000E+00  0.45593999997E+02  0.45594000000E+02  0.51100000000E-03 0. -1.
         11   -1    0    0    0    0 -0.00000000000E+00 -0.00000000000E+00 -0.45593999997E+02  0.45594000000E+02  0.51100000000E-03 0.  1.
    9900012    2    1    2    0    0 -0.85091470251E+01  0.13037844827E+02  0.10406158584E+02  0.72461571689E+02  0.70000001816E+02 0.  0.
         12    1    1    2    0    0  0.85091470251E+01 -0.13037844827E+02 -0.10406158584E+02  0.18726428311E+02  0.00000000000E+00 0. -1.
         11    1    3    3    0    0 -0.82626487640E+01 -0.22018474833E+01  0.18978073078E+02  0.20815541188E+02  0.51100000000E-03 0. -1.
        -11    1    3    3    0    0 -0.24914192766E+01 -0.16054462124E+02  0.56466992435E+01  0.17199945835E+02  0.51100000000E-03 0.  1.
        -12    1    3    3    0    0  0.22449210155E+01  0.31294154435E+02 -0.14218613738E+02  0.34446084665E+02  0.00000000000E+00 0.  1.
</event>
<event>
 7    1  0.2932741E-013  0.7246159E+02  0.7816164E-02  0.1226708E+00
        -11   -1    0    0    0    0  0.00000000000E+00  0.00000000000E+00  0.45593999997E+02  0.45594000000E+02  0.51100000000E-03 0.  1.
         11   -1    0    0    0    0 -0.00000000000E+00 -0.00000000000E+00 -0.45593999997E+02  0.45594000000E+02  0.51100000000E-03 0. -1.
    9900012    2    1    2    0    0 -0.26140590476E+01 -0.10851008963E+02  0.15036650880E+02  0.72461586304E+02  0.70000020855E+02 0.  0.
         12    1    1    2    0    0  0.26140590476E+01  0.10851008963E+02 -0.15036650880E+02  0.18726413696E+02  0.00000000000E+00 0. -1.
         11    1    3    3    0    0  0.11941484541E+02 -0.21129744118E+02  0.95287688730E+01  0.26074174504E+02  0.51100000000E-03 0. -1.
        -11    1    3    3    0    0 -0.10586988985E+02  0.90599513491E+01  0.23827743972E+02  0.27603051231E+02  0.51100000000E-03 0.  1.
         12    1    3    3    0    0 -0.39685546036E+01  0.12187838056E+01 -0.18319861964E+02  0.18784360569E+02  0.00000000000E+00 0. -1.
</event>
<event>
 7    1  0.2932741E-013  0.7246153E+02  0.7816164E-02  0.1226708E+00
        -11   -1    0    0    0    0  0.00000000000E+00  0.00000000000E+00  0.45593999997E+02  0.45594000000E+02  0.51100000000E-03 0.  1.
         11   -1    0    0    0    0 -0.00000000000E+00 -0.00000000000E+00 -0.45593999997E+02  0.45594000000E+02  0.51100000000E-03 0. -1.
    9900012    2    1    2    0    0 -0.15945743814E+02 -0.65557495005E+01  0.73099935810E+01  0.72461532008E+02  0.69999950125E+02 0.  0.
         12    1    1    2    0    0  0.15945743814E+02  0.65557495005E+01 -0.73099935810E+01  0.18726467992E+02  0.00000000000E+00 0. -1.
         11    1    3    3    0    0  0.14570121007E+01  0.14755220167E+01  0.72062450664E+01  0.74986677284E+01  0.51100000000E-03 0. -1.
        -11    1    3    3    0    0 -0.19730378782E+02 -0.86631001014E-01  0.28904085477E+02  0.34996307082E+02  0.51100000000E-03 0.  1.
         12    1    3    3    0    0  0.23276228672E+01 -0.79446405162E+01 -0.28800336963E+02  0.29966557198E+02  0.00000000000E+00 0. -1.
</event>
<event>
 7    1  0.2932741E-013  0.7246155E+02  0.7816164E-02  0.1226708E+00
        -11   -1    0    0    0    0  0.00000000000E+00  0.00000000000E+00  0.45593999997E+02  0.45594000000E+02  0.51100000000E-03 0.  1.
         11   -1    0    0    0    0 -0.00000000000E+00 -0.00000000000E+00 -0.45593999997E+02  0.45594000000E+02  0.51100000000E-03 0. -1.
    9900012    2    1    2    0    0 -0.10555295952E+02  0.15467079425E+02  0.18764881533E+00  0.72461547302E+02  0.69999970048E+02 0.  0.
         12    1    1    2    0    0  0.10555295952E+02 -0.15467079425E+02 -0.18764881533E+00  0.18726452698E+02  0.00000000000E+00 0. -1.
         11    1    3    3    0    0  0.13295102454E+02  0.80806152802E+01  0.62778888039E+01  0.16777007500E+02  0.51100000000E-03 0. -1.
        -11    1    3    3    0    0 -0.30731791962E+02 -0.18780600706E+01  0.12964623372E+02  0.33407358564E+02  0.51100000000E-03 0.  1.
         12    1    3    3    0    0  0.68813935558E+01  0.92645242156E+01 -0.19054863360E+02  0.22277181238E+02  0.00000000000E+00 0. -1.
</event>
<event>
 7    1  0.2932741E-013  0.7246157E+02  0.7816164E-02  0.1226708E+00
        -11   -1    0    0    0    0  0.00000000000E+00  0.00000000000E+00  0.45593999997E+02  0.45594000000E+02  0.51100000000E-03 0.  1.
         11   -1    0    0    0    0 -0.00000000000E+00 -0.00000000000E+00 -0.45593999997E+02  0.45594000000E+02  0.51100000000E-03 0. -1.
    9900012    2    1    2    0    0  0.85188831447E+01 -0.49006456401E+01  0.15940248229E+02  0.72461569178E+02  0.69999998546E+02 0.  0.
         12    1    1    2    0    0 -0.85188831447E+01  0.49006456401E+01 -0.15940248229E+02  0.18726430822E+02  0.00000000000E+00 0. -1.
         11    1    3    3    0    0  0.81687020774E+00  0.20713756396E+00  0.15465489785E+02  0.15488433022E+02  0.51100000000E-03 0. -1.
        -11    1    3    3    0    0 -0.20426602739E+01 -0.13875693148E+02  0.25284124067E+02  0.28913565180E+02  0.51100000000E-03 0.  1.
         12    1    3    3    0    0  0.97446732108E+01  0.87679099437E+01 -0.24809365623E+02  0.28059570977E+02  0.00000000000E+00 0. -1.
</event>
<event>
 7    1  0.2932741E-013  0.7246159E+02  0.7816164E-02  0.1226708E+00
        -11   -1    0    0    0    0  0.00000000000E+00  0.00000000000E+00  0.45593999997E+02  0.45594000000E+02  0.51100000000E-03 0.  1.
         11   -1    0    0    0    0 -0.00000000000E+00 -0.00000000000E+00 -0.45593999997E+02  0.45594000000E+02  0.51100000000E-03 0. -1.
    9900012    2    1    2    0    0 -0.24211989053E+01  0.10212296704E+02  0.15508870590E+02  0.72461594176E+02  0.70000031110E+02 0.  0.
         12    1    1    2    0    0  0.24211989053E+01 -0.10212296704E+02 -0.15508870590E+02  0.18726405824E+02  0.00000000000E+00 0. -1.
         11    1    3    3    0    0 -0.16624045388E+02  0.39936261458E+00 -0.12694570398E+02  0.20920575839E+02  0.51100000000E-03 0. -1.
        -11    1    3    3    0    0  0.65845108666E+01  0.92206820709E+01 -0.84279274733E+01  0.14121144534E+02  0.51100000000E-03 0.  1.
        -12    1    3    3    0    0  0.76183356166E+01  0.59225201812E+00  0.36631368462E+02  0.37419873803E+02  0.00000000000E+00 0.  1.
</event>
<event>
 7    1  0.2932741E-013  0.7246158E+02  0.7816164E-02  0.1226708E+00
        -11   -1    0    0    0    0  0.00000000000E+00  0.00000000000E+00  0.45593999997E+02  0.45594000000E+02  0.51100000000E-03 0.  1.
         11   -1    0    0    0    0 -0.00000000000E+00 -0.00000000000E+00 -0.45593999997E+02  0.45594000000E+02  0.51100000000E-03 0. -1.
    9900012    2    1    2    0    0  0.43050865607E+01 -0.71989824194E+01  0.16742747949E+02  0.72461582108E+02  0.70000015390E+02 0.  0.
         12    1    1    2    0    0 -0.43050865607E+01  0.71989824194E+01 -0.16742747949E+02  0.18726417892E+02  0.00000000000E+00 0. -1.
         11    1    3    3    0    0 -0.50876408745E+01 -0.73226866515E+01 -0.54769070835E+01  0.10464336621E+02  0.51100000000E-03 0. -1.
        -11    1    3    3    0    0  0.23351184707E+02 -0.20382443351E+02  0.40724670926E+01  0.31261906734E+02  0.51100000000E-03 0.  1.
        -12    1    3    3    0    0 -0.13958457272E+02  0.20506147583E+02  0.18147187940E+02  0.30735338753E+02  0.00000000000E+00 0.  1.
</event>
<event>
 7    1  0.2932741E-013  0.7246157E+02  0.7816164E-02  0.1226708E+00
        -11   -1    0    0    0    0  0.00000000000E+00  0.00000000000E+00  0.45593999997E+02  0.45594000000E+02  0.51100000000E-03 0.  1.
         11   -1    0    0    0    0 -0.00000000000E+00 -0.00000000000E+00 -0.45593999997E+02  0.45594000000E+02  0.51100000000E-03 0. -1.
    9900012    2    1    2    0    0 -0.14763964244E+02  0.50720554188E+01  0.10343060963E+02  0.72461566905E+02  0.69999995585E+02 0.  0.
         12    1    1    2    0    0  0.14763964244E+02 -0.50720554188E+01 -0.10343060963E+02  0.18726433095E+02  0.00000000000E+00 0. -1.
         11    1    3    3    0    0  0.19730257779E+02 -0.65533828620E+00 -0.59060539180E+01  0.20605679155E+02  0.51100000000E-03 0. -1.
        -11    1    3    3    0    0  0.11904065180E+01 -0.88726502230E+01  0.88660250131E+01  0.12599499571E+02  0.51100000000E-03 0.  1.
        -12    1    3    3    0    0 -0.35684628541E+02  0.14600043928E+02  0.73830898683E+01  0.39256388178E+02  0.00000000000E+00 0.  1.
</event>
<event>
 7    1  0.2932741E-013  0.7246156E+02  0.7816164E-02  0.1226708E+00
        -11   -1    0    0    0    0  0.00000000000E+00  0.00000000000E+00  0.45593999997E+02  0.45594000000E+02  0.51100000000E-03 0.  1.
         11   -1    0    0    0    0 -0.00000000000E+00 -0.00000000000E+00 -0.45593999997E+02  0.45594000000E+02  0.51100000000E-03 0. -1.
    9900012    2    1    2    0    0 -0.12493399564E+02 -0.10756391777E+02  0.88822619426E+01  0.72461559496E+02  0.69999985933E+02 0.  0.
         12    1    1    2    0    0  0.12493399564E+02  0.10756391777E+02 -0.88822619426E+01  0.18726440504E+02  0.00000000000E+00 0. -1.
         11    1    3    3    0    0 -0.41947808200E+01  0.17431369683E+02 -0.20103290791E+02  0.26936798920E+02  0.51100000000E-03 0. -1.
        -11    1    3    3    0    0 -0.10207794244E+02 -0.78816661426E+01  0.18609680221E+02  0.22641553010E+02  0.51100000000E-03 0.  1.
        -12    1    3    3    0    0  0.19091755001E+01 -0.20306095317E+02  0.10375872513E+02  0.22883207567E+02  0.00000000000E+00 0.  1.
</event>
<event>
 7    1  0.2932741E-013  0.7246161E+02  0.7816164E-02  0.1226708E+00
        -11   -1    0    0    0    0  0.00000000000E+00  0.00000000000E+00  0.45593999997E+02  0.45594000000E+02  0.51100000000E-03 0.  1.
         11   -1    0    0    0    0 -0.00000000000E+00 -0.00000000000E+00 -0.45593999997E+02  0.45594000000E+02  0.51100000000E-03 0. -1.
    9900012    2    1    2    0    0  0.17947722523E+02 -0.49118486378E+01 -0.21049093131E+01  0.72461611025E+02  0.70000053060E+02 0.  0.
         12    1    1    2    0    0 -0.17947722523E+02  0.49118486378E+01  0.21049093131E+01  0.18726388975E+02  0.00000000000E+00 0. -1.
         11    1    3    3    0    0  0.28012749639E+02 -0.19590444560E+02  0.19227574227E+00  0.34183865062E+02  0.51100000000E-03 0. -1.
        -11    1    3    3    0    0 -0.17102615426E+01 -0.48313528803E+00  0.14232003524E+02  0.14342535996E+02  0.51100000000E-03 0.  1.
        -12    1    3    3    0    0 -0.83547655727E+01  0.15161731210E+02 -0.16529188579E+02  0.23935209967E+02  0.00000000000E+00 0.  1.
</event>
<event>
 7    1  0.2932741E-013  0.7246152E+02  0.7816164E-02  0.1226708E+00
        -11   -1    0    0    0    0  0.00000000000E+00  0.00000000000E+00  0.45593999997E+02  0.45594000000E+02  0.51100000000E-03 0.  1.
         11   -1    0    0    0    0 -0.00000000000E+00 -0.00000000000E+00 -0.45593999997E+02  0.45594000000E+02  0.51100000000E-03 0. -1.
    9900012    2    1    2    0    0  0.17102168276E+02  0.27576038933E+01  0.71128448582E+01  0.72461518725E+02  0.69999932821E+02 0.  0.
         12    1    1    2    0    0 -0.17102168276E+02 -0.27576038933E+01 -0.71128448582E+01  0.18726481275E+02  0.00000000000E+00 0. -1.
         11    1    3    3    0    0 -0.73834528189E+01  0.16816737771E+02 -0.12941634960E+02  0.22467842809E+02  0.51100000000E-03 0. -1.
        -11    1    3    3    0    0  0.10932552720E+02 -0.16036764671E+02  0.28068089306E+02  0.34125007951E+02  0.51100000000E-03 0.  1.
         12    1    3    3    0    0  0.13553068375E+02  0.19776307935E+01 -0.80136094881E+01  0.15868667965E+02  0.00000000000E+00 0. -1.
</event>
<event>
 7    1  0.2932741E-013  0.7246159E+02  0.7816164E-02  0.1226708E+00
        -11   -1    0    0    0    0  0.00000000000E+00  0.00000000000E+00  0.45593999997E+02  0.45594000000E+02  0.51100000000E-03 0.  1.
         11   -1    0    0    0    0 -0.00000000000E+00 -0.00000000000E+00 -0.45593999997E+02  0.45594000000E+02  0.51100000000E-03 0. -1.
    9900012    2    1    2    0    0 -0.18247025545E+02 -0.21023394407E+01  0.36475736447E+01  0.72461586412E+02  0.70000020997E+02 0.  0.
         12    1    1    2    0    0  0.18247025545E+02  0.21023394407E+01 -0.36475736447E+01  0.18726413588E+02  0.00000000000E+00 0. -1.
         11    1    3    3    0    0 -0.12301815677E+02 -0.28320940244E+01 -0.17176687562E+02  0.21316519917E+02  0.51100000000E-03 0. -1.
        -11    1    3    3    0    0 -0.21097691100E+01 -0.20262696597E+02 -0.12904873022E+01  0.20413068285E+02  0.51100000000E-03 0.  1.
         12    1    3    3    0    0 -0.38354407578E+01  0.20992451181E+02  0.22114748509E+02  0.30731998210E+02  0.00000000000E+00 0. -1.
</event>
<event>
 7    1  0.2932741E-013  0.7246159E+02  0.7816164E-02  0.1226708E+00
        -11   -1    0    0    0    0  0.00000000000E+00  0.00000000000E+00  0.45593999997E+02  0.45594000000E+02  0.51100000000E-03 0. -1.
         11   -1    0    0    0    0 -0.00000000000E+00 -0.00000000000E+00 -0.45593999997E+02  0.45594000000E+02  0.51100000000E-03 0.  1.
    9900012    2    1    2    0    0  0.13163387836E+01  0.30185209827E+01 -0.18434589636E+02  0.72461593196E+02  0.70000029834E+02 0.  0.
         12    1    1    2    0    0 -0.13163387836E+01 -0.30185209827E+01  0.18434589636E+02  0.18726406804E+02  0.00000000000E+00 0. -1.
         11    1    3    3    0    0 -0.18604606058E+02  0.18305418669E+02  0.84923800515E+01  0.27447044256E+02  0.51100000000E-03 0. -1.
        -11    1    3    3    0    0 -0.44037707923E+01  0.11844721767E+01 -0.10286655119E+02  0.11252175137E+02  0.51100000000E-03 0.  1.
        -12    1    3    3    0    0  0.24324715634E+02 -0.16471369863E+02 -0.16640314569E+02  0.33762373803E+02  0.00000000000E+00 0.  1.
</event>
<event>
 7    1  0.2932741E-013  0.7246156E+02  0.7816164E-02  0.1226708E+00
        -11   -1    0    0    0    0  0.00000000000E+00  0.00000000000E+00  0.45593999997E+02  0.45594000000E+02  0.51100000000E-03 0. -1.
         11   -1    0    0    0    0 -0.00000000000E+00 -0.00000000000E+00 -0.45593999997E+02  0.45594000000E+02  0.51100000000E-03 0.  1.
    9900012    2    1    2    0    0  0.12067358855E+02  0.66783911402E+01 -0.12667187988E+02  0.72461555878E+02  0.69999981220E+02 0.  0.
         12    1    1    2    0    0 -0.12067358855E+02 -0.66783911402E+01  0.12667187988E+02  0.18726444122E+02  0.00000000000E+00 0. -1.
         11    1    3    3    0    0 -0.21173350681E+01 -0.16573789057E+02  0.11408511323E+02  0.20231849207E+02  0.51100000000E-03 0. -1.
        -11    1    3    3    0    0 -0.11362656851E+02 -0.30378177234E-01 -0.30228983514E+01  0.11757925338E+02  0.51100000000E-03 0.  1.
         12    1    3    3    0    0  0.25547350774E+02  0.23282558374E+02 -0.21052800959E+02  0.40471781332E+02  0.00000000000E+00 0. -1.
</event>
<event>
 7    1  0.2932741E-013  0.7246158E+02  0.7816164E-02  0.1226708E+00
        -11   -1    0    0    0    0  0.00000000000E+00  0.00000000000E+00  0.45593999997E+02  0.45594000000E+02  0.51100000000E-03 0.  1.
         11   -1    0    0    0    0 -0.00000000000E+00 -0.00000000000E+00 -0.45593999997E+02  0.45594000000E+02  0.51100000000E-03 0. -1.
    9900012    2    1    2    0    0  0.14918799413E+02 -0.61978513259E+01  0.94707373683E+01  0.72461580073E+02  0.70000012739E+02 0.  0.
         12    1    1    2    0    0 -0.14918799413E+02  0.61978513259E+01 -0.94707373683E+01  0.18726419927E+02  0.00000000000E+00 0. -1.
         11    1    3    3    0    0 -0.87872819263E+01 -0.14001824667E+02 -0.17075639188E+02  0.23766465274E+02  0.51100000000E-03 0. -1.
        -11    1    3    3    0    0 -0.57728272532E+01 -0.40846602976E+01  0.11564514787E+02  0.13555367452E+02  0.51100000000E-03 0.  1.
        -12    1    3    3    0    0  0.29478908592E+02  0.11888633639E+02  0.14981861770E+02  0.35139747348E+02  0.00000000000E+00 0.  1.
</event>
<event>
 7    1  0.2932741E-013  0.7246152E+02  0.7816164E-02  0.1226708E+00
        -11   -1    0    0    0    0  0.00000000000E+00  0.00000000000E+00  0.45593999997E+02  0.45594000000E+02  0.51100000000E-03 0. -1.
         11   -1    0    0    0    0 -0.00000000000E+00 -0.00000000000E+00 -0.45593999997E+02  0.45594000000E+02  0.51100000000E-03 0.  1.
    9900012    2    1    2    0    0 -0.75770080438E+01 -0.14904538824E+02 -0.84335467479E+01  0.72461520374E+02  0.69999934969E+02 0.  0.
         12    1    1    2    0    0  0.75770080438E+01  0.14904538824E+02  0.84335467479E+01  0.18726479626E+02  0.00000000000E+00 0. -1.
         11    1    3    3    0    0 -0.51374668639E+01  0.13980766696E+02 -0.81012707944E+01  0.16955411877E+02  0.51100000000E-03 0. -1.
        -11    1    3    3    0    0  0.93643884246E+01  0.72567772008E+01 -0.10842167446E+02  0.16059426550E+02  0.51100000000E-03 0.  1.
         12    1    3    3    0    0 -0.11803929604E+02 -0.36142082720E+02  0.10509891493E+02  0.39446681947E+02  0.00000000000E+00 0. -1.
</event>
<event>
 7    1  0.2932741E-013  0.7246149E+02  0.7816164E-02  0.1226708E+00
        -11   -1    0    0    0    0  0.00000000000E+00  0.00000000000E+00  0.45593999997E+02  0.45594000000E+02  0.51100000000E-03 0.  1.
         11   -1    0    0    0    0 -0.00000000000E+00 -0.00000000000E+00 -0.45593999997E+02  0.45594000000E+02  0.51100000000E-03 0. -1.
    9900012    2    1    2    0    0 -0.16093049488E+02 -0.74423378679E+01  0.60255696218E+01  0.72461491408E+02  0.69999897236E+02 0.  0.
         12    1    1    2    0    0  0.16093049488E+02  0.74423378679E+01 -0.60255696218E+01  0.18726508592E+02  0.00000000000E+00 0. -1.
         11    1    3    3    0    0  0.10432919195E+02  0.11419971432E+02 -0.45628141655E+01  0.16127021541E+02  0.51100000000E-03 0. -1.
        -11    1    3    3    0    0 -0.30341051827E+02 -0.15140354220E+02 -0.97713468927E+01  0.35288652174E+02  0.51100000000E-03 0.  1.
         12    1    3    3    0    0  0.38150831439E+01 -0.37219550796E+01  0.20359730680E+02  0.21045817693E+02  0.00000000000E+00 0. -1.
</event>
<event>
 7    1  0.2932741E-013  0.7246158E+02  0.7816164E-02  0.1226708E+00
        -11   -1    0    0    0    0  0.00000000000E+00  0.00000000000E+00  0.45593999997E+02  0.45594000000E+02  0.51100000000E-03 0. -1.
         11   -1    0    0    0    0 -0.00000000000E+00 -0.00000000000E+00 -0.45593999997E+02  0.45594000000E+02  0.51100000000E-03 0.  1.
    9900012    2    1    2    0    0 -0.15087940760E+02  0.95420551032E+01  0.56552583878E+01  0.72461582312E+02  0.70000015656E+02 0.  0.
         12    1    1    2    0    0  0.15087940760E+02 -0.95420551032E+01 -0.56552583878E+01  0.18726417688E+02  0.00000000000E+00 0. -1.
         11    1    3    3    0    0 -0.17435490989E+02 -0.84634197981E+01  0.21150633763E+02  0.28687543107E+02  0.51100000000E-03 0. -1.
        -11    1    3    3    0    0  0.33663132634E+01  0.85517788934E+01  0.11749874773E+02  0.14917256607E+02  0.51100000000E-03 0.  1.
        -12    1    3    3    0    0 -0.10187630346E+01  0.94536960078E+01 -0.27245250148E+02  0.28856782598E+02  0.00000000000E+00 0.  1.
</event>
<event>
 7    1  0.2932741E-013  0.7246156E+02  0.7816164E-02  0.1226708E+00
        -11   -1    0    0    0    0  0.00000000000E+00  0.00000000000E+00  0.45593999997E+02  0.45594000000E+02  0.51100000000E-03 0.  1.
         11   -1    0    0    0    0 -0.00000000000E+00 -0.00000000000E+00 -0.45593999997E+02  0.45594000000E+02  0.51100000000E-03 0. -1.
    9900012    2    1    2    0    0  0.17035689134E+02 -0.32142417810E+01  0.70804916642E+01  0.72461563695E+02  0.69999991403E+02 0.  0.
         12    1    1    2    0    0 -0.17035689134E+02  0.32142417810E+01 -0.70804916642E+01  0.18726436305E+02  0.00000000000E+00 0. -1.
         11    1    3    3    0    0  0.14524807185E+02 -0.13286583141E+02 -0.12542704802E+02  0.23341438673E+02  0.51100000000E-03 0. -1.
        -11    1    3    3    0    0 -0.17088577452E+02 -0.44473797075E+01  0.17129453930E+02  0.24601155619E+02  0.51100000000E-03 0.  1.
         12    1    3    3    0    0  0.19599459401E+02  0.14519721068E+02  0.24937425369E+01  0.24518969402E+02  0.00000000000E+00 0. -1.
</event>
<event>
 7    1  0.2932741E-013  0.7246155E+02  0.7816164E-02  0.1226708E+00
        -11   -1    0    0    0    0  0.00000000000E+00  0.00000000000E+00  0.45593999997E+02  0.45594000000E+02  0.51100000000E-03 0.  1.
         11   -1    0    0    0    0 -0.00000000000E+00 -0.00000000000E+00 -0.45593999997E+02  0.45594000000E+02  0.51100000000E-03 0. -1.
    9900012    2    1    2    0    0 -0.57635750377E+01  0.14616920087E+02 -0.10188556952E+02  0.72461552317E+02  0.69999976582E+02 0.  0.
         12    1    1    2    0    0  0.57635750377E+01 -0.14616920087E+02  0.10188556952E+02  0.18726447683E+02  0.00000000000E+00 0. -1.
         11    1    3    3    0    0 -0.10823039466E+02  0.75595683773E+01 -0.10442768237E+02  0.16832607226E+02  0.51100000000E-03 0. -1.
        -11    1    3    3    0    0  0.12206843599E+02  0.28251613577E+02 -0.79811817298E+01  0.31794024005E+02  0.51100000000E-03 0.  1.
         12    1    3    3    0    0 -0.71473791701E+01 -0.21194261867E+02  0.82353930139E+01  0.23834921087E+02  0.00000000000E+00 0. -1.
</event>
<event>
 7    1  0.2932741E-013  0.7246154E+02  0.7816164E-02  0.1226708E+00
        -11   -1    0    0    0    0  0.00000000000E+00  0.00000000000E+00  0.45593999997E+02  0.45594000000E+02  0.51100000000E-03 0. -1.
         11   -1    0    0    0    0 -0.00000000000E+00 -0.00000000000E+00 -0.45593999997E+02  0.45594000000E+02  0.51100000000E-03 0.  1.
    9900012    2    1    2    0    0 -0.13384063629E+02 -0.13081982351E+02  0.63947326676E+00  0.72461538841E+02  0.69999959027E+02 0.  0.
         12    1    1    2    0    0  0.13384063629E+02  0.13081982351E+02 -0.63947326676E+00  0.18726461159E+02  0.00000000000E+00 0. -1.
         11    1    3    3    0    0 -0.12514044440E+02 -0.11073895002E+02  0.63620190214E+01  0.17880373180E+02  0.51100000000E-03 0. -1.
        -11    1    3    3    0    0  0.75280978427E-01 -0.21425889316E+02 -0.20889420134E+02  0.29923941485E+02  0.51100000000E-03 0.  1.
         12    1    3    3    0    0 -0.94530016730E+00  0.19417801967E+02  0.15166874379E+02  0.24657224176E+02  0.00000000000E+00 0. -1.
</event>
<event>
 7    1  0.2932741E-013  0.7246161E+02  0.7816164E-02  0.1226708E+00
        -11   -1    0    0    0    0  0.00000000000E+00  0.00000000000E+00  0.45593999997E+02  0.45594000000E+02  0.51100000000E-03 0.  1.
         11   -1    0    0    0    0 -0.00000000000E+00 -0.00000000000E+00 -0.45593999997E+02  0.45594000000E+02  0.51100000000E-03 0. -1.
    9900012    2    1    2    0    0  0.87294152827E+01 -0.13132651309E+02  0.10099922996E+02  0.72461610436E+02  0.70000052292E+02 0.  0.
         12    1    1    2    0    0 -0.87294152827E+01  0.13132651309E+02 -0.10099922996E+02  0.18726389564E+02  0.00000000000E+00 0. -1.
         11    1    3    3    0    0  0.50244396883E+01 -0.63554496311E+01  0.16537014441E+02  0.18414928213E+02  0.51100000000E-03 0. -1.
        -11    1    3    3    0    0 -0.10258480933E+02 -0.24398510135E+01  0.20694448897E+02  0.23226052601E+02  0.51100000000E-03 0.  1.
         12    1    3    3    0    0  0.13963456527E+02 -0.43373506642E+01 -0.27131540342E+02  0.30820629622E+02  0.00000000000E+00 0. -1.
</event>
<event>
 7    1  0.2932741E-013  0.7246156E+02  0.7816164E-02  0.1226708E+00
        -11   -1    0    0    0    0  0.00000000000E+00  0.00000000000E+00  0.45593999997E+02  0.45594000000E+02  0.51100000000E-03 0.  1.
         11   -1    0    0    0    0 -0.00000000000E+00 -0.00000000000E+00 -0.45593999997E+02  0.45594000000E+02  0.51100000000E-03 0. -1.
    9900012    2    1    2    0    0  0.17220343714E+02  0.72543710402E+01  0.12301550461E+01  0.72461563653E+02  0.69999991349E+02 0.  0.
         12    1    1    2    0    0 -0.17220343714E+02 -0.72543710402E+01 -0.12301550461E+01  0.18726436347E+02  0.00000000000E+00 0. -1.
         11    1    3    3    0    0 -0.10448737182E+02  0.16711215369E+02 -0.55637258805E+01  0.20479157057E+02  0.51100000000E-03 0. -1.
        -11    1    3    3    0    0 -0.43225268592E+01  0.80757362549E+01  0.12037891433E+02  0.15126552314E+02  0.51100000000E-03 0.  1.
         12    1    3    3    0    0  0.31991607755E+02 -0.17532580584E+02 -0.52440105060E+01  0.36855854282E+02  0.00000000000E+00 0. -1.
</event>
<event>
 7    1  0.2932741E-013  0.7246157E+02  0.7816164E-02  0.1226708E+00
        -11   -1    0    0    0    0  0.00000000000E+00  0.00000000000E+00  0.45593999997E+02  0.45594000000E+02  0.51100000000E-03 0.  1.
         11   -1    0    0    0    0 -0.00000000000E+00 -0.00000000000E+00 -0.45593999997E+02  0.45594000000E+02  0.51100000000E-03 0. -1.
    9900012    2    1    2    0    0 -0.13487293836E+02  0.60726444324E+01  0.11484551096E+02  0.72461574306E+02  0.70000005226E+02 0.  0.
         12    1    1    2    0    0  0.13487293836E+02 -0.60726444324E+01 -0.11484551096E+02  0.18726425694E+02  0.00000000000E+00 0. -1.
         11    1    3    3    0    0  0.11125618050E+02 -0.18898794765E+02  0.22733786778E+02  0.31587479832E+02  0.51100000000E-03 0. -1.
        -11    1    3    3    0    0  0.20112270323E+01  0.42265958025E+01  0.13110206757E+01  0.48608560693E+01  0.51100000000E-03 0.  1.
         12    1    3    3    0    0 -0.26624138918E+02  0.20744843395E+02 -0.12560256358E+02  0.36013238405E+02  0.00000000000E+00 0. -1.
</event>
<event>
 7    1  0.2932741E-013  0.7246156E+02  0.7816164E-02  0.1226708E+00
        -11   -1    0    0    0    0  0.00000000000E+00  0.00000000000E+00  0.45593999997E+02  0.45594000000E+02  0.51100000000E-03 0.  1.
         11   -1    0    0    0    0 -0.00000000000E+00 -0.00000000000E+00 -0.45593999997E+02  0.45594000000E+02  0.51100000000E-03 0. -1.
    9900012    2    1    2    0    0  0.10280163363E+02  0.60035569826E+01  0.14455281610E+02  0.72461558223E+02  0.69999984275E+02 0.  0.
         12    1    1    2    0    0 -0.10280163363E+02 -0.60035569826E+01 -0.14455281610E+02  0.18726441777E+02  0.00000000000E+00 0. -1.
         11    1    3    3    0    0  0.38559480914E+01 -0.24322854553E+01 -0.20483755978E+02  0.20984961459E+02  0.51100000000E-03 0. -1.
        -11    1    3    3    0    0  0.14155241614E+02  0.12125348878E+02  0.35937225708E+01  0.18981827961E+02  0.51100000000E-03 0.  1.
        -12    1    3    3    0    0 -0.77310263424E+01 -0.36895064397E+01  0.31345315017E+02  0.32494768803E+02  0.00000000000E+00 0.  1.
</event>
<event>
 7    1  0.2932741E-013  0.7246149E+02  0.7816164E-02  0.1226708E+00
        -11   -1    0    0    0    0  0.00000000000E+00  0.00000000000E+00  0.45593999997E+02  0.45594000000E+02  0.51100000000E-03 0. -1.
         11   -1    0    0    0    0 -0.00000000000E+00 -0.00000000000E+00 -0.45593999997E+02  0.45594000000E+02  0.51100000000E-03 0.  1.
    9900012    2    1    2    0    0  0.63641900289E+01 -0.14989635127E+02 -0.92460811556E+01  0.72461492245E+02  0.69999898326E+02 0.  0.
         12    1    1    2    0    0 -0.63641900289E+01  0.14989635127E+02  0.92460811556E+01  0.18726507755E+02  0.00000000000E+00 0. -1.
         11    1    3    3    0    0  0.15627514590E+02 -0.46792126034E+01 -0.85777621862E+01  0.18430741906E+02  0.51100000000E-03 0. -1.
        -11    1    3    3    0    0  0.13731467999E+02  0.44854118070E+01 -0.16899836748E+02  0.22232332646E+02  0.51100000000E-03 0.  1.
         12    1    3    3    0    0 -0.22994792560E+02 -0.14795834330E+02  0.16231517779E+02  0.31798417693E+02  0.00000000000E+00 0. -1.
</event>
<event>
 7    1  0.2932741E-013  0.7246156E+02  0.7816164E-02  0.1226708E+00
        -11   -1    0    0    0    0  0.00000000000E+00  0.00000000000E+00  0.45593999997E+02  0.45594000000E+02  0.51100000000E-03 0. -1.
         11   -1    0    0    0    0 -0.00000000000E+00 -0.00000000000E+00 -0.45593999997E+02  0.45594000000E+02  0.51100000000E-03 0.  1.
    9900012    2    1    2    0    0  0.28812048947E+01 -0.48539714107E+01 -0.17855450218E+02  0.72461561935E+02  0.69999989110E+02 0.  0.
         12    1    1    2    0    0 -0.28812048947E+01  0.48539714107E+01  0.17855450218E+02  0.18726438065E+02  0.00000000000E+00 0. -1.
         11    1    3    3    0    0 -0.80747403376E+01  0.23047295472E+02  0.12209747996E+02  0.27303062218E+02  0.51100000000E-03 0. -1.
        -11    1    3    3    0    0 -0.22969471663E+01 -0.22363094923E+01  0.33593223683E+00  0.32233363397E+01  0.51100000000E-03 0.  1.
        -12    1    3    3    0    0  0.13252892399E+02 -0.25664957390E+02 -0.30401130451E+02  0.41935163377E+02  0.00000000000E+00 0.  1.
</event>
<event>
 7    1  0.2932741E-013  0.7246158E+02  0.7816164E-02  0.1226708E+00
        -11   -1    0    0    0    0  0.00000000000E+00  0.00000000000E+00  0.45593999997E+02  0.45594000000E+02  0.51100000000E-03 0.  1.
         11   -1    0    0    0    0 -0.00000000000E+00 -0.00000000000E+00 -0.45593999997E+02  0.45594000000E+02  0.51100000000E-03 0. -1.
    9900012    2    1    2    0    0  0.98398343612E+01  0.15884613036E+02 -0.12392169160E+01  0.72461576686E+02  0.70000008327E+02 0.  0.
         12    1    1    2    0    0 -0.98398343612E+01 -0.15884613036E+02  0.12392169160E+01  0.18726423314E+02  0.00000000000E+00 0. -1.
         11    1    3    3    0    0 -0.17086849645E+02 -0.36010680616E+01  0.74701412337E+01  0.18992923216E+02  0.51100000000E-03 0. -1.
        -11    1    3    3    0    0  0.45506575413E+01  0.19938846977E+02  0.11371055307E+02  0.23400149612E+02  0.51100000000E-03 0.  1.
        -12    1    3    3    0    0  0.22376026465E+02 -0.45316587896E+00 -0.20080413457E+02  0.30068503858E+02  0.00000000000E+00 0.  1.
</event>
<event>
 7    1  0.3121037E-013  0.7246162E+02  0.7816164E-02  0.1226708E+00
        -11   -1    0    0    0    0  0.00000000000E+00  0.00000000000E+00  0.45593999997E+02  0.45594000000E+02  0.51100000000E-03 0.  1.
         11   -1    0    0    0    0 -0.00000000000E+00 -0.00000000000E+00 -0.45593999997E+02  0.45594000000E+02  0.51100000000E-03 0. -1.
    9900012    2    1    2    0    0  0.25683020323E+01 -0.16162823535E+02 -0.91018792965E+01  0.72461621634E+02  0.70000066880E+02 0.  0.
         12    1    1    2    0    0 -0.25683020323E+01  0.16162823535E+02  0.91018792965E+01  0.18726378366E+02  0.00000000000E+00 0. -1.
         11    1    3    3    0    0  0.77614050815E+00  0.65543306914E+01  0.22296446645E+02  0.23252810113E+02  0.51100000000E-03 0. -1.
        -11    1    3    3    0    0 -0.10777905551E+02  0.72662972565E+00 -0.56648830934E+01  0.12197628439E+02  0.51100000000E-03 0.  1.
        -12    1    3    3    0    0  0.12570067075E+02 -0.23443783953E+02 -0.25733442848E+02  0.37011183082E+02  0.00000000000E+00 0.  1.
</event>
<event>
 7    1  0.2932741E-013  0.7246155E+02  0.7816164E-02  0.1226708E+00
        -11   -1    0    0    0    0  0.00000000000E+00  0.00000000000E+00  0.45593999997E+02  0.45594000000E+02  0.51100000000E-03 0.  1.
         11   -1    0    0    0    0 -0.00000000000E+00 -0.00000000000E+00 -0.45593999997E+02  0.45594000000E+02  0.51100000000E-03 0. -1.
    9900012    2    1    2    0    0 -0.11923083479E+02 -0.62115284395E+01  0.13035988087E+02  0.72461548371E+02  0.69999971441E+02 0.  0.
         12    1    1    2    0    0  0.11923083479E+02  0.62115284395E+01 -0.13035988087E+02  0.18726451629E+02  0.00000000000E+00 0. -1.
         11    1    3    3    0    0  0.33944342841E+01  0.18497161448E+01  0.48051202749E+01  0.61670750801E+01  0.51100000000E-03 0. -1.
        -11    1    3    3    0    0 -0.41275862955E+01  0.21198192473E+02  0.23096204764E+02  0.31620167734E+02  0.51100000000E-03 0.  1.
         12    1    3    3    0    0 -0.11189931468E+02 -0.29259437058E+02 -0.14865336952E+02  0.34674305557E+02  0.00000000000E+00 0. -1.
</event>
<event>
 7    1  0.2932741E-013  0.7246164E+02  0.7816164E-02  0.1226708E+00
        -11   -1    0    0    0    0  0.00000000000E+00  0.00000000000E+00  0.45593999997E+02  0.45594000000E+02  0.51100000000E-03 0. -1.
         11   -1    0    0    0    0 -0.00000000000E+00 -0.00000000000E+00 -0.45593999997E+02  0.45594000000E+02  0.51100000000E-03 0.  1.
    9900012    2    1    2    0    0  0.17009118494E+02 -0.19454630361E+00  0.78312612426E+01  0.72461638558E+02  0.70000088926E+02 0.  0.
         12    1    1    2    0    0 -0.17009118494E+02  0.19454630361E+00 -0.78312612426E+01  0.18726361442E+02  0.00000000000E+00 0. -1.
         11    1    3    3    0    0 -0.50654821268E+01 -0.23541727984E+02 -0.91469474386E+01  0.25759245201E+02  0.51100000000E-03 0. -1.
        -11    1    3    3    0    0  0.16772620128E+02 -0.11615191119E+01  0.13131944425E+02  0.21333491914E+02  0.51100000000E-03 0.  1.
        -12    1    3    3    0    0  0.53019804929E+01  0.24508700792E+02  0.38462642557E+01  0.25368901442E+02  0.00000000000E+00 0.  1.
</event>
<event>
 7    1  0.2932741E-013  0.7246152E+02  0.7816164E-02  0.1226708E+00
        -11   -1    0    0    0    0  0.00000000000E+00  0.00000000000E+00  0.45593999997E+02  0.45594000000E+02  0.51100000000E-03 0. -1.
         11   -1    0    0    0    0 -0.00000000000E+00 -0.00000000000E+00 -0.45593999997E+02  0.45594000000E+02  0.51100000000E-03 0.  1.
    9900012    2    1    2    0    0 -0.11807128388E+01 -0.18685564912E+02  0.36985100650E+00  0.72461515849E+02  0.69999929075E+02 0.  0.
         12    1    1    2    0    0  0.11807128388E+01  0.18685564912E+02 -0.36985100650E+00  0.18726484151E+02  0.00000000000E+00 0. -1.
         11    1    3    3    0    0  0.14689662191E+01  0.31767909200E+01  0.21880261259E+02  0.22158422673E+02  0.51100000000E-03 0. -1.
        -11    1    3    3    0    0  0.18083379735E+02 -0.11715958447E+02 -0.55826641536E+01  0.22258446583E+02  0.51100000000E-03 0.  1.
         12    1    3    3    0    0 -0.20733058793E+02 -0.10146397385E+02 -0.15927746099E+02  0.28044646594E+02  0.00000000000E+00 0. -1.
</event>
<event>
 7    1  0.2932741E-013  0.7246164E+02  0.7816164E-02  0.1226708E+00
        -11   -1    0    0    0    0  0.00000000000E+00  0.00000000000E+00  0.45593999997E+02  0.45594000000E+02  0.51100000000E-03 0. -1.
         11   -1    0    0    0    0 -0.00000000000E+00 -0.00000000000E+00 -0.45593999997E+02  0.45594000000E+02  0.51100000000E-03 0.  1.
    9900012    2    1    2    0    0 -0.15913761370E+01  0.10071814870E+02 -0.15706772105E+02  0.72461638294E+02  0.70000088583E+02 0.  0.
         12    1    1    2    0    0  0.15913761370E+01 -0.10071814870E+02  0.15706772105E+02  0.18726361706E+02  0.00000000000E+00 0. -1.
         11    1    3    3    0    0  0.26418066387E+02  0.51618922264E+01  0.36033744314E+01  0.27157755256E+02  0.51100000000E-03 0. -1.
        -11    1    3    3    0    0  0.41707791698E+01  0.73550085824E+01 -0.20287377162E+01  0.86952473865E+01  0.51100000000E-03 0.  1.
        -12    1    3    3    0    0 -0.32180221694E+02 -0.24450859392E+01 -0.17281408820E+02  0.36608635652E+02  0.00000000000E+00 0.  1.
</event>
<event>
 7    1  0.2932741E-013  0.7246161E+02  0.7816164E-02  0.1226708E+00
        -11   -1    0    0    0    0  0.00000000000E+00  0.00000000000E+00  0.45593999997E+02  0.45594000000E+02  0.51100000000E-03 0.  1.
         11   -1    0    0    0    0 -0.00000000000E+00 -0.00000000000E+00 -0.45593999997E+02  0.45594000000E+02  0.51100000000E-03 0. -1.
    9900012    2    1    2    0    0  0.14103521281E+02 -0.49496257526E+01 -0.11281378927E+02  0.72461611718E+02  0.70000053962E+02 0.  0.
         12    1    1    2    0    0 -0.14103521281E+02  0.49496257526E+01  0.11281378927E+02  0.18726388282E+02  0.00000000000E+00 0. -1.
         11    1    3    3    0    0 -0.51252652090E+01 -0.99305368249E+01  0.21351077633E+01  0.11377283969E+02  0.51100000000E-03 0. -1.
        -11    1    3    3    0    0 -0.65278541140E+01  0.14346378555E+02  0.14890967703E+02  0.21683458589E+02  0.51100000000E-03 0.  1.
         12    1    3    3    0    0  0.25756640604E+02 -0.93654674828E+01 -0.28307454393E+02  0.39400869160E+02  0.00000000000E+00 0. -1.
</event>
<event>
 7    1  0.2932741E-013  0.7246158E+02  0.7816164E-02  0.1226708E+00
        -11   -1    0    0    0    0  0.00000000000E+00  0.00000000000E+00  0.45593999997E+02  0.45594000000E+02  0.51100000000E-03 0. -1.
         11   -1    0    0    0    0 -0.00000000000E+00 -0.00000000000E+00 -0.45593999997E+02  0.45594000000E+02  0.51100000000E-03 0.  1.
    9900012    2    1    2    0    0  0.76479424811E+01 -0.87129745664E+01 -0.14706181582E+02  0.72461582118E+02  0.70000015402E+02 0.  0.
         12    1    1    2    0    0 -0.76479424811E+01  0.87129745664E+01  0.14706181582E+02  0.18726417882E+02  0.00000000000E+00 0. -1.
         11    1    3    3    0    0 -0.74581763672E+01 -0.48666070847E+01 -0.98803967306E+01  0.13301522434E+02  0.51100000000E-03 0. -1.
        -11    1    3    3    0    0  0.25690020521E+02 -0.12252708861E+02 -0.22941980231E+02  0.36557358849E+02  0.51100000000E-03 0.  1.
         12    1    3    3    0    0 -0.10583901673E+02  0.84063413791E+01  0.18116195380E+02  0.22602700835E+02  0.00000000000E+00 0. -1.
</event>
<event>
 7    1  0.2932741E-013  0.7246157E+02  0.7816164E-02  0.1226708E+00
        -11   -1    0    0    0    0  0.00000000000E+00  0.00000000000E+00  0.45593999997E+02  0.45594000000E+02  0.51100000000E-03 0.  1.
         11   -1    0    0    0    0 -0.00000000000E+00 -0.00000000000E+00 -0.45593999997E+02  0.45594000000E+02  0.51100000000E-03 0. -1.
    9900012    2    1    2    0    0  0.52735329205E+01 -0.25842191074E+01  0.17781753658E+02  0.72461572124E+02  0.70000002383E+02 0.  0.
         12    1    1    2    0    0 -0.52735329205E+01  0.25842191074E+01 -0.17781753658E+02  0.18726427876E+02  0.00000000000E+00 0. -1.
         11    1    3    3    0    0  0.94915939732E+01 -0.20687480741E+01 -0.12755578692E+02  0.16033554278E+02  0.51100000000E-03 0. -1.
        -11    1    3    3    0    0  0.17512058642E+02  0.10540396712E+02  0.23302186644E+02  0.30996194338E+02  0.51100000000E-03 0.  1.
         12    1    3    3    0    0 -0.21730119695E+02 -0.11055867746E+02  0.72351457054E+01  0.25431823508E+02  0.00000000000E+00 0. -1.
</event>
<event>
 7    1  0.2932741E-013  0.7246159E+02  0.7816164E-02  0.1226708E+00
        -11   -1    0    0    0    0  0.00000000000E+00  0.00000000000E+00  0.45593999997E+02  0.45594000000E+02  0.51100000000E-03 0. -1.
         11   -1    0    0    0    0 -0.00000000000E+00 -0.00000000000E+00 -0.45593999997E+02  0.45594000000E+02  0.51100000000E-03 0.  1.
    9900012    2    1    2    0    0  0.16632312691E+02 -0.34921420626E+01 -0.78644455990E+01  0.72461591208E+02  0.70000027245E+02 0.  0.
         12    1    1    2    0    0 -0.16632312691E+02  0.34921420626E+01  0.78644455990E+01  0.18726408792E+02  0.00000000000E+00 0. -1.
         11    1    3    3    0    0  0.69528818278E+01  0.17646558019E+02  0.19144097314E+02  0.26948841123E+02  0.51100000000E-03 0. -1.
        -11    1    3    3    0    0  0.15096414728E+02 -0.72219689739E+01 -0.26538670885E+01  0.16944072246E+02  0.51100000000E-03 0.  1.
         12    1    3    3    0    0 -0.54169838646E+01 -0.13916731108E+02 -0.24354675825E+02  0.28568677839E+02  0.00000000000E+00 0. -1.
</event>
<event>
 7    1  0.2932741E-013  0.7246143E+02  0.7816164E-02  0.1226708E+00
        -11   -1    0    0    0    0  0.00000000000E+00  0.00000000000E+00  0.45593999997E+02  0.45594000000E+02  0.51100000000E-03 0. -1.
         11   -1    0    0    0    0 -0.00000000000E+00 -0.00000000000E+00 -0.45593999997E+02  0.45594000000E+02  0.51100000000E-03 0.  1.
    9900012    2    1    2    0    0 -0.76610499618E+01  0.15778875489E+02  0.65589420882E+01  0.72461432788E+02  0.69999820872E+02 0.  0.
         12    1    1    2    0    0  0.76610499618E+01 -0.15778875489E+02 -0.65589420882E+01  0.18726567212E+02  0.00000000000E+00 0. -1.
         11    1    3    3    0    0 -0.18208649360E+02  0.93710757896E+01  0.32812521020E+02  0.38678592386E+02  0.51100000000E-03 0. -1.
        -11    1    3    3    0    0  0.31495811903E+01  0.72575069532E+01 -0.16561987987E+01  0.80829613121E+01  0.51100000000E-03 0.  1.
        -12    1    3    3    0    0  0.73980182079E+01 -0.84970725353E+00 -0.24597380134E+02  0.25699879090E+02  0.00000000000E+00 0.  1.
</event>
<event>
 7    1  0.2932741E-013  0.7246158E+02  0.7816164E-02  0.1226708E+00
        -11   -1    0    0    0    0  0.00000000000E+00  0.00000000000E+00  0.45593999997E+02  0.45594000000E+02  0.51100000000E-03 0.  1.
         11   -1    0    0    0    0 -0.00000000000E+00 -0.00000000000E+00 -0.45593999997E+02  0.45594000000E+02  0.51100000000E-03 0. -1.
    9900012    2    1    2    0    0  0.15398983856E+02  0.46181486481E+01 -0.96032753041E+01  0.72461577562E+02  0.70000009468E+02 0.  0.
         12    1    1    2    0    0 -0.15398983856E+02 -0.46181486481E+01  0.96032753041E+01  0.18726422438E+02  0.00000000000E+00 0. -1.
         11    1    3    3    0    0  0.17293117568E+01  0.80757516275E+00 -0.84880060443E+01  0.86999392909E+01  0.51100000000E-03 0. -1.
        -11    1    3    3    0    0  0.28503118691E+02  0.10688681903E+02 -0.21765504925E+02  0.37422091081E+02  0.51100000000E-03 0.  1.
         12    1    3    3    0    0 -0.14833446592E+02 -0.68781084178E+01  0.20650235665E+02  0.26339547191E+02  0.00000000000E+00 0. -1.
</event>
<event>
 7    1  0.2932741E-013  0.7246153E+02  0.7816164E-02  0.1226708E+00
        -11   -1    0    0    0    0  0.00000000000E+00  0.00000000000E+00  0.45593999997E+02  0.45594000000E+02  0.51100000000E-03 0.  1.
         11   -1    0    0    0    0 -0.00000000000E+00 -0.00000000000E+00 -0.45593999997E+02  0.45594000000E+02  0.51100000000E-03 0. -1.
    9900012    2    1    2    0    0 -0.17709890996E+02  0.43289699966E+01  0.42778909821E+01  0.72461532859E+02  0.69999951234E+02 0.  0.
         12    1    1    2    0    0  0.17709890996E+02 -0.43289699966E+01 -0.42778909821E+01  0.18726467141E+02  0.00000000000E+00 0. -1.
         11    1    3    3    0    0 -0.28419436158E+02  0.79475761360E+01 -0.11816231346E+01  0.29533448012E+02  0.51100000000E-03 0. -1.
        -11    1    3    3    0    0 -0.57464571139E+01  0.74157371377E+01  0.17419428647E+02  0.19785131319E+02  0.51100000000E-03 0.  1.
         12    1    3    3    0    0  0.16456002276E+02 -0.11034343277E+02 -0.11959914530E+02  0.23142953529E+02  0.00000000000E+00 0. -1.
</event>
<event>
 7    1  0.2932741E-013  0.7246156E+02  0.7816164E-02  0.1226708E+00
        -11   -1    0    0    0    0  0.00000000000E+00  0.00000000000E+00  0.45593999997E+02  0.45594000000E+02  0.51100000000E-03 0. -1.
         11   -1    0    0    0    0 -0.00000000000E+00 -0.00000000000E+00 -0.45593999997E+02  0.45594000000E+02  0.51100000000E-03 0.  1.
    9900012    2    1    2    0    0 -0.15572933080E+02  0.95591126875E+01  0.40971488663E+01  0.72461561233E+02  0.69999988195E+02 0.  0.
         12    1    1    2    0    0  0.15572933080E+02 -0.95591126875E+01 -0.40971488663E+01  0.18726438767E+02  0.00000000000E+00 0. -1.
         11    1    3    3    0    0 -0.10686882764E+02  0.22618133246E+02 -0.10174265844E+00  0.25015990218E+02  0.51100000000E-03 0. -1.
        -11    1    3    3    0    0 -0.17796246789E+02  0.68037417156E+01 -0.81593525539E+01  0.20726126881E+02  0.51100000000E-03 0.  1.
         12    1    3    3    0    0  0.12910196473E+02 -0.19862762274E+02  0.12358244079E+02  0.26719444134E+02  0.00000000000E+00 0. -1.
</event>
<event>
 7    1  0.2932741E-013  0.7246159E+02  0.7816164E-02  0.1226708E+00
        -11   -1    0    0    0    0  0.00000000000E+00  0.00000000000E+00  0.45593999997E+02  0.45594000000E+02  0.51100000000E-03 0.  1.
         11   -1    0    0    0    0 -0.00000000000E+00 -0.00000000000E+00 -0.45593999997E+02  0.45594000000E+02  0.51100000000E-03 0. -1.
    9900012    2    1    2    0    0  0.13243294636E+02 -0.10810843846E+02  0.76432426678E+01  0.72461592017E+02  0.70000028297E+02 0.  0.
         12    1    1    2    0    0 -0.13243294636E+02  0.10810843846E+02 -0.76432426678E+01  0.18726407983E+02  0.00000000000E+00 0. -1.
         11    1    3    3    0    0 -0.51342942926E+01 -0.69148227208E+01 -0.20209880939E+02  0.21968501063E+02  0.51100000000E-03 0. -1.
        -11    1    3    3    0    0 -0.94926577611E+01 -0.87832631836E+01  0.13754523253E+02  0.18879702691E+02  0.51100000000E-03 0.  1.
        -12    1    3    3    0    0  0.27870246690E+02  0.48872420583E+01  0.14098600354E+02  0.31613388262E+02  0.00000000000E+00 0.  1.
</event>
<event>
 7    1  0.2932741E-013  0.7246162E+02  0.7816164E-02  0.1226708E+00
        -11   -1    0    0    0    0  0.00000000000E+00  0.00000000000E+00  0.45593999997E+02  0.45594000000E+02  0.51100000000E-03 0. -1.
         11   -1    0    0    0    0 -0.00000000000E+00 -0.00000000000E+00 -0.45593999997E+02  0.45594000000E+02  0.51100000000E-03 0.  1.
    9900012    2    1    2    0    0  0.65456033429E+01  0.14713769390E+02 -0.95570514033E+01  0.72461623834E+02  0.70000069745E+02 0.  0.
         12    1    1    2    0    0 -0.65456033429E+01 -0.14713769390E+02  0.95570514033E+01  0.18726376166E+02  0.00000000000E+00 0. -1.
         11    1    3    3    0    0 -0.23836858699E+00  0.28147219046E+02 -0.12862933403E+02  0.30947985647E+02  0.51100000000E-03 0. -1.
        -11    1    3    3    0    0  0.86430736346E+01  0.61284154685E+01 -0.12434677282E+02  0.16336505054E+02  0.51100000000E-03 0.  1.
         12    1    3    3    0    0 -0.18591017047E+01 -0.19561865125E+02  0.15740559281E+02  0.25177133133E+02  0.00000000000E+00 0. -1.
</event>
<event>
 7    1  0.2932741E-013  0.7246152E+02  0.7816164E-02  0.1226708E+00
        -11   -1    0    0    0    0  0.00000000000E+00  0.00000000000E+00  0.45593999997E+02  0.45594000000E+02  0.51100000000E-03 0.  1.
         11   -1    0    0    0    0 -0.00000000000E+00 -0.00000000000E+00 -0.45593999997E+02  0.45594000000E+02  0.51100000000E-03 0. -1.
    9900012    2    1    2    0    0  0.15776454021E+02  0.84092714860E+01  0.55739187296E+01  0.72461523599E+02  0.69999939170E+02 0.  0.
         12    1    1    2    0    0 -0.15776454021E+02 -0.84092714860E+01 -0.55739187296E+01  0.18726476401E+02  0.00000000000E+00 0. -1.
         11    1    3    3    0    0  0.19447151580E+02 -0.21570520168E+02 -0.60918352133E+01  0.29674728329E+02  0.51100000000E-03 0. -1.
        -11    1    3    3    0    0  0.27036088196E+01 -0.35989085363E+01 -0.31924752279E+01  0.55184727637E+01  0.51100000000E-03 0.  1.
        -12    1    3    3    0    0 -0.63743063780E+01  0.33578700191E+02  0.14858229171E+02  0.37268322506E+02  0.00000000000E+00 0.  1.
</event>
<event>
 7    1  0.2932741E-013  0.7246155E+02  0.7816164E-02  0.1226708E+00
        -11   -1    0    0    0    0  0.00000000000E+00  0.00000000000E+00  0.45593999997E+02  0.45594000000E+02  0.51100000000E-03 0.  1.
         11   -1    0    0    0    0 -0.00000000000E+00 -0.00000000000E+00 -0.45593999997E+02  0.45594000000E+02  0.51100000000E-03 0. -1.
    9900012    2    1    2    0    0 -0.17427375449E+01 -0.11923234369E+02  0.14334551956E+02  0.72461547273E+02  0.69999970010E+02 0.  0.
         12    1    1    2    0    0  0.17427375449E+01  0.11923234369E+02 -0.14334551956E+02  0.18726452727E+02  0.00000000000E+00 0. -1.
         11    1    3    3    0    0 -0.20546050801E+02 -0.23212878170E+02  0.20968721116E+02  0.37425461680E+02  0.51100000000E-03 0. -1.
        -11    1    3    3    0    0  0.14822807204E+02 -0.54626448328E+01  0.17329235063E+01  0.15892108926E+02  0.51100000000E-03 0.  1.
        -12    1    3    3    0    0  0.39805060522E+01  0.16752288634E+02 -0.83670926665E+01  0.19143976666E+02  0.00000000000E+00 0.  1.
</event>
<event>
 7    1  0.2932741E-013  0.7246156E+02  0.7816164E-02  0.1226708E+00
        -11   -1    0    0    0    0  0.00000000000E+00  0.00000000000E+00  0.45593999997E+02  0.45594000000E+02  0.51100000000E-03 0. -1.
         11   -1    0    0    0    0 -0.00000000000E+00 -0.00000000000E+00 -0.45593999997E+02  0.45594000000E+02  0.51100000000E-03 0.  1.
    9900012    2    1    2    0    0  0.18019157647E+02  0.14054638013E+01 -0.49004322718E+01  0.72461558606E+02  0.69999984774E+02 0.  0.
         12    1    1    2    0    0 -0.18019157647E+02 -0.14054638013E+01  0.49004322718E+01  0.18726441394E+02  0.00000000000E+00 0. -1.
         11    1    3    3    0    0  0.67902259191E-01  0.10846089587E+01  0.52601044641E+01  0.53711904215E+01  0.51100000000E-03 0. -1.
        -11    1    3    3    0    0  0.10352869917E+02 -0.15484035006E+02  0.22989233664E+02  0.29587871169E+02  0.51100000000E-03 0.  1.
        -12    1    3    3    0    0  0.75983854713E+01  0.15804889849E+02 -0.33149770400E+02  0.37502497016E+02  0.00000000000E+00 0.  1.
</event>
<event>
 7    1  0.2932741E-013  0.7246158E+02  0.7816164E-02  0.1226708E+00
        -11   -1    0    0    0    0  0.00000000000E+00  0.00000000000E+00  0.45593999997E+02  0.45594000000E+02  0.51100000000E-03 0. -1.
         11   -1    0    0    0    0 -0.00000000000E+00 -0.00000000000E+00 -0.45593999997E+02  0.45594000000E+02  0.51100000000E-03 0.  1.
    9900012    2    1    2    0    0 -0.12422561602E+02 -0.12316226445E+02  0.66835079335E+01  0.72461581525E+02  0.70000014630E+02 0.  0.
         12    1    1    2    0    0  0.12422561602E+02  0.12316226445E+02 -0.66835079335E+01  0.18726418475E+02  0.00000000000E+00 0. -1.
         11    1    3    3    0    0  0.16316518185E+02 -0.22830846513E+02 -0.98119105128E+00  0.28079156938E+02  0.51100000000E-03 0. -1.
        -11    1    3    3    0    0  0.38339805039E-01 -0.32291495459E+01 -0.81638858359E+01  0.87794025385E+01  0.51100000000E-03 0.  1.
        -12    1    3    3    0    0 -0.28777419592E+02  0.13743769614E+02  0.15828584821E+02  0.35603022049E+02  0.00000000000E+00 0.  1.
</event>
<event>
 7    1  0.2932741E-013  0.7246153E+02  0.7816164E-02  0.1226708E+00
        -11   -1    0    0    0    0  0.00000000000E+00  0.00000000000E+00  0.45593999997E+02  0.45594000000E+02  0.51100000000E-03 0.  1.
         11   -1    0    0    0    0 -0.00000000000E+00 -0.00000000000E+00 -0.45593999997E+02  0.45594000000E+02  0.51100000000E-03 0. -1.
    9900012    2    1    2    0    0 -0.11573561149E+02 -0.10362478326E+02  0.10457161916E+02  0.72461534502E+02  0.69999953373E+02 0.  0.
         12    1    1    2    0    0  0.11573561149E+02  0.10362478326E+02 -0.10457161916E+02  0.18726465498E+02  0.00000000000E+00 0. -1.
         11    1    3    3    0    0  0.43494835451E+01  0.46405973395E+01  0.18799189957E+02  0.19845974254E+02  0.51100000000E-03 0. -1.
        -11    1    3    3    0    0 -0.13860123767E+02 -0.80268122806E+01  0.18694483911E+02  0.24617401877E+02  0.51100000000E-03 0.  1.
         12    1    3    3    0    0 -0.20629209278E+01 -0.69762633852E+01 -0.27036511953E+02  0.27998158371E+02  0.00000000000E+00 0. -1.
</event>
<event>
 7    1  0.2932741E-013  0.7246153E+02  0.7816164E-02  0.1226708E+00
        -11   -1    0    0    0    0  0.00000000000E+00  0.00000000000E+00  0.45593999997E+02  0.45594000000E+02  0.51100000000E-03 0.  1.
         11   -1    0    0    0    0 -0.00000000000E+00 -0.00000000000E+00 -0.45593999997E+02  0.45594000000E+02  0.51100000000E-03 0. -1.
    9900012    2    1    2    0    0  0.37494402295E+00 -0.18143188097E+02  0.46222012841E+01  0.72461532045E+02  0.69999950174E+02 0.  0.
         12    1    1    2    0    0 -0.37494402295E+00  0.18143188097E+02 -0.46222012841E+01  0.18726467955E+02  0.00000000000E+00 0. -1.
         11    1    3    3    0    0 -0.53722306437E+01  0.48212237196E+01 -0.40979011448E+01  0.83004731370E+01  0.51100000000E-03 0. -1.
        -11    1    3    3    0    0  0.13515009810E+02 -0.62589159128E+01  0.31511912460E+02  0.34854413575E+02  0.51100000000E-03 0.  1.
         12    1    3    3    0    0 -0.77678351429E+01 -0.16705495904E+02 -0.22791810031E+02  0.29306645333E+02  0.00000000000E+00 0. -1.
</event>
<event>
 7    1  0.2932741E-013  0.7246162E+02  0.7816164E-02  0.1226708E+00
        -11   -1    0    0    0    0  0.00000000000E+00  0.00000000000E+00  0.45593999997E+02  0.45594000000E+02  0.51100000000E-03 0. -1.
         11   -1    0    0    0    0 -0.00000000000E+00 -0.00000000000E+00 -0.45593999997E+02  0.45594000000E+02  0.51100000000E-03 0.  1.
    9900012    2    1    2    0    0  0.10150429712E+02 -0.22100873287E+00 -0.15735218572E+02  0.72461623636E+02  0.70000069488E+02 0.  0.
         12    1    1    2    0    0 -0.10150429712E+02  0.22100873287E+00  0.15735218572E+02  0.18726376364E+02  0.00000000000E+00 0. -1.
         11    1    3    3    0    0  0.66122188500E+01  0.18356560148E+02 -0.20420621971E+02  0.28243345066E+02  0.51100000000E-03 0. -1.
        -11    1    3    3    0    0 -0.15141410766E+01 -0.15885087594E+02 -0.16094533069E+02  0.22664126412E+02  0.51100000000E-03 0.  1.
         12    1    3    3    0    0  0.50523519387E+01 -0.26924812869E+01  0.20779936469E+02  0.21554152158E+02  0.00000000000E+00 0. -1.
</event>
<event>
 7    1  0.2932741E-013  0.7246157E+02  0.7816164E-02  0.1226708E+00
        -11   -1    0    0    0    0  0.00000000000E+00  0.00000000000E+00  0.45593999997E+02  0.45594000000E+02  0.51100000000E-03 0. -1.
         11   -1    0    0    0    0 -0.00000000000E+00 -0.00000000000E+00 -0.45593999997E+02  0.45594000000E+02  0.51100000000E-03 0.  1.
    9900012    2    1    2    0    0 -0.13784357814E+02  0.79755758546E+01 -0.98519370307E+01  0.72461574985E+02  0.70000006111E+02 0.  0.
         12    1    1    2    0    0  0.13784357814E+02 -0.79755758546E+01  0.98519370307E+01  0.18726425015E+02  0.00000000000E+00 0. -1.
         11    1    3    3    0    0  0.92319053889E+01  0.31449674572E+02 -0.37132674407E+01  0.32986337522E+02  0.51100000000E-03 0. -1.
        -11    1    3    3    0    0 -0.33809498030E+01 -0.50529885426E+01  0.72041357102E+01  0.94267219315E+01  0.51100000000E-03 0.  1.
        -12    1    3    3    0    0 -0.19635313400E+02 -0.18421110174E+02 -0.13342805300E+02  0.30048515532E+02  0.00000000000E+00 0.  1.
</event>
<event>
 7    1  0.2932741E-013  0.7246157E+02  0.7816164E-02  0.1226708E+00
        -11   -1    0    0    0    0  0.00000000000E+00  0.00000000000E+00  0.45593999997E+02  0.45594000000E+02  0.51100000000E-03 0. -1.
         11   -1    0    0    0    0 -0.00000000000E+00 -0.00000000000E+00 -0.45593999997E+02  0.45594000000E+02  0.51100000000E-03 0.  1.
    9900012    2    1    2    0    0  0.37201628514E+01 -0.14632945783E+02 -0.11077745070E+02  0.72461570822E+02  0.70000000687E+02 0.  0.
         12    1    1    2    0    0 -0.37201628514E+01  0.14632945783E+02  0.11077745070E+02  0.18726429178E+02  0.00000000000E+00 0. -1.
         11    1    3    3    0    0  0.14103076634E+02 -0.51074746345E+01 -0.84123329485E+01  0.17197395546E+02  0.51100000000E-03 0. -1.
        -11    1    3    3    0    0  0.96192468945E+01  0.18450009496E+02 -0.76477884496E+00  0.20821086623E+02  0.51100000000E-03 0.  1.
         12    1    3    3    0    0 -0.20002160677E+02 -0.27975480645E+02 -0.19006332765E+01  0.34443088652E+02  0.00000000000E+00 0. -1.
</event>
<event>
 7    1  0.2932741E-013  0.7246162E+02  0.7816164E-02  0.1226708E+00
        -11   -1    0    0    0    0  0.00000000000E+00  0.00000000000E+00  0.45593999997E+02  0.45594000000E+02  0.51100000000E-03 0.  1.
         11   -1    0    0    0    0 -0.00000000000E+00 -0.00000000000E+00 -0.45593999997E+02  0.45594000000E+02  0.51100000000E-03 0. -1.
    9900012    2    1    2    0    0 -0.17298369306E+02 -0.22716056385E+01  0.68031982593E+01  0.72461620761E+02  0.70000065743E+02 0.  0.
         12    1    1    2    0    0  0.17298369306E+02  0.22716056385E+01 -0.68031982593E+01  0.18726379239E+02  0.00000000000E+00 0. -1.
         11    1    3    3    0    0 -0.18695649892E+02 -0.59115765256E+01  0.19986692994E+02  0.27998963535E+02  0.51100000000E-03 0. -1.
        -11    1    3    3    0    0  0.17657067277E+01 -0.85553089042E+01  0.12950249315E+02  0.15621139148E+02  0.51100000000E-03 0.  1.
         12    1    3    3    0    0 -0.36842614202E+00  0.12195279791E+02 -0.26133744050E+02  0.28841518079E+02  0.00000000000E+00 0. -1.
</event>
<event>
 7    1  0.2932741E-013  0.7246154E+02  0.7816164E-02  0.1226708E+00
        -11   -1    0    0    0    0  0.00000000000E+00  0.00000000000E+00  0.45593999997E+02  0.45594000000E+02  0.51100000000E-03 0.  1.
         11   -1    0    0    0    0 -0.00000000000E+00 -0.00000000000E+00 -0.45593999997E+02  0.45594000000E+02  0.51100000000E-03 0. -1.
    9900012    2    1    2    0    0  0.15015777162E+02 -0.19764906025E+01  0.11013640521E+02  0.72461538604E+02  0.69999958718E+02 0.  0.
         12    1    1    2    0    0 -0.15015777162E+02  0.19764906025E+01 -0.11013640521E+02  0.18726461396E+02  0.00000000000E+00 0. -1.
         11    1    3    3    0    0  0.23159459070E+02 -0.63224538435E+00  0.23767430528E+02  0.33191128827E+02  0.51100000000E-03 0. -1.
        -11    1    3    3    0    0 -0.73296384407E+01  0.34933319647E+01  0.11748842467E+02  0.14281535893E+02  0.51100000000E-03 0.  1.
         12    1    3    3    0    0 -0.81404346683E+00 -0.48375771829E+01 -0.24502632475E+02  0.24988873884E+02  0.00000000000E+00 0. -1.
</event>
<event>
 7    1  0.2932741E-013  0.7246154E+02  0.7816164E-02  0.1226708E+00
        -11   -1    0    0    0    0  0.00000000000E+00  0.00000000000E+00  0.45593999997E+02  0.45594000000E+02  0.51100000000E-03 0.  1.
         11   -1    0    0    0    0 -0.00000000000E+00 -0.00000000000E+00 -0.45593999997E+02  0.45594000000E+02  0.51100000000E-03 0. -1.
    9900012    2    1    2    0    0  0.15466017257E+02 -0.58790878429E+01  0.87703521154E+01  0.72461536376E+02  0.69999955814E+02 0.  0.
         12    1    1    2    0    0 -0.15466017257E+02  0.58790878429E+01 -0.87703521154E+01  0.18726463624E+02  0.00000000000E+00 0. -1.
         11    1    3    3    0    0  0.11785375298E+02 -0.86124689918E+01  0.20420273352E+01  0.14739049119E+02  0.51100000000E-03 0. -1.
        -11    1    3    3    0    0 -0.62708953171E+01 -0.22841894021E+02 -0.98578797296E+01  0.25656462024E+02  0.51100000000E-03 0.  1.
         12    1    3    3    0    0  0.99515372760E+01  0.25575275170E+02  0.16586204510E+02  0.32066025232E+02  0.00000000000E+00 0. -1.
</event>
<event>
 7    1  0.2932741E-013  0.7246159E+02  0.7816164E-02  0.1226708E+00
        -11   -1    0    0    0    0  0.00000000000E+00  0.00000000000E+00  0.45593999997E+02  0.45594000000E+02  0.51100000000E-03 0.  1.
         11   -1    0    0    0    0 -0.00000000000E+00 -0.00000000000E+00 -0.45593999997E+02  0.45594000000E+02  0.51100000000E-03 0. -1.
    9900012    2    1    2    0    0  0.64466902541E+01 -0.63005634138E-01  0.17581659580E+02  0.72461587142E+02  0.70000021948E+02 0.  0.
         12    1    1    2    0    0 -0.64466902541E+01  0.63005634138E-01 -0.17581659580E+02  0.18726412858E+02  0.00000000000E+00 0. -1.
         11    1    3    3    0    0  0.26278426751E+02  0.49576953928E+01 -0.52318775684E+01  0.27248981619E+02  0.51100000000E-03 0. -1.
        -11    1    3    3    0    0 -0.46037597059E+00  0.12674887129E+02  0.58345824557E+01  0.13960911949E+02  0.51100000000E-03 0.  1.
        -12    1    3    3    0    0 -0.19371360526E+02 -0.17695588156E+02  0.16978954692E+02  0.31251693574E+02  0.00000000000E+00 0.  1.
</event>
<event>
 7    1  0.2932741E-013  0.7246156E+02  0.7816164E-02  0.1226708E+00
        -11   -1    0    0    0    0  0.00000000000E+00  0.00000000000E+00  0.45593999997E+02  0.45594000000E+02  0.51100000000E-03 0. -1.
         11   -1    0    0    0    0 -0.00000000000E+00 -0.00000000000E+00 -0.45593999997E+02  0.45594000000E+02  0.51100000000E-03 0.  1.
    9900012    2    1    2    0    0  0.10727123346E+02  0.43225496800E+01 -0.14728336597E+02  0.72461561205E+02  0.69999988160E+02 0.  0.
         12    1    1    2    0    0 -0.10727123346E+02 -0.43225496800E+01  0.14728336597E+02  0.18726438795E+02  0.00000000000E+00 0. -1.
         11    1    3    3    0    0  0.80506945985E+01  0.17768615288E+02 -0.19918457243E+01  0.19608794517E+02  0.51100000000E-03 0. -1.
        -11    1    3    3    0    0  0.24660933105E+02 -0.14477161112E+02 -0.11459821980E+02  0.30807098785E+02  0.51100000000E-03 0.  1.
        -12    1    3    3    0    0 -0.21984504358E+02  0.10310955042E+01 -0.12766688931E+01  0.22045667902E+02  0.00000000000E+00 0.  1.
</event>
<event>
 7    1  0.2932741E-013  0.7246156E+02  0.7816164E-02  0.1226708E+00
        -11   -1    0    0    0    0  0.00000000000E+00  0.00000000000E+00  0.45593999997E+02  0.45594000000E+02  0.51100000000E-03 0.  1.
         11   -1    0    0    0    0 -0.00000000000E+00 -0.00000000000E+00 -0.45593999997E+02  0.45594000000E+02  0.51100000000E-03 0. -1.
    9900012    2    1    2    0    0  0.70191289294E+01  0.75962129380E+01 -0.15611184844E+02  0.72461555752E+02  0.69999981056E+02 0.  0.
         12    1    1    2    0    0 -0.70191289294E+01 -0.75962129380E+01  0.15611184844E+02  0.18726444248E+02  0.00000000000E+00 0. -1.
         11    1    3    3    0    0 -0.26814945126E+02 -0.74764971802E+01  0.61642757259E+01  0.28512060390E+02  0.51100000000E-03 0.  1.
        -11    1    3    3    0    0  0.98835525764E+01  0.23472066403E+00 -0.41911974074E+01  0.10738055750E+02  0.51100000000E-03 0. -1.
        -12    1    3    3    0    0  0.23950521479E+02  0.14837989454E+02 -0.17584263163E+02  0.33211439612E+02  0.00000000000E+00 0.  1.
</event>
<event>
 7    1  0.2932741E-013  0.7246156E+02  0.7816164E-02  0.1226708E+00
        -11   -1    0    0    0    0  0.00000000000E+00  0.00000000000E+00  0.45593999997E+02  0.45594000000E+02  0.51100000000E-03 0. -1.
         11   -1    0    0    0    0 -0.00000000000E+00 -0.00000000000E+00 -0.45593999997E+02  0.45594000000E+02  0.51100000000E-03 0.  1.
    9900012    2    1    2    0    0  0.69125031937E+00 -0.13844110078E+02 -0.12591364943E+02  0.72461556612E+02  0.69999982176E+02 0.  0.
         12    1    1    2    0    0 -0.69125031937E+00  0.13844110078E+02  0.12591364943E+02  0.18726443388E+02  0.00000000000E+00 0. -1.
         11    1    3    3    0    0 -0.26540001526E+02  0.27224700611E+01  0.13788753010E+02  0.30031870306E+02  0.51100000000E-03 0.  1.
        -11    1    3    3    0    0  0.14453936665E+02 -0.41619036995E+01 -0.89059659168E+01  0.17480101736E+02  0.51100000000E-03 0. -1.
        -12    1    3    3    0    0  0.12777315181E+02 -0.12404676439E+02 -0.17474152037E+02  0.24949584570E+02  0.00000000000E+00 0.  1.
</event>
<event>
 7    1  0.2932741E-013  0.7246155E+02  0.7816164E-02  0.1226708E+00
        -11   -1    0    0    0    0  0.00000000000E+00  0.00000000000E+00  0.45593999997E+02  0.45594000000E+02  0.51100000000E-03 0.  1.
         11   -1    0    0    0    0 -0.00000000000E+00 -0.00000000000E+00 -0.45593999997E+02  0.45594000000E+02  0.51100000000E-03 0. -1.
    9900012    2    1    2    0    0 -0.14148214757E+00 -0.16988592287E+02 -0.78770417039E+01  0.72461546222E+02  0.69999968641E+02 0.  0.
         12    1    1    2    0    0  0.14148214757E+00  0.16988592287E+02  0.78770417039E+01  0.18726453778E+02  0.00000000000E+00 0. -1.
         11    1    3    3    0    0  0.71895841335E+01  0.80718007480E+01 -0.11497901948E+02  0.15781186166E+02  0.51100000000E-03 0. -1.
        -11    1    3    3    0    0 -0.32040658935E+01 -0.71949541110E+01 -0.23025220994E+02  0.24335040682E+02  0.51100000000E-03 0.  1.
        -12    1    3    3    0    0 -0.41270003875E+01 -0.17865438924E+02  0.26646081238E+02  0.32345319375E+02  0.00000000000E+00 0.  1.
</event>
<event>
 7    1  0.2932741E-013  0.7246142E+02  0.7816164E-02  0.1226708E+00
        -11   -1    0    0    0    0  0.00000000000E+00  0.00000000000E+00  0.45593999997E+02  0.45594000000E+02  0.51100000000E-03 0. -1.
         11   -1    0    0    0    0 -0.00000000000E+00 -0.00000000000E+00 -0.45593999997E+02  0.45594000000E+02  0.51100000000E-03 0.  1.
    9900012    2    1    2    0    0 -0.89590847798E+00  0.36132279578E+01 -0.18352836933E+02  0.72461422850E+02  0.69999807926E+02 0.  0.
         12    1    1    2    0    0  0.89590847798E+00 -0.36132279578E+01  0.18352836933E+02  0.18726577150E+02  0.00000000000E+00 0. -1.
         11    1    3    3    0    0 -0.44539319506E+01  0.67008285520E+01 -0.60075046590E+01  0.10041350785E+02  0.51100000000E-03 0. -1.
        -11    1    3    3    0    0  0.36872248880E+01  0.88468424549E+01 -0.35283784265E+02  0.36562380682E+02  0.51100000000E-03 0.  1.
        -12    1    3    3    0    0 -0.12920141535E+00 -0.11934443049E+02  0.22938451991E+02  0.25857691383E+02  0.00000000000E+00 0.  1.
</event>
<event>
 7    1  0.2932741E-013  0.7246158E+02  0.7816164E-02  0.1226708E+00
        -11   -1    0    0    0    0  0.00000000000E+00  0.00000000000E+00  0.45593999997E+02  0.45594000000E+02  0.51100000000E-03 0.  1.
         11   -1    0    0    0    0 -0.00000000000E+00 -0.00000000000E+00 -0.45593999997E+02  0.45594000000E+02  0.51100000000E-03 0. -1.
    9900012    2    1    2    0    0 -0.36018232781E+01  0.55558986834E+01  0.17516779338E+02  0.72461582844E+02  0.70000016349E+02 0.  0.
         12    1    1    2    0    0  0.36018232781E+01 -0.55558986834E+01 -0.17516779338E+02  0.18726417156E+02  0.00000000000E+00 0. -1.
         11    1    3    3    0    0 -0.24527392771E+01 -0.11599716529E+02 -0.84704014182E+00  0.11886413706E+02  0.51100000000E-03 0. -1.
        -11    1    3    3    0    0  0.23929829512E+02  0.10895253272E+02  0.22239859176E+02  0.34437691862E+02  0.51100000000E-03 0.  1.
         12    1    3    3    0    0 -0.25078913513E+02  0.62603619405E+01 -0.38760396959E+01  0.26137477276E+02  0.00000000000E+00 0. -1.
</event>
<event>
 7    1  0.2932741E-013  0.7246160E+02  0.7816164E-02  0.1226708E+00
        -11   -1    0    0    0    0  0.00000000000E+00  0.00000000000E+00  0.45593999997E+02  0.45594000000E+02  0.51100000000E-03 0. -1.
         11   -1    0    0    0    0 -0.00000000000E+00 -0.00000000000E+00 -0.45593999997E+02  0.45594000000E+02  0.51100000000E-03 0.  1.
    9900012    2    1    2    0    0  0.26181582659E+01  0.86373803006E+01 -0.16407895349E+02  0.72461598292E+02  0.70000036472E+02 0.  0.
         12    1    1    2    0    0 -0.26181582659E+01 -0.86373803006E+01  0.16407895349E+02  0.18726401708E+02  0.00000000000E+00 0. -1.
         11    1    3    3    0    0  0.43407601185E+01  0.14724889740E+02  0.59962176050E+01  0.16480873826E+02  0.51100000000E-03 0. -1.
        -11    1    3    3    0    0 -0.83409162578E+01  0.16946701988E+02 -0.25587780554E+02  0.31804026573E+02  0.51100000000E-03 0.  1.
         12    1    3    3    0    0  0.66183144052E+01 -0.23034211427E+02  0.31836676007E+01  0.24176697893E+02  0.00000000000E+00 0. -1.
</event>
<event>
 7    1  0.2932741E-013  0.7246163E+02  0.7816164E-02  0.1226708E+00
        -11   -1    0    0    0    0  0.00000000000E+00  0.00000000000E+00  0.45593999997E+02  0.45594000000E+02  0.51100000000E-03 0.  1.
         11   -1    0    0    0    0 -0.00000000000E+00 -0.00000000000E+00 -0.45593999997E+02  0.45594000000E+02  0.51100000000E-03 0. -1.
    9900012    2    1    2    0    0  0.89277627605E+01 -0.85424721132E+01  0.14071186316E+02  0.72461626564E+02  0.70000073302E+02 0.  0.
         12    1    1    2    0    0 -0.89277627605E+01  0.85424721132E+01 -0.14071186316E+02  0.18726373436E+02  0.00000000000E+00 0. -1.
         11    1    3    3    0    0 -0.12064536055E+01 -0.72414075524E+01 -0.22477976524E+02  0.23646415004E+02  0.51100000000E-03 0. -1.
        -11    1    3    3    0    0 -0.94966809225E+01 -0.15386908283E+01  0.32410291442E+01  0.10151787438E+02  0.51100000000E-03 0.  1.
        -12    1    3    3    0    0  0.19630897289E+02  0.23762626746E+00  0.33308133696E+02  0.38663424123E+02  0.00000000000E+00 0.  1.
</event>
<event>
 7    1  0.2932741E-013  0.7246150E+02  0.7816164E-02  0.1226708E+00
        -11   -1    0    0    0    0  0.00000000000E+00  0.00000000000E+00  0.45593999997E+02  0.45594000000E+02  0.51100000000E-03 0. -1.
         11   -1    0    0    0    0 -0.00000000000E+00 -0.00000000000E+00 -0.45593999997E+02  0.45594000000E+02  0.51100000000E-03 0.  1.
    9900012    2    1    2    0    0  0.32999197383E+01 -0.14146725153E+02 -0.11817883313E+02  0.72461503562E+02  0.69999913069E+02 0.  0.
         12    1    1    2    0    0 -0.32999197383E+01  0.14146725153E+02  0.11817883313E+02  0.18726496438E+02  0.00000000000E+00 0. -1.
         11    1    3    3    0    0 -0.67606799229E+01 -0.33742901998E+01  0.60351231677E+01  0.96703329458E+01  0.51100000000E-03 0.  1.
        -11    1    3    3    0    0 -0.12285539137E+02 -0.27448727762E+02 -0.75229678558E+00  0.30082105617E+02  0.51100000000E-03 0. -1.
         12    1    3    3    0    0  0.22346138799E+02  0.16676292809E+02 -0.17100709695E+02  0.32709064999E+02  0.00000000000E+00 0. -1.
</event>
<event>
 7    1  0.2932741E-013  0.7246164E+02  0.7816164E-02  0.1226708E+00
        -11   -1    0    0    0    0  0.00000000000E+00  0.00000000000E+00  0.45593999997E+02  0.45594000000E+02  0.51100000000E-03 0. -1.
         11   -1    0    0    0    0 -0.00000000000E+00 -0.00000000000E+00 -0.45593999997E+02  0.45594000000E+02  0.51100000000E-03 0.  1.
    9900012    2    1    2    0    0 -0.12876118832E+02  0.55841150076E+01 -0.12397578299E+02  0.72461635583E+02  0.70000085051E+02 0.  0.
         12    1    1    2    0    0  0.12876118832E+02 -0.55841150076E+01  0.12397578299E+02  0.18726364417E+02  0.00000000000E+00 0. -1.
         11    1    3    3    0    0  0.21247636526E+01  0.20721775975E+02 -0.12071393106E+01  0.20865373367E+02  0.51100000000E-03 0. -1.
        -11    1    3    3    0    0  0.13446656385E+01 -0.28700471286E+02 -0.32265219686E+01  0.28912551288E+02  0.51100000000E-03 0.  1.
         12    1    3    3    0    0 -0.16345548123E+02  0.13562810318E+02 -0.79639170194E+01  0.22683710928E+02  0.00000000000E+00 0. -1.
</event>
<event>
 7    1  0.2932741E-013  0.7246150E+02  0.7816164E-02  0.1226708E+00
        -11   -1    0    0    0    0  0.00000000000E+00  0.00000000000E+00  0.45593999997E+02  0.45594000000E+02  0.51100000000E-03 0.  1.
         11   -1    0    0    0    0 -0.00000000000E+00 -0.00000000000E+00 -0.45593999997E+02  0.45594000000E+02  0.51100000000E-03 0. -1.
    9900012    2    1    2    0    0 -0.44972019915E+01  0.15864427364E+02 -0.88756269623E+01  0.72461504458E+02  0.69999914235E+02 0.  0.
         12    1    1    2    0    0  0.44972019915E+01 -0.15864427364E+02  0.88756269623E+01  0.18726495542E+02  0.00000000000E+00 0. -1.
         11    1    3    3    0    0  0.14942421163E+02 -0.15297332961E+01  0.80742845897E+01  0.17053155311E+02  0.51100000000E-03 0. -1.
        -11    1    3    3    0    0 -0.20666606198E+01 -0.74881252804E+01  0.11455772387E+02  0.13841164242E+02  0.51100000000E-03 0.  1.
         12    1    3    3    0    0 -0.17372962535E+02  0.24882285940E+02 -0.28405683939E+02  0.41567184904E+02  0.00000000000E+00 0. -1.
</event>
<event>
 7    1  0.2932741E-013  0.7246159E+02  0.7816164E-02  0.1226708E+00
        -11   -1    0    0    0    0  0.00000000000E+00  0.00000000000E+00  0.45593999997E+02  0.45594000000E+02  0.51100000000E-03 0. -1.
         11   -1    0    0    0    0 -0.00000000000E+00 -0.00000000000E+00 -0.45593999997E+02  0.45594000000E+02  0.51100000000E-03 0.  1.
    9900012    2    1    2    0    0 -0.76887567949E+01  0.14410904775E+02  0.91589956635E+01  0.72461591934E+02  0.70000028190E+02 0.  0.
         12    1    1    2    0    0  0.76887567949E+01 -0.14410904775E+02 -0.91589956635E+01  0.18726408066E+02  0.00000000000E+00 0. -1.
         11    1    3    3    0    0 -0.72876111035E+01  0.30365554725E+02  0.18369787747E+02  0.36230171011E+02  0.51100000000E-03 0. -1.
        -11    1    3    3    0    0  0.11322922910E+02  0.38221255321E+01 -0.18624234579E+01  0.12094868673E+02  0.51100000000E-03 0.  1.
        -12    1    3    3    0    0 -0.11724068602E+02 -0.19776775482E+02 -0.73483686260E+01  0.24136552250E+02  0.00000000000E+00 0.  1.
</event>
<event>
 7    1  0.2932741E-013  0.7246160E+02  0.7816164E-02  0.1226708E+00
        -11   -1    0    0    0    0  0.00000000000E+00  0.00000000000E+00  0.45593999997E+02  0.45594000000E+02  0.51100000000E-03 0.  1.
         11   -1    0    0    0    0 -0.00000000000E+00 -0.00000000000E+00 -0.45593999997E+02  0.45594000000E+02  0.51100000000E-03 0. -1.
    9900012    2    1    2    0    0 -0.13005909190E+02 -0.36199131591E+01  0.12977690156E+02  0.72461604540E+02  0.70000044611E+02 0.  0.
         12    1    1    2    0    0  0.13005909190E+02  0.36199131591E+01 -0.12977690156E+02  0.18726395460E+02  0.00000000000E+00 0. -1.
         11    1    3    3    0    0 -0.94519476636E-01  0.56032602473E+01  0.22681734043E+01  0.60456654045E+01  0.51100000000E-03 0. -1.
        -11    1    3    3    0    0 -0.28503116924E+02  0.10045072793E+02  0.23723714597E+02  0.38420642842E+02  0.51100000000E-03 0.  1.
         12    1    3    3    0    0  0.15591727211E+02 -0.19268246199E+02 -0.13014197845E+02  0.27995296294E+02  0.00000000000E+00 0. -1.
</event>
<event>
 7    1  0.2932741E-013  0.7246156E+02  0.7816164E-02  0.1226708E+00
        -11   -1    0    0    0    0  0.00000000000E+00  0.00000000000E+00  0.45593999997E+02  0.45594000000E+02  0.51100000000E-03 0.  1.
         11   -1    0    0    0    0 -0.00000000000E+00 -0.00000000000E+00 -0.45593999997E+02  0.45594000000E+02  0.51100000000E-03 0. -1.
    9900012    2    1    2    0    0 -0.11356554285E+02 -0.64814455925E+01  0.13405182446E+02  0.72461564712E+02  0.69999992728E+02 0.  0.
         12    1    1    2    0    0  0.11356554285E+02  0.64814455925E+01 -0.13405182446E+02  0.18726435288E+02  0.00000000000E+00 0. -1.
         11    1    3    3    0    0  0.27698981630E+01  0.49479973561E+01  0.54526198255E+01  0.78667704232E+01  0.51100000000E-03 0. -1.
        -11    1    3    3    0    0 -0.19087970918E+02  0.10899321723E+02  0.27009350773E+02  0.34823137096E+02  0.51100000000E-03 0.  1.
         12    1    3    3    0    0  0.49615184702E+01 -0.22328764671E+02 -0.19056788153E+02  0.29771657192E+02  0.00000000000E+00 0. -1.
</event>
<event>
 7    1  0.2932741E-013  0.7246153E+02  0.7816164E-02  0.1226708E+00
        -11   -1    0    0    0    0  0.00000000000E+00  0.00000000000E+00  0.45593999997E+02  0.45594000000E+02  0.51100000000E-03 0. -1.
         11   -1    0    0    0    0 -0.00000000000E+00 -0.00000000000E+00 -0.45593999997E+02  0.45594000000E+02  0.51100000000E-03 0.  1.
    9900012    2    1    2    0    0 -0.45260122642E+01  0.17140858835E+02 -0.60321612909E+01  0.72461526802E+02  0.69999943343E+02 0.  0.
         12    1    1    2    0    0  0.45260122642E+01 -0.17140858835E+02  0.60321612909E+01  0.18726473198E+02  0.00000000000E+00 0. -1.
         11    1    3    3    0    0  0.10653649661E+02 -0.23129467078E+02 -0.53145737738E+01  0.26013788519E+02  0.51100000000E-03 0. -1.
        -11    1    3    3    0    0 -0.31692901079E+01  0.12399412141E+02 -0.81880527593E+01  0.15193223143E+02  0.51100000000E-03 0.  1.
        -12    1    3    3    0    0 -0.12010371817E+02  0.27870913773E+02  0.74704652423E+01  0.31254515140E+02  0.00000000000E+00 0.  1.
</event>
<event>
 7    1  0.2932741E-013  0.7246180E+02  0.7816164E-02  0.1226707E+00
        -11   -1    0    0    0    0  0.00000000000E+00  0.00000000000E+00  0.45593999997E+02  0.45594000000E+02  0.51100000000E-03 0.  1.
         11   -1    0    0    0    0 -0.00000000000E+00 -0.00000000000E+00 -0.45593999997E+02  0.45594000000E+02  0.51100000000E-03 0. -1.
    9900012    2    1    2    0    0  0.21590978462E+01 -0.18464218835E+02 -0.22542232474E+01  0.72461799020E+02  0.70000297957E+02 0.  0.
         12    1    1    2    0    0 -0.21590978462E+01  0.18464218835E+02  0.22542232474E+01  0.18726200980E+02  0.00000000000E+00 0. -1.
         11    1    3    3    0    0 -0.63849414762E+01  0.67163555366E+01  0.10759658181E+02  0.14200251891E+02  0.51100000000E-03 0. -1.
        -11    1    3    3    0    0 -0.19324917446E+02 -0.19424621407E+02 -0.11643384554E+02  0.29771408351E+02  0.51100000000E-03 0.  1.
        -12    1    3    3    0    0  0.27868956768E+02 -0.57559529649E+01 -0.13704968745E+01  0.28490138778E+02  0.00000000000E+00 0.  1.
</event>
<event>
 7    1  0.2932741E-013  0.7246162E+02  0.7816164E-02  0.1226708E+00
        -11   -1    0    0    0    0  0.00000000000E+00  0.00000000000E+00  0.45593999997E+02  0.45594000000E+02  0.51100000000E-03 0.  1.
         11   -1    0    0    0    0 -0.00000000000E+00 -0.00000000000E+00 -0.45593999997E+02  0.45594000000E+02  0.51100000000E-03 0. -1.
    9900012    2    1    2    0    0  0.11052670317E+02 -0.97793138550E+01  0.11527388156E+02  0.72461623460E+02  0.70000069258E+02 0.  0.
         12    1    1    2    0    0 -0.11052670317E+02  0.97793138550E+01 -0.11527388156E+02  0.18726376540E+02  0.00000000000E+00 0. -1.
         11    1    3    3    0    0  0.87551573260E+01  0.52341333813E+00 -0.13517729485E+02  0.16113837284E+02  0.51100000000E-03 0. -1.
        -11    1    3    3    0    0  0.14175816495E+01  0.27482165141E+01 -0.14432222349E+02  0.14759785701E+02  0.51100000000E-03 0.  1.
        -12    1    3    3    0    0  0.87993134115E+00 -0.13050943707E+02  0.39477339990E+02  0.41588000475E+02  0.00000000000E+00 0.  1.
</event>
<event>
 7    1  0.3272015E-013  0.7246170E+02  0.7816164E-02  0.1226708E+00
        -11   -1    0    0    0    0  0.00000000000E+00  0.00000000000E+00  0.45593999997E+02  0.45594000000E+02  0.51100000000E-03 0. -1.
         11   -1    0    0    0    0 -0.00000000000E+00 -0.00000000000E+00 -0.45593999997E+02  0.45594000000E+02  0.51100000000E-03 0.  1.
    9900012    2    1    2    0    0 -0.36397235932E+01  0.10748263571E+02 -0.14896355746E+02  0.72461703726E+02  0.70000173819E+02 0.  0.
         12    1    1    2    0    0  0.36397235932E+01 -0.10748263571E+02  0.14896355746E+02  0.18726296274E+02  0.00000000000E+00 0. -1.
         11    1    3    3    0    0  0.65461555932E+01 -0.11276893055E+02 -0.17189848887E+02  0.21575712620E+02  0.51100000000E-03 0. -1.
        -11    1    3    3    0    0  0.30049358061E+01  0.25887068340E+02 -0.13988925455E+02  0.29578032086E+02  0.51100000000E-03 0.  1.
         12    1    3    3    0    0 -0.13190814992E+02 -0.38619117136E+01  0.16282418596E+02  0.21307959020E+02  0.00000000000E+00 0. -1.
</event>
<event>
 7    1  0.2932741E-013  0.7246128E+02  0.7816164E-02  0.1226709E+00
        -11   -1    0    0    0    0  0.00000000000E+00  0.00000000000E+00  0.45593999997E+02  0.45594000000E+02  0.51100000000E-03 0.  1.
         11   -1    0    0    0    0 -0.00000000000E+00 -0.00000000000E+00 -0.45593999997E+02  0.45594000000E+02  0.51100000000E-03 0. -1.
    9900012    2    1    2    0    0 -0.55551623451E+01 -0.31323331662E+01  0.17607345074E+02  0.72461282714E+02  0.69999625372E+02 0.  0.
         12    1    1    2    0    0  0.55551623451E+01  0.31323331662E+01 -0.17607345074E+02  0.18726717286E+02  0.00000000000E+00 0. -1.
         11    1    3    3    0    0 -0.78766189204E+01  0.30985027533E+01  0.49780195748E+01  0.98194971397E+01  0.51100000000E-03 0. -1.
        -11    1    3    3    0    0 -0.44611832579E+01 -0.19894918600E+02  0.32025747603E+02  0.37965226879E+02  0.51100000000E-03 0.  1.
         12    1    3    3    0    0  0.67826398332E+01  0.13664082681E+02 -0.19396422104E+02  0.24676558695E+02  0.00000000000E+00 0. -1.
</event>
<event>
 7    1  0.2932741E-013  0.7246156E+02  0.7816164E-02  0.1226708E+00
        -11   -1    0    0    0    0  0.00000000000E+00  0.00000000000E+00  0.45593999997E+02  0.45594000000E+02  0.51100000000E-03 0. -1.
         11   -1    0    0    0    0 -0.00000000000E+00 -0.00000000000E+00 -0.45593999997E+02  0.45594000000E+02  0.51100000000E-03 0.  1.
    9900012    2    1    2    0    0  0.89684537529E+01 -0.42535859001E+01 -0.15879341004E+02  0.72461558094E+02  0.69999984107E+02 0.  0.
         12    1    1    2    0    0 -0.89684537529E+01  0.42535859001E+01  0.15879341004E+02  0.18726441906E+02  0.00000000000E+00 0. -1.
         11    1    3    3    0    0  0.16235683742E+02  0.44077943649E+01 -0.14230957823E+02  0.22035113763E+02  0.51100000000E-03 0. -1.
        -11    1    3    3    0    0 -0.57452963360E+01 -0.24698359989E+02 -0.15036085766E+02  0.29480523936E+02  0.51100000000E-03 0.  1.
         12    1    3    3    0    0 -0.15219336528E+01  0.16036979724E+02  0.13387702585E+02  0.20945920395E+02  0.00000000000E+00 0. -1.
</event>
<event>
 7    1  0.2932741E-013  0.7246153E+02  0.7816164E-02  0.1226708E+00
        -11   -1    0    0    0    0  0.00000000000E+00  0.00000000000E+00  0.45593999997E+02  0.45594000000E+02  0.51100000000E-03 0. -1.
         11   -1    0    0    0    0 -0.00000000000E+00 -0.00000000000E+00 -0.45593999997E+02  0.45594000000E+02  0.51100000000E-03 0.  1.
    9900012    2    1    2    0    0  0.63402053520E+01  0.17397340377E+02  0.27955317143E+01  0.72461530667E+02  0.69999948378E+02 0.  0.
         12    1    1    2    0    0 -0.63402053520E+01 -0.17397340377E+02 -0.27955317143E+01  0.18726469333E+02  0.00000000000E+00 0. -1.
         11    1    3    3    0    0 -0.39236150337E+00  0.17307767255E+02  0.82367933554E+01  0.19171789691E+02  0.51100000000E-03 0. -1.
        -11    1    3    3    0    0 -0.57379875818E+01  0.73162820545E+01 -0.26322938170E+02  0.27916832892E+02  0.51100000000E-03 0.  1.
         12    1    3    3    0    0  0.12470554437E+02 -0.72267089326E+01  0.20881676529E+02  0.25372908084E+02  0.00000000000E+00 0. -1.
</event>
<event>
 7    1  0.2932741E-013  0.7246157E+02  0.7816164E-02  0.1226708E+00
        -11   -1    0    0    0    0  0.00000000000E+00  0.00000000000E+00  0.45593999997E+02  0.45594000000E+02  0.51100000000E-03 0.  1.
         11   -1    0    0    0    0 -0.00000000000E+00 -0.00000000000E+00 -0.45593999997E+02  0.45594000000E+02  0.51100000000E-03 0. -1.
    9900012    2    1    2    0    0 -0.38311936283E+01  0.16091554187E+02  0.87785613702E+01  0.72461566797E+02  0.69999995444E+02 0.  0.
         12    1    1    2    0    0  0.38311936283E+01 -0.16091554187E+02 -0.87785613702E+01  0.18726433203E+02  0.00000000000E+00 0. -1.
         11    1    3    3    0    0 -0.13658659260E+02  0.64894519456E+01 -0.21447385404E+02  0.26242376041E+02  0.51100000000E-03 0. -1.
        -11    1    3    3    0    0 -0.50550380682E+01  0.82553366277E+01 -0.27096136159E+01  0.10052163892E+02  0.51100000000E-03 0.  1.
        -12    1    3    3    0    0  0.14882503700E+02  0.13467656135E+01  0.32935560390E+02  0.36167026864E+02  0.00000000000E+00 0.  1.
</event>
<event>
 7    1  0.2932741E-013  0.7246156E+02  0.7816164E-02  0.1226708E+00
        -11   -1    0    0    0    0  0.00000000000E+00  0.00000000000E+00  0.45593999997E+02  0.45594000000E+02  0.51100000000E-03 0. -1.
         11   -1    0    0    0    0 -0.00000000000E+00 -0.00000000000E+00 -0.45593999997E+02  0.45594000000E+02  0.51100000000E-03 0.  1.
    9900012    2    1    2    0    0 -0.17481262842E+02  0.49253492044E+01  0.45635397145E+01  0.72461561202E+02  0.69999988156E+02 0.  0.
         12    1    1    2    0    0  0.17481262842E+02 -0.49253492044E+01 -0.45635397145E+01  0.18726438798E+02  0.00000000000E+00 0. -1.
         11    1    3    3    0    0 -0.26578267243E+02  0.26221657658E+00 -0.10609923833E+02  0.28618936584E+02  0.51100000000E-03 0. -1.
        -11    1    3    3    0    0 -0.14716947043E+02  0.77319786382E+01  0.95860482060E+01  0.19190214809E+02  0.51100000000E-03 0.  1.
         12    1    3    3    0    0  0.23813951444E+02 -0.30688460104E+01  0.55874153417E+01  0.24652409810E+02  0.00000000000E+00 0. -1.
</event>
<event>
 7    1  0.2932741E-013  0.7246151E+02  0.7816164E-02  0.1226708E+00
        -11   -1    0    0    0    0  0.00000000000E+00  0.00000000000E+00  0.45593999997E+02  0.45594000000E+02  0.51100000000E-03 0.  1.
         11   -1    0    0    0    0 -0.00000000000E+00 -0.00000000000E+00 -0.45593999997E+02  0.45594000000E+02  0.51100000000E-03 0. -1.
    9900012    2    1    2    0    0 -0.16044260494E+02 -0.88454090222E+01  0.38758033852E+01  0.72461510541E+02  0.69999922160E+02 0.  0.
         12    1    1    2    0    0  0.16044260494E+02  0.88454090222E+01 -0.38758033852E+01  0.18726489459E+02  0.00000000000E+00 0. -1.
         11    1    3    3    0    0  0.12863731778E+02  0.10558295184E+02  0.22622424620E+02  0.28084288995E+02  0.51100000000E-03 0. -1.
        -11    1    3    3    0    0 -0.72571282404E+01  0.12824385600E+01 -0.11350004389E+02  0.13532670056E+02  0.51100000000E-03 0.  1.
        -12    1    3    3    0    0 -0.21650864032E+02 -0.20686142766E+02 -0.73966168458E+01  0.30844551490E+02  0.00000000000E+00 0.  1.
</event>
<event>
 7    1  0.2932741E-013  0.7246153E+02  0.7816164E-02  0.1226708E+00
        -11   -1    0    0    0    0  0.00000000000E+00  0.00000000000E+00  0.45593999997E+02  0.45594000000E+02  0.51100000000E-03 0.  1.
         11   -1    0    0    0    0 -0.00000000000E+00 -0.00000000000E+00 -0.45593999997E+02  0.45594000000E+02  0.51100000000E-03 0. -1.
    9900012    2    1    2    0    0 -0.74761488553E+01 -0.12620565339E+02  0.11640842800E+02  0.72461529636E+02  0.69999947036E+02 0.  0.
         12    1    1    2    0    0  0.74761488553E+01  0.12620565339E+02 -0.11640842800E+02  0.18726470364E+02  0.00000000000E+00 0. -1.
         11    1    3    3    0    0 -0.89089699667E+01  0.17592208790E+02 -0.12021312249E+02  0.23094750581E+02  0.51100000000E-03 0. -1.
        -11    1    3    3    0    0 -0.44452802838E+01 -0.38625991821E+00  0.17871334823E+02  0.18419943598E+02  0.51100000000E-03 0.  1.
         12    1    3    3    0    0  0.58781013952E+01 -0.29826514210E+02  0.57908202256E+01  0.30946835458E+02  0.00000000000E+00 0. -1.
</event>
<event>
 7    1  0.2932741E-013  0.7246155E+02  0.7816164E-02  0.1226708E+00
        -11   -1    0    0    0    0  0.00000000000E+00  0.00000000000E+00  0.45593999997E+02  0.45594000000E+02  0.51100000000E-03 0. -1.
         11   -1    0    0    0    0 -0.00000000000E+00 -0.00000000000E+00 -0.45593999997E+02  0.45594000000E+02  0.51100000000E-03 0.  1.
    9900012    2    1    2    0    0  0.12522322129E+02 -0.13274372074E+02  0.42026761605E+01  0.72461548324E+02  0.69999971380E+02 0.  0.
         12    1    1    2    0    0 -0.12522322129E+02  0.13274372074E+02 -0.42026761605E+01  0.18726451676E+02  0.00000000000E+00 0. -1.
         11    1    3    3    0    0 -0.64523259083E+01 -0.92220604032E+01  0.22200881050E+02  0.24890922590E+02  0.51100000000E-03 0. -1.
        -11    1    3    3    0    0  0.58501192455E-01  0.46032373391E+01  0.10975859640E+02  0.11902214563E+02  0.51100000000E-03 0.  1.
        -12    1    3    3    0    0  0.18916146845E+02 -0.86555490097E+01 -0.28974064530E+02  0.35668411172E+02  0.00000000000E+00 0.  1.
</event>
<event>
 7    1  0.2932741E-013  0.7246231E+02  0.7816164E-02  0.1226706E+00
        -11   -1    0    0    0    0  0.00000000000E+00  0.00000000000E+00  0.45593999997E+02  0.45594000000E+02  0.51100000000E-03 0.  1.
         11   -1    0    0    0    0 -0.00000000000E+00 -0.00000000000E+00 -0.45593999997E+02  0.45594000000E+02  0.51100000000E-03 0. -1.
    9900012    2    1    2    0    0 -0.13768547207E+02 -0.11173038262E+02  0.60201289311E+01  0.72462305659E+02  0.70000957943E+02 0.  0.
         12    1    1    2    0    0  0.13768547207E+02  0.11173038262E+02 -0.60201289311E+01  0.18725694341E+02  0.00000000000E+00 0. -1.
         11    1    3    3    0    0 -0.17778746260E+02 -0.31063947661E+01 -0.62343043354E+01  0.19094503341E+02  0.51100000000E-03 0. -1.
        -11    1    3    3    0    0 -0.21355313794E+02  0.68336547725E+01  0.36506014582E+01  0.22717287604E+02  0.51100000000E-03 0.  1.
         12    1    3    3    0    0  0.25365512847E+02 -0.14900298268E+02  0.86038318083E+01  0.30650514715E+02  0.00000000000E+00 0. -1.
</event>
<event>
 7    1  0.2932741E-013  0.7246156E+02  0.7816164E-02  0.1226708E+00
        -11   -1    0    0    0    0  0.00000000000E+00  0.00000000000E+00  0.45593999997E+02  0.45594000000E+02  0.51100000000E-03 0.  1.
         11   -1    0    0    0    0 -0.00000000000E+00 -0.00000000000E+00 -0.45593999997E+02  0.45594000000E+02  0.51100000000E-03 0. -1.
    9900012    2    1    2    0    0 -0.11213997891E+02  0.41892502775E+01  0.14400560636E+02  0.72461555778E+02  0.69999981089E+02 0.  0.
         12    1    1    2    0    0  0.11213997891E+02 -0.41892502775E+01 -0.14400560636E+02  0.18726444222E+02  0.00000000000E+00 0. -1.
         11    1    3    3    0    0 -0.19409877748E+02  0.15137905720E+01  0.11645171336E+02  0.22685786999E+02  0.51100000000E-03 0. -1.
        -11    1    3    3    0    0  0.93489135747E+01 -0.19627245389E+01  0.25136270688E+02  0.26890269188E+02  0.51100000000E-03 0.  1.
         12    1    3    3    0    0 -0.11530337176E+01  0.46381842444E+01 -0.22380881387E+02  0.22885499591E+02  0.00000000000E+00 0. -1.
</event>
<event>
 7    1  0.2932741E-013  0.7246154E+02  0.7816164E-02  0.1226708E+00
        -11   -1    0    0    0    0  0.00000000000E+00  0.00000000000E+00  0.45593999997E+02  0.45594000000E+02  0.51100000000E-03 0.  1.
         11   -1    0    0    0    0 -0.00000000000E+00 -0.00000000000E+00 -0.45593999997E+02  0.45594000000E+02  0.51100000000E-03 0. -1.
    9900012    2    1    2    0    0  0.18086208628E+02 -0.39102300488E+00  0.48390752689E+01  0.72461535011E+02  0.69999954037E+02 0.  0.
         12    1    1    2    0    0 -0.18086208628E+02  0.39102300488E+00 -0.48390752689E+01  0.18726464989E+02  0.00000000000E+00 0. -1.
         11    1    3    3    0    0  0.25900926521E+02 -0.20006341127E+02 -0.52912618879E+01  0.33152814851E+02  0.51100000000E-03 0. -1.
        -11    1    3    3    0    0 -0.36368405268E+00 -0.80219558554E+01 -0.19119620915E+01  0.82546738965E+01  0.51100000000E-03 0.  1.
        -12    1    3    3    0    0 -0.74510338402E+01  0.27637273977E+02  0.12042299248E+02  0.31054046264E+02  0.00000000000E+00 0.  1.
</event>
<event>
 7    1  0.2932741E-013  0.7246163E+02  0.7816164E-02  0.1226708E+00
        -11   -1    0    0    0    0  0.00000000000E+00  0.00000000000E+00  0.45593999997E+02  0.45594000000E+02  0.51100000000E-03 0.  1.
         11   -1    0    0    0    0 -0.00000000000E+00 -0.00000000000E+00 -0.45593999997E+02  0.45594000000E+02  0.51100000000E-03 0. -1.
    9900012    2    1    2    0    0 -0.10401620414E+02  0.90086785939E+01  0.12701452961E+02  0.72461630769E+02  0.70000078780E+02 0.  0.
         12    1    1    2    0    0  0.10401620414E+02 -0.90086785939E+01 -0.12701452961E+02  0.18726369231E+02  0.00000000000E+00 0. -1.
         11    1    3    3    0    0  0.96091988680E+00 -0.11127521315E+02  0.33947151610E+02  0.35737294251E+02  0.51100000000E-03 0.  1.
        -11    1    3    3    0    0  0.12926137629E+01  0.14021592400E+02 -0.43304241128E+01  0.14731886405E+02  0.51100000000E-03 0. -1.
        -12    1    3    3    0    0 -0.12655154064E+02  0.61146075089E+01 -0.16915274536E+02  0.21992450114E+02  0.00000000000E+00 0.  1.
</event>
<event>
 7    1  0.2932741E-013  0.7246154E+02  0.7816164E-02  0.1226708E+00
        -11   -1    0    0    0    0  0.00000000000E+00  0.00000000000E+00  0.45593999997E+02  0.45594000000E+02  0.51100000000E-03 0.  1.
         11   -1    0    0    0    0 -0.00000000000E+00 -0.00000000000E+00 -0.45593999997E+02  0.45594000000E+02  0.51100000000E-03 0. -1.
    9900012    2    1    2    0    0 -0.71137665087E+01 -0.17136913754E+02 -0.25299812139E+01  0.72461540327E+02  0.69999960962E+02 0.  0.
         12    1    1    2    0    0  0.71137665087E+01  0.17136913754E+02  0.25299812139E+01  0.18726459673E+02  0.00000000000E+00 0. -1.
         11    1    3    3    0    0  0.37115017891E+01 -0.25742982236E+00 -0.65755638618E+01  0.75551013233E+01  0.51100000000E-03 0. -1.
        -11    1    3    3    0    0 -0.90293422845E+01 -0.34495035161E+02  0.20162551524E+02  0.40962970560E+02  0.51100000000E-03 0.  1.
         12    1    3    3    0    0 -0.17959260133E+01  0.17615551230E+02 -0.16116968876E+02  0.23943468444E+02  0.00000000000E+00 0. -1.
</event>
<event>
 7    1  0.2932741E-013  0.7246171E+02  0.7816164E-02  0.1226708E+00
        -11   -1    0    0    0    0  0.00000000000E+00  0.00000000000E+00  0.45593999997E+02  0.45594000000E+02  0.51100000000E-03 0.  1.
         11   -1    0    0    0    0 -0.00000000000E+00 -0.00000000000E+00 -0.45593999997E+02  0.45594000000E+02  0.51100000000E-03 0. -1.
    9900012    2    1    2    0    0 -0.15154293101E+02 -0.58770907107E+01  0.92995152475E+01  0.72461714238E+02  0.70000187512E+02 0.  0.
         12    1    1    2    0    0  0.15154293101E+02  0.58770907107E+01 -0.92995152475E+01  0.18726285762E+02  0.00000000000E+00 0. -1.
         11    1    3    3    0    0 -0.76784896186E+01 -0.47230369797E+01 -0.30507581000E+01  0.95170061669E+01  0.51100000000E-03 0. -1.
        -11    1    3    3    0    0 -0.16845326781E+02 -0.14886478099E+02 -0.17693463954E+02  0.28608231884E+02  0.51100000000E-03 0.  1.
        -12    1    3    3    0    0  0.93695232984E+01  0.13732424368E+02  0.30043737302E+02  0.34336476187E+02  0.00000000000E+00 0.  1.
</event>
<event>
 7    1  0.2932741E-013  0.7246154E+02  0.7816164E-02  0.1226708E+00
        -11   -1    0    0    0    0  0.00000000000E+00  0.00000000000E+00  0.45593999997E+02  0.45594000000E+02  0.51100000000E-03 0. -1.
         11   -1    0    0    0    0 -0.00000000000E+00 -0.00000000000E+00 -0.45593999997E+02  0.45594000000E+02  0.51100000000E-03 0.  1.
    9900012    2    1    2    0    0  0.15609533655E+02 -0.10345153207E+02  0.20348968943E-01  0.72461544118E+02  0.69999965901E+02 0.  0.
         12    1    1    2    0    0 -0.15609533655E+02  0.10345153207E+02 -0.20348968943E-01  0.18726455882E+02  0.00000000000E+00 0. -1.
         11    1    3    3    0    0  0.17023293418E+01 -0.11621333606E+02  0.11944624374E+02  0.16751936356E+02  0.51100000000E-03 0. -1.
        -11    1    3    3    0    0  0.10059814993E+02 -0.23957698354E+02 -0.14994540246E+02  0.30000123759E+02  0.51100000000E-03 0.  1.
         12    1    3    3    0    0  0.38473893206E+01  0.25233878753E+02  0.30702648411E+01  0.25709484003E+02  0.00000000000E+00 0. -1.
</event>
<event>
 7    1  0.2932741E-013  0.7246159E+02  0.7816164E-02  0.1226708E+00
        -11   -1    0    0    0    0  0.00000000000E+00  0.00000000000E+00  0.45593999997E+02  0.45594000000E+02  0.51100000000E-03 0.  1.
         11   -1    0    0    0    0 -0.00000000000E+00 -0.00000000000E+00 -0.45593999997E+02  0.45594000000E+02  0.51100000000E-03 0. -1.
    9900012    2    1    2    0    0 -0.61404919833E+01 -0.16291660575E+02  0.68959845326E+01  0.72461589538E+02  0.70000025069E+02 0.  0.
         12    1    1    2    0    0  0.61404919833E+01  0.16291660575E+02 -0.68959845326E+01  0.18726410462E+02  0.00000000000E+00 0. -1.
         11    1    3    3    0    0 -0.25309429048E+02  0.20845464264E+01 -0.73549259481E+01  0.26438749375E+02  0.51100000000E-03 0. -1.
        -11    1    3    3    0    0 -0.60892409403E+01 -0.24651896276E+00  0.13624485665E+02  0.14925355497E+02  0.51100000000E-03 0.  1.
        -12    1    3    3    0    0  0.25258178005E+02 -0.18129688039E+02  0.62642481563E+00  0.31097484666E+02  0.00000000000E+00 0.  1.
</event>
<event>
 7    1  0.2932741E-013  0.7246161E+02  0.7816164E-02  0.1226708E+00
        -11   -1    0    0    0    0  0.00000000000E+00  0.00000000000E+00  0.45593999997E+02  0.45594000000E+02  0.51100000000E-03 0.  1.
         11   -1    0    0    0    0 -0.00000000000E+00 -0.00000000000E+00 -0.45593999997E+02  0.45594000000E+02  0.51100000000E-03 0. -1.
    9900012    2    1    2    0    0 -0.15565371587E+02 -0.61657311385E+01  0.83893141192E+01  0.72461611546E+02  0.70000053738E+02 0.  0.
         12    1    1    2    0    0  0.15565371587E+02  0.61657311385E+01 -0.83893141192E+01  0.18726388454E+02  0.00000000000E+00 0. -1.
         11    1    3    3    0    0  0.16309599795E+02  0.64570054448E+01 -0.12406756743E+02  0.21485427105E+02  0.51100000000E-03 0. -1.
        -11    1    3    3    0    0 -0.32999927828E+01  0.93950394009E+01  0.77415445431E+01  0.12613018270E+02  0.51100000000E-03 0.  1.
        -12    1    3    3    0    0 -0.28574978599E+02 -0.22017775984E+02  0.13054526319E+02  0.38363166171E+02  0.00000000000E+00 0.  1.
</event>
<event>
 7    1  0.2932741E-013  0.7246166E+02  0.7816164E-02  0.1226708E+00
        -11   -1    0    0    0    0  0.00000000000E+00  0.00000000000E+00  0.45593999997E+02  0.45594000000E+02  0.51100000000E-03 0.  1.
         11   -1    0    0    0    0 -0.00000000000E+00 -0.00000000000E+00 -0.45593999997E+02  0.45594000000E+02  0.51100000000E-03 0. -1.
    9900012    2    1    2    0    0 -0.14682217804E+02  0.40592834856E+01 -0.10891766588E+02  0.72461658087E+02  0.70000114366E+02 0.  0.
         12    1    1    2    0    0  0.14682217804E+02 -0.40592834856E+01  0.10891766588E+02  0.18726341913E+02  0.00000000000E+00 0. -1.
         11    1    3    3    0    0 -0.12689161459E+02  0.48830561249E+01 -0.29753501267E+02  0.32712839889E+02  0.51100000000E-03 0.  1.
        -11    1    3    3    0    0 -0.11816896920E+02  0.88119435011E+01 -0.18773166905E+01  0.14859802128E+02  0.51100000000E-03 0. -1.
        -12    1    3    3    0    0  0.98238405753E+01 -0.96357161405E+01  0.20739051370E+02  0.24889016070E+02  0.00000000000E+00 0.  1.
</event>
<event>
 7    1  0.2932741E-013  0.7246142E+02  0.7816164E-02  0.1226708E+00
        -11   -1    0    0    0    0  0.00000000000E+00  0.00000000000E+00  0.45593999997E+02  0.45594000000E+02  0.51100000000E-03 0.  1.
         11   -1    0    0    0    0 -0.00000000000E+00 -0.00000000000E+00 -0.45593999997E+02  0.45594000000E+02  0.51100000000E-03 0. -1.
    9900012    2    1    2    0    0  0.59968357787E+01  0.56163302361E+01  0.16827942731E+02  0.72461418325E+02  0.69999802031E+02 0.  0.
         12    1    1    2    0    0 -0.59968357787E+01 -0.56163302361E+01 -0.16827942731E+02  0.18726581675E+02  0.00000000000E+00 0. -1.
         11    1    3    3    0    0  0.93905781840E+01 -0.15405816245E+02  0.43729803150E+00  0.18047530652E+02  0.51100000000E-03 0.  1.
        -11    1    3    3    0    0 -0.56734275051E+01  0.19379865301E+02 -0.13565205280E+02  0.24326564766E+02  0.51100000000E-03 0. -1.
         12    1    3    3    0    0  0.22796850998E+01  0.16422811800E+01  0.29955849980E+02  0.30087322906E+02  0.00000000000E+00 0. -1.
</event>
<event>
 7    1  0.2932741E-013  0.7246160E+02  0.7816164E-02  0.1226708E+00
        -11   -1    0    0    0    0  0.00000000000E+00  0.00000000000E+00  0.45593999997E+02  0.45594000000E+02  0.51100000000E-03 0. -1.
         11   -1    0    0    0    0 -0.00000000000E+00 -0.00000000000E+00 -0.45593999997E+02  0.45594000000E+02  0.51100000000E-03 0.  1.
    9900012    2    1    2    0    0  0.77096919289E+01 -0.10776895562E+02 -0.13232433759E+02  0.72461598029E+02  0.70000036129E+02 0.  0.
         12    1    1    2    0    0 -0.77096919289E+01  0.10776895562E+02  0.13232433759E+02  0.18726401971E+02  0.00000000000E+00 0. -1.
         11    1    3    3    0    0  0.98523580580E+01  0.11090610051E+02 -0.15734366899E+02  0.21625006186E+02  0.51100000000E-03 0. -1.
        -11    1    3    3    0    0 -0.73241944127E+01  0.54878377087E+01 -0.15272591783E+02  0.17804837729E+02  0.51100000000E-03 0.  1.
         12    1    3    3    0    0  0.51815282837E+01 -0.27355343322E+02  0.17774524922E+02  0.33031754114E+02  0.00000000000E+00 0. -1.
</event>
<event>
 7    1  0.2932741E-013  0.7246148E+02  0.7816164E-02  0.1226708E+00
        -11   -1    0    0    0    0  0.00000000000E+00  0.00000000000E+00  0.45593999997E+02  0.45594000000E+02  0.51100000000E-03 0.  1.
         11   -1    0    0    0    0 -0.00000000000E+00 -0.00000000000E+00 -0.45593999997E+02  0.45594000000E+02  0.51100000000E-03 0. -1.
    9900012    2    1    2    0    0 -0.84469455784E+01  0.55902956340E+01  0.15750569241E+02  0.72461475328E+02  0.69999876289E+02 0.  0.
         12    1    1    2    0    0  0.84469455784E+01 -0.55902956340E+01 -0.15750569241E+02  0.18726524672E+02  0.00000000000E+00 0. -1.
         11    1    3    3    0    0  0.85626612417E+01 -0.11969137102E+02  0.43049661645E+01  0.15333367029E+02  0.51100000000E-03 0. -1.
        -11    1    3    3    0    0  0.13225108943E+02  0.60789646229E+01  0.18982471232E+02  0.23920525325E+02  0.51100000000E-03 0.  1.
         12    1    3    3    0    0 -0.30234715764E+02  0.11480468113E+02 -0.75368681561E+01  0.33207582974E+02  0.00000000000E+00 0. -1.
</event>
<event>
 7    1  0.2932741E-013  0.7246164E+02  0.7816164E-02  0.1226708E+00
        -11   -1    0    0    0    0  0.00000000000E+00  0.00000000000E+00  0.45593999997E+02  0.45594000000E+02  0.51100000000E-03 0.  1.
         11   -1    0    0    0    0 -0.00000000000E+00 -0.00000000000E+00 -0.45593999997E+02  0.45594000000E+02  0.51100000000E-03 0. -1.
    9900012    2    1    2    0    0 -0.82216519743E+01 -0.72479812649E+01  0.15183798596E+02  0.72461640680E+02  0.70000091690E+02 0.  0.
         12    1    1    2    0    0  0.82216519743E+01  0.72479812649E+01 -0.15183798596E+02  0.18726359320E+02  0.00000000000E+00 0. -1.
         11    1    3    3    0    0  0.55467913251E+01  0.17714524039E+02 -0.14225501095E+02  0.23386665808E+02  0.51100000000E-03 0. -1.
        -11    1    3    3    0    0  0.31435757001E+00 -0.60834265982E+01 -0.46510859779E+01  0.76641699415E+01  0.51100000000E-03 0.  1.
        -12    1    3    3    0    0 -0.14082800869E+02 -0.18879078706E+02  0.34060385668E+02  0.41410804930E+02  0.00000000000E+00 0.  1.
</event>
<event>
 7    1  0.2932741E-013  0.7246157E+02  0.7816164E-02  0.1226708E+00
        -11   -1    0    0    0    0  0.00000000000E+00  0.00000000000E+00  0.45593999997E+02  0.45594000000E+02  0.51100000000E-03 0.  1.
         11   -1    0    0    0    0 -0.00000000000E+00 -0.00000000000E+00 -0.45593999997E+02  0.45594000000E+02  0.51100000000E-03 0. -1.
    9900012    2    1    2    0    0  0.11403166735E+01 -0.11946173829E+02  0.14375950972E+02  0.72461565272E+02  0.69999993458E+02 0.  0.
         12    1    1    2    0    0 -0.11403166735E+01  0.11946173829E+02 -0.14375950972E+02  0.18726434728E+02  0.00000000000E+00 0. -1.
         11    1    3    3    0    0 -0.22962385326E+02  0.21556587803E+00  0.60327910793E+01  0.23742623633E+02  0.51100000000E-03 0. -1.
        -11    1    3    3    0    0  0.66231872419E+01  0.13228075163E+02  0.99888918012E+01  0.17850113205E+02  0.51100000000E-03 0.  1.
        -12    1    3    3    0    0  0.17479514758E+02 -0.25389814871E+02 -0.16457319089E+01  0.30868828434E+02  0.00000000000E+00 0.  1.
</event>
<event>
 7    1  0.2932741E-013  0.7246156E+02  0.7816164E-02  0.1226708E+00
        -11   -1    0    0    0    0  0.00000000000E+00  0.00000000000E+00  0.45593999997E+02  0.45594000000E+02  0.51100000000E-03 0. -1.
         11   -1    0    0    0    0 -0.00000000000E+00 -0.00000000000E+00 -0.45593999997E+02  0.45594000000E+02  0.51100000000E-03 0.  1.
    9900012    2    1    2    0    0  0.18431564672E+02 -0.33018903111E+01 -0.23307354426E+00  0.72461564697E+02  0.69999992708E+02 0.  0.
         12    1    1    2    0    0 -0.18431564672E+02  0.33018903111E+01  0.23307354426E+00  0.18726435303E+02  0.00000000000E+00 0. -1.
         11    1    3    3    0    0  0.13894425949E+02  0.23270913219E+02  0.89808302211E+01  0.28552509280E+02  0.51100000000E-03 0. -1.
        -11    1    3    3    0    0  0.62018242566E+01  0.28495695313E+01  0.74099012397E+01  0.10074190154E+02  0.51100000000E-03 0.  1.
        -12    1    3    3    0    0 -0.16646855335E+01 -0.29422373061E+02 -0.16623805005E+02  0.33834865262E+02  0.00000000000E+00 0.  1.
</event>
<event>
 7    1  0.2932741E-013  0.7246153E+02  0.7816164E-02  0.1226708E+00
        -11   -1    0    0    0    0  0.00000000000E+00  0.00000000000E+00  0.45593999997E+02  0.45594000000E+02  0.51100000000E-03 0. -1.
         11   -1    0    0    0    0 -0.00000000000E+00 -0.00000000000E+00 -0.45593999997E+02  0.45594000000E+02  0.51100000000E-03 0.  1.
    9900012    2    1    2    0    0  0.15939456829E+02 -0.41712032481E+01  0.89003154616E+01  0.72461525803E+02  0.69999942042E+02 0.  0.
         12    1    1    2    0    0 -0.15939456829E+02  0.41712032481E+01 -0.89003154616E+01  0.18726474197E+02  0.00000000000E+00 0. -1.
         11    1    3    3    0    0  0.13844991571E+01  0.54248330204E+01 -0.63819004180E+01  0.84896586752E+01  0.51100000000E-03 0. -1.
        -11    1    3    3    0    0  0.62138262831E+01 -0.23201507387E+02 -0.15995626334E+02  0.28857956341E+02  0.51100000000E-03 0.  1.
         12    1    3    3    0    0  0.83411313884E+01  0.13605471119E+02  0.31277842214E+02  0.35113910787E+02  0.00000000000E+00 0. -1.
</event>
<event>
 7    1  0.2932741E-013  0.7246157E+02  0.7816164E-02  0.1226708E+00
        -11   -1    0    0    0    0  0.00000000000E+00  0.00000000000E+00  0.45593999997E+02  0.45594000000E+02  0.51100000000E-03 0. -1.
         11   -1    0    0    0    0 -0.00000000000E+00 -0.00000000000E+00 -0.45593999997E+02  0.45594000000E+02  0.51100000000E-03 0.  1.
    9900012    2    1    2    0    0 -0.11683523662E+02  0.14422892494E+02 -0.24808233518E+01  0.72461573818E+02  0.70000004590E+02 0.  0.
         12    1    1    2    0    0  0.11683523662E+02 -0.14422892494E+02  0.24808233518E+01  0.18726426182E+02  0.00000000000E+00 0. -1.
         11    1    3    3    0    0 -0.22822611100E+02  0.26007380388E+01 -0.15913285913E+02  0.27944016973E+02  0.51100000000E-03 0. -1.
        -11    1    3    3    0    0 -0.49712355769E+01  0.32833259196E+01 -0.11898566781E+02  0.13306739043E+02  0.51100000000E-03 0.  1.
         12    1    3    3    0    0  0.16110323014E+02  0.85388285353E+01  0.25331029342E+02  0.31210817803E+02  0.00000000000E+00 0. -1.
</event>
<event>
 7    1  0.2932741E-013  0.7246147E+02  0.7816164E-02  0.1226708E+00
        -11   -1    0    0    0    0  0.00000000000E+00  0.00000000000E+00  0.45593999997E+02  0.45594000000E+02  0.51100000000E-03 0. -1.
         11   -1    0    0    0    0 -0.00000000000E+00 -0.00000000000E+00 -0.45593999997E+02  0.45594000000E+02  0.51100000000E-03 0.  1.
    9900012    2    1    2    0    0 -0.15864538434E+02 -0.90943259465E+01 -0.40364252512E+01  0.72461466072E+02  0.69999864232E+02 0.  0.
         12    1    1    2    0    0  0.15864538434E+02  0.90943259465E+01  0.40364252512E+01  0.18726533928E+02  0.00000000000E+00 0. -1.
         11    1    3    3    0    0 -0.42636957166E+01 -0.78500256295E+00 -0.11158685602E+02  0.11971282087E+02  0.51100000000E-03 0. -1.
        -11    1    3    3    0    0 -0.22199650770E+02 -0.21679570618E+02 -0.13402336413E+02  0.33800161214E+02  0.51100000000E-03 0.  1.
         12    1    3    3    0    0  0.10598808053E+02  0.13370247235E+02  0.20524596763E+02  0.26690022772E+02  0.00000000000E+00 0. -1.
</event>
<event>
 7    1  0.2932741E-013  0.7246154E+02  0.7816164E-02  0.1226708E+00
        -11   -1    0    0    0    0  0.00000000000E+00  0.00000000000E+00  0.45593999997E+02  0.45594000000E+02  0.51100000000E-03 0.  1.
         11   -1    0    0    0    0 -0.00000000000E+00 -0.00000000000E+00 -0.45593999997E+02  0.45594000000E+02  0.51100000000E-03 0. -1.
    9900012    2    1    2    0    0  0.14044888111E+02  0.15666570266E+01  0.12286859477E+02  0.72461542458E+02  0.69999963738E+02 0.  0.
         12    1    1    2    0    0 -0.14044888111E+02 -0.15666570266E+01 -0.12286859477E+02  0.18726457542E+02  0.00000000000E+00 0. -1.
         11    1    3    3    0    0  0.19460641615E+02  0.17800883411E+02 -0.18286661740E+02  0.32093457591E+02  0.51100000000E-03 0. -1.
        -11    1    3    3    0    0 -0.10038896365E+01  0.32746139820E+01 -0.45134480360E+00  0.34546495519E+01  0.51100000000E-03 0.  1.
        -12    1    3    3    0    0 -0.44118638683E+01 -0.19508840366E+02  0.31024866020E+02  0.36913435315E+02  0.00000000000E+00 0.  1.
</event>
<event>
 7    1  0.2932741E-013  0.7246150E+02  0.7816164E-02  0.1226708E+00
        -11   -1    0    0    0    0  0.00000000000E+00  0.00000000000E+00  0.45593999997E+02  0.45594000000E+02  0.51100000000E-03 0.  1.
         11   -1    0    0    0    0 -0.00000000000E+00 -0.00000000000E+00 -0.45593999997E+02  0.45594000000E+02  0.51100000000E-03 0. -1.
    9900012    2    1    2    0    0  0.23530249047E+01  0.69218756747E+01  0.17240434549E+02  0.72461503464E+02  0.69999912941E+02 0.  0.
         12    1    1    2    0    0 -0.23530249047E+01 -0.69218756747E+01 -0.17240434549E+02  0.18726496536E+02  0.00000000000E+00 0. -1.
         11    1    3    3    0    0  0.20592137639E+02 -0.20159495540E+02 -0.84882684004E+01  0.30041506182E+02  0.51100000000E-03 0. -1.
        -11    1    3    3    0    0 -0.56473514580E+01  0.41556477807E+01  0.88492460182E+01  0.11290311879E+02  0.51100000000E-03 0.  1.
        -12    1    3    3    0    0 -0.12591761276E+02  0.22925723434E+02  0.16879456932E+02  0.31129685403E+02  0.00000000000E+00 0.  1.
</event>
<event>
 7    1  0.2932741E-013  0.7246159E+02  0.7816164E-02  0.1226708E+00
        -11   -1    0    0    0    0  0.00000000000E+00  0.00000000000E+00  0.45593999997E+02  0.45594000000E+02  0.51100000000E-03 0.  1.
         11   -1    0    0    0    0 -0.00000000000E+00 -0.00000000000E+00 -0.45593999997E+02  0.45594000000E+02  0.51100000000E-03 0. -1.
    9900012    2    1    2    0    0 -0.16564420168E+01 -0.17167577245E+01  0.18573840408E+02  0.72461585374E+02  0.70000019644E+02 0.  0.
         12    1    1    2    0    0  0.16564420168E+01  0.17167577245E+01 -0.18573840408E+02  0.18726414626E+02  0.00000000000E+00 0. -1.
         11    1    3    3    0    0  0.99144701046E+01  0.22072417427E-01 -0.28758702678E+01  0.10323169799E+02  0.51100000000E-03 0. -1.
        -11    1    3    3    0    0  0.85405387042E+01 -0.19305769287E+02  0.27588331976E+02  0.34738589358E+02  0.51100000000E-03 0.  1.
         12    1    3    3    0    0 -0.20111450826E+02  0.17566939145E+02 -0.61386213002E+01  0.27399826217E+02  0.00000000000E+00 0. -1.
</event>
<event>
 7    1  0.2932741E-013  0.7246157E+02  0.7816164E-02  0.1226708E+00
        -11   -1    0    0    0    0  0.00000000000E+00  0.00000000000E+00  0.45593999997E+02  0.45594000000E+02  0.51100000000E-03 0.  1.
         11   -1    0    0    0    0 -0.00000000000E+00 -0.00000000000E+00 -0.45593999997E+02  0.45594000000E+02  0.51100000000E-03 0. -1.
    9900012    2    1    2    0    0  0.49653678832E+01  0.13403054310E+02  0.12098860208E+02  0.72461570512E+02  0.70000000283E+02 0.  0.
         12    1    1    2    0    0 -0.49653678832E+01 -0.13403054310E+02 -0.12098860208E+02  0.18726429488E+02  0.00000000000E+00 0. -1.
         11    1    3    3    0    0 -0.81995149137E+01 -0.46553624741E+01 -0.17870129420E+02  0.20205097632E+02  0.51100000000E-03 0. -1.
        -11    1    3    3    0    0 -0.16930075211E+01 -0.10468452491E+02  0.84222110350E+01  0.13542097732E+02  0.51100000000E-03 0.  1.
        -12    1    3    3    0    0  0.14857890318E+02  0.28526869275E+02  0.21546778593E+02  0.38714375147E+02  0.00000000000E+00 0.  1.
</event>
<event>
 7    1  0.2932741E-013  0.7246162E+02  0.7816164E-02  0.1226708E+00
        -11   -1    0    0    0    0  0.00000000000E+00  0.00000000000E+00  0.45593999997E+02  0.45594000000E+02  0.51100000000E-03 0.  1.
         11   -1    0    0    0    0 -0.00000000000E+00 -0.00000000000E+00 -0.45593999997E+02  0.45594000000E+02  0.51100000000E-03 0. -1.
    9900012    2    1    2    0    0 -0.17442463930E+02  0.13405797105E+01  0.66813549499E+01  0.72461622724E+02  0.70000068299E+02 0.  0.
         12    1    1    2    0    0  0.17442463930E+02 -0.13405797105E+01 -0.66813549499E+01  0.18726377276E+02  0.00000000000E+00 0. -1.
         11    1    3    3    0    0 -0.49774999484E+01 -0.71954192995E+01 -0.61709999857E+01  0.10706577685E+02  0.51100000000E-03 0. -1.
        -11    1    3    3    0    0 -0.92597225224E+00 -0.16802093554E+02  0.25995697023E+02  0.30966821541E+02  0.51100000000E-03 0.  1.
         12    1    3    3    0    0 -0.11538991730E+02  0.25338092564E+02 -0.13143342087E+02  0.30788223498E+02  0.00000000000E+00 0. -1.
</event>
<event>
 7    1  0.2932741E-013  0.7246156E+02  0.7816164E-02  0.1226708E+00
        -11   -1    0    0    0    0  0.00000000000E+00  0.00000000000E+00  0.45593999997E+02  0.45594000000E+02  0.51100000000E-03 0.  1.
         11   -1    0    0    0    0 -0.00000000000E+00 -0.00000000000E+00 -0.45593999997E+02  0.45594000000E+02  0.51100000000E-03 0. -1.
    9900012    2    1    2    0    0  0.16920518860E+02 -0.20840674539E+01  0.77480490436E+01  0.72461559879E+02  0.69999986432E+02 0.  0.
         12    1    1    2    0    0 -0.16920518860E+02  0.20840674539E+01 -0.77480490436E+01  0.18726440121E+02  0.00000000000E+00 0. -1.
         11    1    3    3    0    0  0.16675228960E+02 -0.31670551475E+02  0.77695819339E+01  0.36625858288E+02  0.51100000000E-03 0. -1.
        -11    1    3    3    0    0  0.10426558452E+01 -0.52879556770E+00  0.51396682446E+01  0.52709530343E+01  0.51100000000E-03 0.  1.
        -12    1    3    3    0    0 -0.79736594588E+00  0.30115279589E+02 -0.51612011350E+01  0.30564748557E+02  0.00000000000E+00 0.  1.
</event>
<event>
 7    1  0.2932741E-013  0.7246142E+02  0.7816164E-02  0.1226708E+00
        -11   -1    0    0    0    0  0.00000000000E+00  0.00000000000E+00  0.45593999997E+02  0.45594000000E+02  0.51100000000E-03 0.  1.
         11   -1    0    0    0    0 -0.00000000000E+00 -0.00000000000E+00 -0.45593999997E+02  0.45594000000E+02  0.51100000000E-03 0. -1.
    9900012    2    1    2    0    0  0.34895470389E+01 -0.10922038686E+01  0.18366135332E+02  0.72461420631E+02  0.69999805036E+02 0.  0.
         12    1    1    2    0    0 -0.34895470389E+01  0.10922038686E+01 -0.18366135332E+02  0.18726579369E+02  0.00000000000E+00 0. -1.
         11    1    3    3    0    0 -0.12219811101E+02 -0.32569330267E+01 -0.10751289438E+02  0.16598843964E+02  0.51100000000E-03 0. -1.
        -11    1    3    3    0    0 -0.11996407115E+02  0.10353115038E+02  0.15363993772E+01  0.15920467894E+02  0.51100000000E-03 0.  1.
         12    1    3    3    0    0  0.27705765255E+02 -0.81883858795E+01  0.27581025392E+02  0.39942108774E+02  0.00000000000E+00 0. -1.
</event>
<event>
 7    1  0.2932741E-013  0.7246167E+02  0.7816164E-02  0.1226708E+00
        -11   -1    0    0    0    0  0.00000000000E+00  0.00000000000E+00  0.45593999997E+02  0.45594000000E+02  0.51100000000E-03 0.  1.
         11   -1    0    0    0    0 -0.00000000000E+00 -0.00000000000E+00 -0.45593999997E+02  0.45594000000E+02  0.51100000000E-03 0. -1.
    9900012    2    1    2    0    0  0.17693701863E+02  0.20061884974E+01 -0.57951345593E+01  0.72461669274E+02  0.70000128939E+02 0.  0.
         12    1    1    2    0    0 -0.17693701863E+02 -0.20061884974E+01  0.57951345593E+01  0.18726330726E+02  0.00000000000E+00 0. -1.
         11    1    3    3    0    0 -0.54652140965E+01  0.17954259038E+02 -0.25800398395E+02  0.31904302849E+02  0.51100000000E-03 0. -1.
        -11    1    3    3    0    0  0.81372281596E+01  0.20608258601E+01  0.14041860920E+02  0.16359564289E+02  0.51100000000E-03 0.  1.
        -12    1    3    3    0    0  0.15021687800E+02 -0.18008896400E+02  0.59634029151E+01  0.24197802136E+02  0.00000000000E+00 0.  1.
</event>
<event>
 7    1  0.2932741E-013  0.7246157E+02  0.7816164E-02  0.1226708E+00
        -11   -1    0    0    0    0  0.00000000000E+00  0.00000000000E+00  0.45593999997E+02  0.45594000000E+02  0.51100000000E-03 0.  1.
         11   -1    0    0    0    0 -0.00000000000E+00 -0.00000000000E+00 -0.45593999997E+02  0.45594000000E+02  0.51100000000E-03 0. -1.
    9900012    2    1    2    0    0 -0.89940288530E+01  0.15447553797E+02 -0.55820895729E+01  0.72461569552E+02  0.69999999033E+02 0.  0.
         12    1    1    2    0    0  0.89940288530E+01 -0.15447553797E+02  0.55820895729E+01  0.18726430448E+02  0.00000000000E+00 0. -1.
         11    1    3    3    0    0  0.20345327377E+02  0.99296538459E+01 -0.19915658232E+01  0.22726563890E+02  0.51100000000E-03 0. -1.
        -11    1    3    3    0    0 -0.68431055798E+01 -0.72188002234E+01 -0.17685358754E+02  0.20290664976E+02  0.51100000000E-03 0.  1.
        -12    1    3    3    0    0 -0.22496250650E+02  0.12736700175E+02  0.14094835004E+02  0.29444340686E+02  0.00000000000E+00 0.  1.
</event>
<event>
 7    1  0.2932741E-013  0.7246173E+02  0.7816164E-02  0.1226708E+00
        -11   -1    0    0    0    0  0.00000000000E+00  0.00000000000E+00  0.45593999997E+02  0.45594000000E+02  0.51100000000E-03 0. -1.
         11   -1    0    0    0    0 -0.00000000000E+00 -0.00000000000E+00 -0.45593999997E+02  0.45594000000E+02  0.51100000000E-03 0.  1.
    9900012    2    1    2    0    0  0.13769106169E+02  0.94804167483E+01 -0.84383932854E+01  0.72461733217E+02  0.70000212236E+02 0.  0.
         12    1    1    2    0    0 -0.13769106169E+02 -0.94804167483E+01  0.84383932854E+01  0.18726266783E+02  0.00000000000E+00 0. -1.
         11    1    3    3    0    0 -0.66753210206E+01  0.36980893135E+01  0.14911345754E+02  0.16750642010E+02  0.51100000000E-03 0. -1.
        -11    1    3    3    0    0 -0.99402690389E+01  0.80146380617E+01  0.53604294318E+01  0.13848378092E+02  0.51100000000E-03 0.  1.
        -12    1    3    3    0    0  0.30384696228E+02 -0.22323106268E+01 -0.28710168471E+02  0.41862713114E+02  0.00000000000E+00 0.  1.
</event>
<event>
 7    1  0.2932741E-013  0.7246158E+02  0.7816164E-02  0.1226708E+00
        -11   -1    0    0    0    0  0.00000000000E+00  0.00000000000E+00  0.45593999997E+02  0.45594000000E+02  0.51100000000E-03 0. -1.
         11   -1    0    0    0    0 -0.00000000000E+00 -0.00000000000E+00 -0.45593999997E+02  0.45594000000E+02  0.51100000000E-03 0.  1.
    9900012    2    1    2    0    0  0.16371524917E+02 -0.36608879782E+01  0.83216424424E+01  0.72461583850E+02  0.70000017658E+02 0.  0.
         12    1    1    2    0    0 -0.16371524917E+02  0.36608879782E+01 -0.83216424424E+01  0.18726416150E+02  0.00000000000E+00 0. -1.
         11    1    3    3    0    0 -0.13253482282E+02  0.12794747285E+02  0.84029366153E+01  0.20247708382E+02  0.51100000000E-03 0. -1.
        -11    1    3    3    0    0 -0.90744697012E+00 -0.17716892168E+02  0.95838037255E+01  0.20163358406E+02  0.51100000000E-03 0.  1.
         12    1    3    3    0    0  0.30532454169E+02  0.12612569042E+01 -0.96650978984E+01  0.32050517062E+02  0.00000000000E+00 0. -1.
</event>
<event>
 7    1  0.2932741E-013  0.7246158E+02  0.7816164E-02  0.1226708E+00
        -11   -1    0    0    0    0  0.00000000000E+00  0.00000000000E+00  0.45593999997E+02  0.45594000000E+02  0.51100000000E-03 0.  1.
         11   -1    0    0    0    0 -0.00000000000E+00 -0.00000000000E+00 -0.45593999997E+02  0.45594000000E+02  0.51100000000E-03 0. -1.
    9900012    2    1    2    0    0 -0.45041974540E+01  0.15973870034E+02  0.86733262026E+01  0.72461577331E+02  0.70000009166E+02 0.  0.
         12    1    1    2    0    0  0.45041974540E+01 -0.15973870034E+02 -0.86733262026E+01  0.18726422669E+02  0.00000000000E+00 0. -1.
         11    1    3    3    0    0  0.58121610191E+01  0.33117365374E+02  0.59254792208E+01  0.34141652117E+02  0.51100000000E-03 0. -1.
        -11    1    3    3    0    0 -0.42746522491E+01 -0.63417586910E+01  0.17479446074E+02  0.19079349844E+02  0.51100000000E-03 0.  1.
        -12    1    3    3    0    0 -0.60417062240E+01 -0.10801736649E+02 -0.14731599093E+02  0.19240575370E+02  0.00000000000E+00 0.  1.
</event>
<event>
 7    1  0.2932741E-013  0.7246159E+02  0.7816164E-02  0.1226708E+00
        -11   -1    0    0    0    0  0.00000000000E+00  0.00000000000E+00  0.45593999997E+02  0.45594000000E+02  0.51100000000E-03 0. -1.
         11   -1    0    0    0    0 -0.00000000000E+00 -0.00000000000E+00 -0.45593999997E+02  0.45594000000E+02  0.51100000000E-03 0.  1.
    9900012    2    1    2    0    0 -0.67289597793E+01  0.16689389414E+02 -0.51830487932E+01  0.72461585140E+02  0.70000019339E+02 0.  0.
         12    1    1    2    0    0  0.67289597793E+01 -0.16689389414E+02  0.51830487932E+01  0.18726414860E+02  0.00000000000E+00 0. -1.
         11    1    3    3    0    0 -0.17433589956E+02  0.52819205639E+01 -0.70732840085E+01  0.19541240762E+02  0.51100000000E-03 0. -1.
        -11    1    3    3    0    0  0.83803102954E+00  0.29239426096E+02  0.10104617686E+02  0.30947530326E+02  0.51100000000E-03 0.  1.
         12    1    3    3    0    0  0.98665991470E+01 -0.17831957247E+02 -0.82143824708E+01  0.21972814052E+02  0.00000000000E+00 0. -1.
</event>
<event>
 7    1  0.2932741E-013  0.7246158E+02  0.7816164E-02  0.1226708E+00
        -11   -1    0    0    0    0  0.00000000000E+00  0.00000000000E+00  0.45593999997E+02  0.45594000000E+02  0.51100000000E-03 0.  1.
         11   -1    0    0    0    0 -0.00000000000E+00 -0.00000000000E+00 -0.45593999997E+02  0.45594000000E+02  0.51100000000E-03 0. -1.
    9900012    2    1    2    0    0 -0.14153129521E+02 -0.11390062032E+02  0.45424912100E+01  0.72461579767E+02  0.70000012340E+02 0.  0.
         12    1    1    2    0    0  0.14153129521E+02  0.11390062032E+02 -0.45424912100E+01  0.18726420233E+02  0.00000000000E+00 0. -1.
         11    1    3    3    0    0 -0.23931055184E+02 -0.13387899289E+02  0.27359589286E+00  0.27422729706E+02  0.51100000000E-03 0. -1.
        -11    1    3    3    0    0  0.46300587501E-01  0.94770937753E+01  0.21723572506E+02  0.23700866078E+02  0.51100000000E-03 0.  1.
         12    1    3    3    0    0  0.97316250756E+01 -0.74792565192E+01 -0.17454677189E+02  0.21337983983E+02  0.00000000000E+00 0. -1.
</event>
<event>
 7    1  0.2932741E-013  0.7246161E+02  0.7816164E-02  0.1226708E+00
        -11   -1    0    0    0    0  0.00000000000E+00  0.00000000000E+00  0.45593999997E+02  0.45594000000E+02  0.51100000000E-03 0.  1.
         11   -1    0    0    0    0 -0.00000000000E+00 -0.00000000000E+00 -0.45593999997E+02  0.45594000000E+02  0.51100000000E-03 0. -1.
    9900012    2    1    2    0    0  0.45497302314E+01 -0.17008951965E+02  0.63775508645E+01  0.72461610942E+02  0.70000052951E+02 0.  0.
         12    1    1    2    0    0 -0.45497302314E+01  0.17008951965E+02 -0.63775508645E+01  0.18726389058E+02  0.00000000000E+00 0. -1.
         11    1    3    3    0    0  0.16558754551E+01 -0.14857416427E+02  0.21892955051E+02  0.26510115570E+02  0.51100000000E-03 0. -1.
        -11    1    3    3    0    0  0.19875796917E+02  0.15433161499E+01  0.34450823997E+01  0.20231107750E+02  0.51100000000E-03 0.  1.
         12    1    3    3    0    0 -0.16981942140E+02 -0.36948516881E+01 -0.18960486586E+02  0.25720387622E+02  0.00000000000E+00 0. -1.
</event>
<event>
 7    1  0.2932741E-013  0.7246153E+02  0.7816164E-02  0.1226708E+00
        -11   -1    0    0    0    0  0.00000000000E+00  0.00000000000E+00  0.45593999997E+02  0.45594000000E+02  0.51100000000E-03 0.  1.
         11   -1    0    0    0    0 -0.00000000000E+00 -0.00000000000E+00 -0.45593999997E+02  0.45594000000E+02  0.51100000000E-03 0. -1.
    9900012    2    1    2    0    0  0.16906833909E+02  0.54416285371E+01  0.59353480539E+01  0.72461529151E+02  0.69999946403E+02 0.  0.
         12    1    1    2    0    0 -0.16906833909E+02 -0.54416285371E+01 -0.59353480539E+01  0.18726470849E+02  0.00000000000E+00 0. -1.
         11    1    3    3    0    0  0.17402933963E+02  0.18595347728E+02 -0.18180480847E+02  0.31291835224E+02  0.51100000000E-03 0. -1.
        -11    1    3    3    0    0  0.53277349677E+01 -0.15004410625E+02 -0.37637875103E+00  0.15926668180E+02  0.51100000000E-03 0.  1.
         12    1    3    3    0    0 -0.58238350216E+01  0.18506914347E+01  0.24492207652E+02  0.25243025746E+02  0.00000000000E+00 0. -1.
</event>
<event>
 7    1  0.2932741E-013  0.7246161E+02  0.7816164E-02  0.1226708E+00
        -11   -1    0    0    0    0  0.00000000000E+00  0.00000000000E+00  0.45593999997E+02  0.45594000000E+02  0.51100000000E-03 0. -1.
         11   -1    0    0    0    0 -0.00000000000E+00 -0.00000000000E+00 -0.45593999997E+02  0.45594000000E+02  0.51100000000E-03 0.  1.
    9900012    2    1    2    0    0  0.11533623959E+02  0.49112850780E+01 -0.13911601043E+02  0.72461605624E+02  0.70000046023E+02 0.  0.
         12    1    1    2    0    0 -0.11533623959E+02 -0.49112850780E+01  0.13911601043E+02  0.18726394376E+02  0.00000000000E+00 0. -1.
         11    1    3    3    0    0  0.18845429206E+02 -0.21330757024E+01 -0.11099266943E+02  0.21974847914E+02  0.51100000000E-03 0. -1.
        -11    1    3    3    0    0  0.35421608309E+01  0.14266410033E+02 -0.22498607258E+02  0.26874982556E+02  0.51100000000E-03 0.  1.
        -12    1    3    3    0    0 -0.10853966078E+02 -0.72220492523E+01  0.19686273158E+02  0.23611775153E+02  0.00000000000E+00 0.  1.
</event>
<event>
 7    1  0.2932741E-013  0.7246160E+02  0.7816164E-02  0.1226708E+00
        -11   -1    0    0    0    0  0.00000000000E+00  0.00000000000E+00  0.45593999997E+02  0.45594000000E+02  0.51100000000E-03 0. -1.
         11   -1    0    0    0    0 -0.00000000000E+00 -0.00000000000E+00 -0.45593999997E+02  0.45594000000E+02  0.51100000000E-03 0.  1.
    9900012    2    1    2    0    0 -0.34171538315E+01 -0.13410809748E+02 -0.12615523043E+02  0.72461596714E+02  0.70000034416E+02 0.  0.
         12    1    1    2    0    0  0.34171538315E+01  0.13410809748E+02  0.12615523043E+02  0.18726403286E+02  0.00000000000E+00 0. -1.
         11    1    3    3    0    0  0.95961569618E+01  0.99958030615E+01 -0.27125214480E+02  0.30459474193E+02  0.51100000000E-03 0. -1.
        -11    1    3    3    0    0  0.55708085150E+01  0.28039283771E+01 -0.10132974291E+01  0.63184407725E+01  0.51100000000E-03 0.  1.
        -12    1    3    3    0    0 -0.18584119308E+02 -0.26210541186E+02  0.15522988866E+02  0.35683681748E+02  0.00000000000E+00 0.  1.
</event>
<event>
 7    1  0.2932741E-013  0.7246171E+02  0.7816164E-02  0.1226708E+00
        -11   -1    0    0    0    0  0.00000000000E+00  0.00000000000E+00  0.45593999997E+02  0.45594000000E+02  0.51100000000E-03 0.  1.
         11   -1    0    0    0    0 -0.00000000000E+00 -0.00000000000E+00 -0.45593999997E+02  0.45594000000E+02  0.51100000000E-03 0. -1.
    9900012    2    1    2    0    0 -0.94224828212E+01  0.95619399933E+01 -0.13056036276E+02  0.72461709332E+02  0.70000181122E+02 0.  0.
         12    1    1    2    0    0  0.94224828212E+01 -0.95619399933E+01  0.13056036276E+02  0.18726290668E+02  0.00000000000E+00 0. -1.
         11    1    3    3    0    0  0.48841906198E+01 -0.30793563465E+01 -0.16222038736E+02  0.17218951610E+02  0.51100000000E-03 0. -1.
        -11    1    3    3    0    0  0.66027783101E+01  0.26630221985E+02  0.99527318397E+01  0.29185994513E+02  0.51100000000E-03 0.  1.
         12    1    3    3    0    0 -0.20909451751E+02 -0.13988925646E+02 -0.67867293790E+01  0.26056763209E+02  0.00000000000E+00 0. -1.
</event>
<event>
 7    1  0.2932741E-013  0.7246151E+02  0.7816164E-02  0.1226708E+00
        -11   -1    0    0    0    0  0.00000000000E+00  0.00000000000E+00  0.45593999997E+02  0.45594000000E+02  0.51100000000E-03 0.  1.
         11   -1    0    0    0    0 -0.00000000000E+00 -0.00000000000E+00 -0.45593999997E+02  0.45594000000E+02  0.51100000000E-03 0. -1.
    9900012    2    1    2    0    0  0.14921689880E+02 -0.90795190767E+01  0.67518171980E+01  0.72461507242E+02  0.69999917863E+02 0.  0.
         12    1    1    2    0    0 -0.14921689880E+02  0.90795190767E+01 -0.67518171980E+01  0.18726492758E+02  0.00000000000E+00 0. -1.
         11    1    3    3    0    0 -0.64367216883E+00 -0.52827161755E+01 -0.21921467055E+02  0.22558194125E+02  0.51100000000E-03 0. -1.
        -11    1    3    3    0    0  0.13934556770E+01 -0.91998433580E+01 -0.66664543285E+01  0.11446416475E+02  0.51100000000E-03 0.  1.
        -12    1    3    3    0    0  0.14171906371E+02  0.54030404568E+01  0.35339738582E+02  0.38456896643E+02  0.00000000000E+00 0.  1.
</event>
<event>
 7    1  0.2932741E-013  0.7246158E+02  0.7816164E-02  0.1226708E+00
        -11   -1    0    0    0    0  0.00000000000E+00  0.00000000000E+00  0.45593999997E+02  0.45594000000E+02  0.51100000000E-03 0. -1.
         11   -1    0    0    0    0 -0.00000000000E+00 -0.00000000000E+00 -0.45593999997E+02  0.45594000000E+02  0.51100000000E-03 0.  1.
    9900012    2    1    2    0    0  0.43453526007E+01 -0.53063734729E+01 -0.17425241588E+02  0.72461581948E+02  0.70000015181E+02 0.  0.
         12    1    1    2    0    0 -0.43453526007E+01  0.53063734729E+01  0.17425241588E+02  0.18726418052E+02  0.00000000000E+00 0. -1.
         11    1    3    3    0    0 -0.11924700808E+01 -0.75994468015E+01  0.22454825043E+02  0.23735895697E+02  0.51100000000E-03 0. -1.
        -11    1    3    3    0    0 -0.63968993024E+01 -0.22882319412E+01  0.55312455378E-01  0.67940699018E+01  0.51100000000E-03 0.  1.
         12    1    3    3    0    0  0.11934721984E+02  0.45813052698E+01 -0.39935379087E+02  0.41931616349E+02  0.00000000000E+00 0. -1.
</event>
<event>
 7    1  0.2932741E-013  0.7246158E+02  0.7816164E-02  0.1226708E+00
        -11   -1    0    0    0    0  0.00000000000E+00  0.00000000000E+00  0.45593999997E+02  0.45594000000E+02  0.51100000000E-03 0. -1.
         11   -1    0    0    0    0 -0.00000000000E+00 -0.00000000000E+00 -0.45593999997E+02  0.45594000000E+02  0.51100000000E-03 0.  1.
    9900012    2    1    2    0    0  0.94892532132E+01  0.10253275241E+02 -0.12470100772E+02  0.72461575008E+02  0.70000006140E+02 0.  0.
         12    1    1    2    0    0 -0.94892532132E+01 -0.10253275241E+02  0.12470100772E+02  0.18726424992E+02  0.00000000000E+00 0. -1.
         11    1    3    3    0    0 -0.13158773306E+02 -0.10196991959E+02  0.19836713626E+02  0.25896470178E+02  0.51100000000E-03 0. -1.
        -11    1    3    3    0    0  0.37914710674E+01 -0.17726844203E+01 -0.24898415427E+01  0.48700076055E+01  0.51100000000E-03 0.  1.
        -12    1    3    3    0    0  0.18856555452E+02  0.22222951620E+02 -0.29816972856E+02  0.41695097224E+02  0.00000000000E+00 0.  1.
</event>
<event>
 7    1  0.2932741E-013  0.7246179E+02  0.7816164E-02  0.1226707E+00
        -11   -1    0    0    0    0  0.00000000000E+00  0.00000000000E+00  0.45593999997E+02  0.45594000000E+02  0.51100000000E-03 0.  1.
         11   -1    0    0    0    0 -0.00000000000E+00 -0.00000000000E+00 -0.45593999997E+02  0.45594000000E+02  0.51100000000E-03 0. -1.
    9900012    2    1    2    0    0 -0.94475406486E+01 -0.15289347037E+02  0.52584171232E+01  0.72461785546E+02  0.70000280405E+02 0.  0.
         12    1    1    2    0    0  0.94475406486E+01  0.15289347037E+02 -0.52584171232E+01  0.18726214454E+02  0.00000000000E+00 0. -1.
         11    1    3    3    0    0  0.14341019872E+02 -0.13852462396E+02  0.75146665558E+01  0.21307880681E+02  0.51100000000E-03 0. -1.
        -11    1    3    3    0    0 -0.11073156225E+02 -0.11655805820E+02  0.18658615910E+02  0.24629586801E+02  0.51100000000E-03 0.  1.
         12    1    3    3    0    0 -0.12715404296E+02  0.10218921179E+02 -0.20914865342E+02  0.26524318064E+02  0.00000000000E+00 0. -1.
</event>
<event>
 7    1  0.2932741E-013  0.7246156E+02  0.7816164E-02  0.1226708E+00
        -11   -1    0    0    0    0  0.00000000000E+00  0.00000000000E+00  0.45593999997E+02  0.45594000000E+02  0.51100000000E-03 0. -1.
         11   -1    0    0    0    0 -0.00000000000E+00 -0.00000000000E+00 -0.45593999997E+02  0.45594000000E+02  0.51100000000E-03 0.  1.
    9900012    2    1    2    0    0 -0.81872306347E+01 -0.16258539687E+02  0.43941724559E+01  0.72461558539E+02  0.69999984686E+02 0.  0.
         12    1    1    2    0    0  0.81872306347E+01  0.16258539687E+02 -0.43941724559E+01  0.18726441461E+02  0.00000000000E+00 0. -1.
         11    1    3    3    0    0  0.71189131534E+01 -0.22179930804E+02  0.57257110946E+00  0.23301418260E+02  0.51100000000E-03 0.  1.
        -11    1    3    3    0    0 -0.12027639520E+02 -0.12734977819E+02  0.18289355044E+02  0.25324776024E+02  0.51100000000E-03 0. -1.
        -12    1    3    3    0    0 -0.32785042681E+01  0.18656368936E+02 -0.14467753698E+02  0.23835364255E+02  0.00000000000E+00 0.  1.
</event>
<event>
 7    1  0.2932741E-013  0.7246163E+02  0.7816164E-02  0.1226708E+00
        -11   -1    0    0    0    0  0.00000000000E+00  0.00000000000E+00  0.45593999997E+02  0.45594000000E+02  0.51100000000E-03 0.  1.
         11   -1    0    0    0    0 -0.00000000000E+00 -0.00000000000E+00 -0.45593999997E+02  0.45594000000E+02  0.51100000000E-03 0. -1.
    9900012    2    1    2    0    0 -0.54329368525E+01 -0.17003493053E+02 -0.56605055052E+01  0.72461630853E+02  0.70000078889E+02 0.  0.
         12    1    1    2    0    0  0.54329368525E+01  0.17003493053E+02  0.56605055052E+01  0.18726369147E+02  0.00000000000E+00 0. -1.
         11    1    3    3    0    0 -0.42057687800E+01  0.13450435409E+02  0.15365701707E+01  0.14176168449E+02  0.51100000000E-03 0. -1.
        -11    1    3    3    0    0 -0.23543991936E+02 -0.22171760165E+02  0.28123632825E+01  0.32462530594E+02  0.51100000000E-03 0.  1.
         12    1    3    3    0    0  0.22316823863E+02 -0.82821682978E+01 -0.10009438958E+02  0.25822931811E+02  0.00000000000E+00 0. -1.
</event>
<event>
 7    1  0.2932741E-013  0.7246164E+02  0.7816164E-02  0.1226708E+00
        -11   -1    0    0    0    0  0.00000000000E+00  0.00000000000E+00  0.45593999997E+02  0.45594000000E+02  0.51100000000E-03 0.  1.
         11   -1    0    0    0    0 -0.00000000000E+00 -0.00000000000E+00 -0.45593999997E+02  0.45594000000E+02  0.51100000000E-03 0. -1.
    9900012    2    1    2    0    0  0.33341046945E+00 -0.79784793971E+01  0.16938400591E+02  0.72461635948E+02  0.70000085526E+02 0.  0.
         12    1    1    2    0    0 -0.33341046945E+00  0.79784793971E+01 -0.16938400591E+02  0.18726364052E+02  0.00000000000E+00 0. -1.
         11    1    3    3    0    0  0.11623014977E+01  0.86453834269E+01 -0.56631963270E+01  0.10400259240E+02  0.51100000000E-03 0. -1.
        -11    1    3    3    0    0  0.19532964242E+02  0.91960217613E+01  0.19396443028E+02  0.29022844635E+02  0.51100000000E-03 0.  1.
        -12    1    3    3    0    0 -0.20361855271E+02 -0.25819884585E+02  0.32051538901E+01  0.33038532073E+02  0.00000000000E+00 0.  1.
</event>
<event>
 7    1  0.2932741E-013  0.7246166E+02  0.7816164E-02  0.1226708E+00
        -11   -1    0    0    0    0  0.00000000000E+00  0.00000000000E+00  0.45593999997E+02  0.45594000000E+02  0.51100000000E-03 0.  1.
         11   -1    0    0    0    0 -0.00000000000E+00 -0.00000000000E+00 -0.45593999997E+02  0.45594000000E+02  0.51100000000E-03 0. -1.
    9900012    2    1    2    0    0 -0.94818388251E+00  0.18662751841E+02  0.12158765902E+01  0.72461662535E+02  0.70000120161E+02 0.  0.
         12    1    1    2    0    0  0.94818388251E+00 -0.18662751841E+02 -0.12158765902E+01  0.18726337465E+02  0.00000000000E+00 0. -1.
         11    1    3    3    0    0  0.14985769780E+00  0.11923687076E+02 -0.22053845213E+01  0.12126850043E+02  0.51100000000E-03 0. -1.
        -11    1    3    3    0    0 -0.25365249164E+02  0.14270156778E+02  0.14617497660E+02  0.32568458326E+02  0.51100000000E-03 0.  1.
         12    1    3    3    0    0  0.24267207584E+02 -0.75310920129E+01 -0.11196236549E+02  0.27766354166E+02  0.00000000000E+00 0. -1.
</event>
<event>
 7    1  0.2932741E-013  0.7246157E+02  0.7816164E-02  0.1226708E+00
        -11   -1    0    0    0    0  0.00000000000E+00  0.00000000000E+00  0.45593999997E+02  0.45594000000E+02  0.51100000000E-03 0.  1.
         11   -1    0    0    0    0 -0.00000000000E+00 -0.00000000000E+00 -0.45593999997E+02  0.45594000000E+02  0.51100000000E-03 0. -1.
    9900012    2    1    2    0    0  0.15123932762E+02 -0.11009805647E+02  0.85439369434E+00  0.72461570785E+02  0.70000000639E+02 0.  0.
         12    1    1    2    0    0 -0.15123932762E+02  0.11009805647E+02 -0.85439369434E+00  0.18726429215E+02  0.00000000000E+00 0. -1.
         11    1    3    3    0    0 -0.16706751147E+01  0.65103245610E+01  0.26991759264E+01  0.72429988383E+01  0.51100000000E-03 0. -1.
        -11    1    3    3    0    0 -0.22761527191E+02 -0.29187417250E+01 -0.21898162705E+01  0.23052146730E+02  0.51100000000E-03 0.  1.
         12    1    3    3    0    0  0.39556135067E+02 -0.14601388483E+02  0.34503403845E+00  0.42166425217E+02  0.00000000000E+00 0. -1.
</event>
<event>
 7    1  0.2932741E-013  0.7246160E+02  0.7816164E-02  0.1226708E+00
        -11   -1    0    0    0    0  0.00000000000E+00  0.00000000000E+00  0.45593999997E+02  0.45594000000E+02  0.51100000000E-03 0.  1.
         11   -1    0    0    0    0 -0.00000000000E+00 -0.00000000000E+00 -0.45593999997E+02  0.45594000000E+02  0.51100000000E-03 0. -1.
    9900012    2    1    2    0    0 -0.38697187371E+01 -0.49223666513E+01  0.17648611666E+02  0.72461603916E+02  0.70000043799E+02 0.  0.
         12    1    1    2    0    0  0.38697187371E+01  0.49223666513E+01 -0.17648611666E+02  0.18726396084E+02  0.00000000000E+00 0. -1.
         11    1    3    3    0    0  0.99111859398E+01  0.52833557298E+01 -0.24582539896E+01  0.11497324360E+02  0.51100000000E-03 0. -1.
        -11    1    3    3    0    0 -0.13948415209E+02  0.18544470174E+02  0.22231011475E+02  0.32135238171E+02  0.51100000000E-03 0.  1.
         12    1    3    3    0    0  0.16751053197E+00 -0.28750192555E+02 -0.21241458196E+01  0.28829041385E+02  0.00000000000E+00 0. -1.
</event>
<event>
 7    1  0.2932741E-013  0.7246160E+02  0.7816164E-02  0.1226708E+00
        -11   -1    0    0    0    0  0.00000000000E+00  0.00000000000E+00  0.45593999997E+02  0.45594000000E+02  0.51100000000E-03 0. -1.
         11   -1    0    0    0    0 -0.00000000000E+00 -0.00000000000E+00 -0.45593999997E+02  0.45594000000E+02  0.51100000000E-03 0.  1.
    9900012    2    1    2    0    0 -0.84965176630E+01 -0.14587036738E+02 -0.81058948453E+01  0.72461601936E+02  0.70000041220E+02 0.  0.
         12    1    1    2    0    0  0.84965176630E+01  0.14587036738E+02  0.81058948453E+01  0.18726398064E+02  0.00000000000E+00 0. -1.
         11    1    3    3    0    0  0.15668780673E+01 -0.12950717927E+02 -0.57613433773E+01  0.14260760130E+02  0.51100000000E-03 0. -1.
        -11    1    3    3    0    0  0.19290496821E+02 -0.52570504498E+01 -0.16015777634E+02  0.25617669303E+02  0.51100000000E-03 0.  1.
         12    1    3    3    0    0 -0.29353892551E+02  0.36207316389E+01  0.13671226166E+02  0.32583172504E+02  0.00000000000E+00 0. -1.
</event>
<event>
 7    1  0.3195684E-013  0.7246156E+02  0.7816164E-02  0.1226708E+00
        -11   -1    0    0    0    0  0.00000000000E+00  0.00000000000E+00  0.45593999997E+02  0.45594000000E+02  0.51100000000E-03 0. -1.
         11   -1    0    0    0    0 -0.00000000000E+00 -0.00000000000E+00 -0.45593999997E+02  0.45594000000E+02  0.51100000000E-03 0.  1.
    9900012    2    1    2    0    0 -0.87360922321E+01  0.49854342466E+01 -0.15795746518E+02  0.72461562267E+02  0.69999989543E+02 0.  0.
         12    1    1    2    0    0  0.87360922321E+01 -0.49854342466E+01  0.15795746518E+02  0.18726437733E+02  0.00000000000E+00 0. -1.
         11    1    3    3    0    0  0.14844927519E+02  0.13435002548E+02  0.42819046616E+01  0.20474517682E+02  0.51100000000E-03 0. -1.
        -11    1    3    3    0    0 -0.15750775728E+02  0.22219490115E+01  0.10231948685E+02  0.18913401798E+02  0.51100000000E-03 0.  1.
        -12    1    3    3    0    0 -0.78302440235E+01 -0.10671517313E+02 -0.30309599865E+02  0.33073642787E+02  0.00000000000E+00 0.  1.
</event>
<event>
 7    1  0.2932741E-013  0.7246166E+02  0.7816164E-02  0.1226708E+00
        -11   -1    0    0    0    0  0.00000000000E+00  0.00000000000E+00  0.45593999997E+02  0.45594000000E+02  0.51100000000E-03 0. -1.
         11   -1    0    0    0    0 -0.00000000000E+00 -0.00000000000E+00 -0.45593999997E+02  0.45594000000E+02  0.51100000000E-03 0.  1.
    9900012    2    1    2    0    0 -0.13591287844E+02 -0.11851599955E+02  0.50489984870E+01  0.72461657258E+02  0.70000113287E+02 0.  0.
         12    1    1    2    0    0  0.13591287844E+02  0.11851599955E+02 -0.50489984870E+01  0.18726342742E+02  0.00000000000E+00 0. -1.
         11    1    3    3    0    0  0.36505809723E+01 -0.15395393365E+02  0.13261079946E+02  0.20644639012E+02  0.51100000000E-03 0. -1.
        -11    1    3    3    0    0 -0.97725307036E+01 -0.22164688038E+02 -0.18124213007E+01  0.24291163484E+02  0.51100000000E-03 0.  1.
        -12    1    3    3    0    0 -0.74693381129E+01  0.25708481449E+02 -0.63996601587E+01  0.27525854762E+02  0.00000000000E+00 0.  1.
</event>
<event>
 7    1  0.2932741E-013  0.7246158E+02  0.7816164E-02  0.1226708E+00
        -11   -1    0    0    0    0  0.00000000000E+00  0.00000000000E+00  0.45593999997E+02  0.45594000000E+02  0.51100000000E-03 0.  1.
         11   -1    0    0    0    0 -0.00000000000E+00 -0.00000000000E+00 -0.45593999997E+02  0.45594000000E+02  0.51100000000E-03 0. -1.
    9900012    2    1    2    0    0  0.61570684197E+01 -0.69331843039E+01  0.16269617182E+02  0.72461575372E+02  0.70000006614E+02 0.  0.
         12    1    1    2    0    0 -0.61570684197E+01  0.69331843039E+01 -0.16269617182E+02  0.18726424628E+02  0.00000000000E+00 0. -1.
         11    1    3    3    0    0  0.11933964224E+01 -0.13048676734E+02 -0.47610209336E+01  0.13941286889E+02  0.51100000000E-03 0. -1.
        -11    1    3    3    0    0  0.99037850843E+00 -0.88516238270E+01 -0.16039005795E+02  0.18346165843E+02  0.51100000000E-03 0.  1.
        -12    1    3    3    0    0  0.39732934889E+01  0.14967116257E+02  0.37069643911E+02  0.40174122640E+02  0.00000000000E+00 0.  1.
</event>
<event>
 7    1  0.2932741E-013  0.7246160E+02  0.7816164E-02  0.1226708E+00
        -11   -1    0    0    0    0  0.00000000000E+00  0.00000000000E+00  0.45593999997E+02  0.45594000000E+02  0.51100000000E-03 0.  1.
         11   -1    0    0    0    0 -0.00000000000E+00 -0.00000000000E+00 -0.45593999997E+02  0.45594000000E+02  0.51100000000E-03 0. -1.
    9900012    2    1    2    0    0  0.11653477558E+02  0.10578408306E+01  0.14620381374E+02  0.72461598371E+02  0.70000036576E+02 0.  0.
         12    1    1    2    0    0 -0.11653477558E+02 -0.10578408306E+01 -0.14620381374E+02  0.18726401629E+02  0.00000000000E+00 0. -1.
         11    1    3    3    0    0  0.26499727296E+00  0.11759654873E+01  0.20234128704E+02  0.20270004515E+02  0.51100000000E-03 0. -1.
        -11    1    3    3    0    0  0.73457040376E+01  0.11099359598E+02  0.19950764107E+02  0.23983080286E+02  0.51100000000E-03 0.  1.
         12    1    3    3    0    0  0.40427762478E+01 -0.11217484255E+02 -0.25564511437E+02  0.28208513570E+02  0.00000000000E+00 0. -1.
</event>
<event>
 7    1  0.2932741E-013  0.7246155E+02  0.7816164E-02  0.1226708E+00
        -11   -1    0    0    0    0  0.00000000000E+00  0.00000000000E+00  0.45593999997E+02  0.45594000000E+02  0.51100000000E-03 0. -1.
         11   -1    0    0    0    0 -0.00000000000E+00 -0.00000000000E+00 -0.45593999997E+02  0.45594000000E+02  0.51100000000E-03 0.  1.
    9900012    2    1    2    0    0 -0.57569290924E+01  0.78096137724E+01 -0.16017105023E+02  0.72461549371E+02  0.69999972743E+02 0.  0.
         12    1    1    2    0    0  0.57569290924E+01 -0.78096137724E+01  0.16017105023E+02  0.18726450629E+02  0.00000000000E+00 0. -1.
         11    1    3    3    0    0 -0.26711255788E+01 -0.45231728054E+01 -0.45715967176E+01  0.69637275143E+01  0.51100000000E-03 0. -1.
        -11    1    3    3    0    0  0.12015929927E+02  0.17083984973E+02 -0.32817840619E+02  0.38900588398E+02  0.51100000000E-03 0.  1.
         12    1    3    3    0    0 -0.15101733441E+02 -0.47511983949E+01  0.21372332314E+02  0.26597233458E+02  0.00000000000E+00 0. -1.
</event>
<event>
 7    1  0.2932741E-013  0.7246152E+02  0.7816164E-02  0.1226708E+00
        -11   -1    0    0    0    0  0.00000000000E+00  0.00000000000E+00  0.45593999997E+02  0.45594000000E+02  0.51100000000E-03 0.  1.
         11   -1    0    0    0    0 -0.00000000000E+00 -0.00000000000E+00 -0.45593999997E+02  0.45594000000E+02  0.51100000000E-03 0. -1.
    9900012    2    1    2    0    0 -0.27321755908E+01 -0.18918061576E-01  0.18526082877E+02  0.72461524407E+02  0.69999940224E+02 0.  0.
         12    1    1    2    0    0  0.27321755908E+01  0.18918061576E-01 -0.18526082877E+02  0.18726475593E+02  0.00000000000E+00 0. -1.
         11    1    3    3    0    0  0.24015679630E+01  0.17981680497E+02  0.11236595692E+02  0.21339387179E+02  0.51100000000E-03 0.  1.
        -11    1    3    3    0    0 -0.65779418060E+01 -0.33271103697E+02 -0.50026900790E+00  0.33918813790E+02  0.51100000000E-03 0. -1.
         12    1    3    3    0    0  0.14441982522E+01  0.15270505138E+02  0.77897561933E+01  0.17203323438E+02  0.00000000000E+00 0. -1.
</event>
<event>
 7    1  0.2932741E-013  0.7246157E+02  0.7816164E-02  0.1226708E+00
        -11   -1    0    0    0    0  0.00000000000E+00  0.00000000000E+00  0.45593999997E+02  0.45594000000E+02  0.51100000000E-03 0.  1.
         11   -1    0    0    0    0 -0.00000000000E+00 -0.00000000000E+00 -0.45593999997E+02  0.45594000000E+02  0.51100000000E-03 0. -1.
    9900012    2    1    2    0    0 -0.15427111474E+02  0.17600616026E+01 -0.10468311449E+02  0.72461571353E+02  0.70000001379E+02 0.  0.
         12    1    1    2    0    0  0.15427111474E+02 -0.17600616026E+01  0.10468311449E+02  0.18726428647E+02  0.00000000000E+00 0. -1.
         11    1    3    3    0    0 -0.12245428117E+02 -0.11242842629E+02 -0.19355215465E+02  0.25514238889E+02  0.51100000000E-03 0. -1.
        -11    1    3    3    0    0  0.96663464109E+01 -0.55643754586E+01  0.19137384458E+02  0.22150395287E+02  0.51100000000E-03 0.  1.
         12    1    3    3    0    0 -0.12848029769E+02  0.18567279691E+02 -0.10250480442E+02  0.24796937177E+02  0.00000000000E+00 0. -1.
</event>
<event>
 7    1  0.2932741E-013  0.7246156E+02  0.7816164E-02  0.1226708E+00
        -11   -1    0    0    0    0  0.00000000000E+00  0.00000000000E+00  0.45593999997E+02  0.45594000000E+02  0.51100000000E-03 0. -1.
         11   -1    0    0    0    0 -0.00000000000E+00 -0.00000000000E+00 -0.45593999997E+02  0.45594000000E+02  0.51100000000E-03 0.  1.
    9900012    2    1    2    0    0 -0.18014221213E+02 -0.38041858144E+01  0.34198957701E+01  0.72461556592E+02  0.69999982150E+02 0.  0.
         12    1    1    2    0    0  0.18014221213E+02  0.38041858144E+01 -0.34198957701E+01  0.18726443408E+02  0.00000000000E+00 0. -1.
         11    1    3    3    0    0  0.29784006503E+00 -0.29794778294E+01  0.77861227867E+01  0.83420444228E+01  0.51100000000E-03 0. -1.
        -11    1    3    3    0    0  0.19217731097E+02  0.41041773343E+00  0.12527659864E+02  0.22944103669E+02  0.51100000000E-03 0.  1.
         12    1    3    3    0    0 -0.37529792375E+02 -0.12351257184E+01 -0.16893886881E+02  0.41175408501E+02  0.00000000000E+00 0. -1.
</event>
<event>
 7    1  0.2932741E-013  0.7246167E+02  0.7816164E-02  0.1226708E+00
        -11   -1    0    0    0    0  0.00000000000E+00  0.00000000000E+00  0.45593999997E+02  0.45594000000E+02  0.51100000000E-03 0.  1.
         11   -1    0    0    0    0 -0.00000000000E+00 -0.00000000000E+00 -0.45593999997E+02  0.45594000000E+02  0.51100000000E-03 0. -1.
    9900012    2    1    2    0    0 -0.46483984656E+01  0.18120506505E+02 -0.84565967687E+00  0.72461668149E+02  0.70000127474E+02 0.  0.
         12    1    1    2    0    0  0.46483984656E+01 -0.18120506505E+02  0.84565967687E+00  0.18726331851E+02  0.00000000000E+00 0. -1.
         11    1    3    3    0    0  0.15801736591E+02 -0.98359010561E+01 -0.39428812203E+01  0.19025933392E+02  0.51100000000E-03 0. -1.
        -11    1    3    3    0    0  0.97885149223E+01  0.78087330913E+01  0.10514141037E+02  0.16350489255E+02  0.51100000000E-03 0.  1.
        -12    1    3    3    0    0 -0.30238649979E+02  0.20147674470E+02 -0.74169194939E+01  0.37085245501E+02  0.00000000000E+00 0.  1.
</event>
<event>
 7    1  0.2932741E-013  0.7246153E+02  0.7816164E-02  0.1226708E+00
        -11   -1    0    0    0    0  0.00000000000E+00  0.00000000000E+00  0.45593999997E+02  0.45594000000E+02  0.51100000000E-03 0. -1.
         11   -1    0    0    0    0 -0.00000000000E+00 -0.00000000000E+00 -0.45593999997E+02  0.45594000000E+02  0.51100000000E-03 0.  1.
    9900012    2    1    2    0    0 -0.65832075090E+01 -0.23835981250E+01 -0.17368378967E+02  0.72461528120E+02  0.69999945060E+02 0.  0.
         12    1    1    2    0    0  0.65832075090E+01  0.23835981250E+01  0.17368378967E+02  0.18726471880E+02  0.00000000000E+00 0. -1.
         11    1    3    3    0    0  0.11170963142E+02  0.86335295685E+01  0.12415729073E+02  0.18801026009E+02  0.51100000000E-03 0. -1.
        -11    1    3    3    0    0  0.17036264216E+01 -0.21269700370E+02 -0.21117628548E+02  0.30020938235E+02  0.51100000000E-03 0.  1.
         12    1    3    3    0    0 -0.19457797073E+02  0.10252572676E+02 -0.86664794923E+01  0.23639563875E+02  0.00000000000E+00 0. -1.
</event>
<event>
 7    1  0.2932741E-013  0.7246158E+02  0.7816164E-02  0.1226708E+00
        -11   -1    0    0    0    0  0.00000000000E+00  0.00000000000E+00  0.45593999997E+02  0.45594000000E+02  0.51100000000E-03 0. -1.
         11   -1    0    0    0    0 -0.00000000000E+00 -0.00000000000E+00 -0.45593999997E+02  0.45594000000E+02  0.51100000000E-03 0.  1.
    9900012    2    1    2    0    0  0.17832802988E+02 -0.49198471639E+01 -0.29094711342E+01  0.72461580673E+02  0.70000013520E+02 0.  0.
         12    1    1    2    0    0 -0.17832802988E+02  0.49198471639E+01  0.29094711342E+01  0.18726419327E+02  0.00000000000E+00 0. -1.
         11    1    3    3    0    0  0.85741736915E+01 -0.13039988481E+02  0.23208956263E+02  0.27968078325E+02  0.51100000000E-03 0. -1.
        -11    1    3    3    0    0  0.12865333756E+02 -0.59377983935E+01  0.49705010424E+00  0.14178198810E+02  0.51100000000E-03 0.  1.
        -12    1    3    3    0    0 -0.36067044595E+01  0.14057939711E+02 -0.26615477502E+02  0.30315303539E+02  0.00000000000E+00 0.  1.
</event>
<event>
 7    1  0.2932741E-013  0.7246159E+02  0.7816164E-02  0.1226708E+00
        -11   -1    0    0    0    0  0.00000000000E+00  0.00000000000E+00  0.45593999997E+02  0.45594000000E+02  0.51100000000E-03 0. -1.
         11   -1    0    0    0    0 -0.00000000000E+00 -0.00000000000E+00 -0.45593999997E+02  0.45594000000E+02  0.51100000000E-03 0.  1.
    9900012    2    1    2    0    0  0.69528392618E+01 -0.15241236731E+02 -0.83690706633E+01  0.72461585110E+02  0.70000019300E+02 0.  0.
         12    1    1    2    0    0 -0.69528392618E+01  0.15241236731E+02  0.83690706633E+01  0.18726414890E+02  0.00000000000E+00 0. -1.
         11    1    3    3    0    0  0.58656840700E+01 -0.85650421264E+01  0.14133351003E+02  0.17536185648E+02  0.51100000000E-03 0. -1.
        -11    1    3    3    0    0  0.14610018674E+02 -0.21741459407E+02 -0.22727753754E+02  0.34679886011E+02  0.51100000000E-03 0.  1.
        -12    1    3    3    0    0 -0.13522863482E+02  0.15065264803E+02  0.22533208832E+00  0.20245513451E+02  0.00000000000E+00 0.  1.
</event>
<event>
 7    1  0.2932741E-013  0.7246151E+02  0.7816164E-02  0.1226708E+00
        -11   -1    0    0    0    0  0.00000000000E+00  0.00000000000E+00  0.45593999997E+02  0.45594000000E+02  0.51100000000E-03 0. -1.
         11   -1    0    0    0    0 -0.00000000000E+00 -0.00000000000E+00 -0.45593999997E+02  0.45594000000E+02  0.51100000000E-03 0.  1.
    9900012    2    1    2    0    0  0.46443926148E+00  0.13123163546E+02 -0.13350967447E+02  0.72461509217E+02  0.69999920435E+02 0.  0.
         12    1    1    2    0    0 -0.46443926148E+00 -0.13123163546E+02  0.13350967447E+02  0.18726490783E+02  0.00000000000E+00 0. -1.
         11    1    3    3    0    0  0.20619280714E+01  0.68440958554E+01 -0.17351665438E+02  0.18766285972E+02  0.51100000000E-03 0. -1.
        -11    1    3    3    0    0 -0.25610676749E+02  0.10724385464E+02 -0.38772123373E+01  0.28034835168E+02  0.51100000000E-03 0.  1.
         12    1    3    3    0    0  0.24013187939E+02 -0.44453177737E+01  0.78779103283E+01  0.25660388077E+02  0.00000000000E+00 0. -1.
</event>
<event>
 7    1  0.2932741E-013  0.7246159E+02  0.7816164E-02  0.1226708E+00
        -11   -1    0    0    0    0  0.00000000000E+00  0.00000000000E+00  0.45593999997E+02  0.45594000000E+02  0.51100000000E-03 0.  1.
         11   -1    0    0    0    0 -0.00000000000E+00 -0.00000000000E+00 -0.45593999997E+02  0.45594000000E+02  0.51100000000E-03 0. -1.
    9900012    2    1    2    0    0  0.51975959282E+01 -0.17312587151E+02  0.48926243494E+01  0.72461589497E+02  0.70000025015E+02 0.  0.
         12    1    1    2    0    0 -0.51975959282E+01  0.17312587151E+02 -0.48926243494E+01  0.18726410503E+02  0.00000000000E+00 0. -1.
         11    1    3    3    0    0  0.96952132057E+01 -0.15968142352E+02 -0.16860693662E+02  0.25164691937E+02  0.51100000000E-03 0. -1.
        -11    1    3    3    0    0  0.15409978973E+02 -0.18627506397E+01 -0.27055406384E+01  0.15756181083E+02  0.51100000000E-03 0.  1.
         12    1    3    3    0    0 -0.19907596251E+02  0.51830584073E+00  0.24458858650E+02  0.31540716477E+02  0.00000000000E+00 0. -1.
</event>
<event>
 7    1  0.2932741E-013  0.7246160E+02  0.7816164E-02  0.1226708E+00
        -11   -1    0    0    0    0  0.00000000000E+00  0.00000000000E+00  0.45593999997E+02  0.45594000000E+02  0.51100000000E-03 0. -1.
         11   -1    0    0    0    0 -0.00000000000E+00 -0.00000000000E+00 -0.45593999997E+02  0.45594000000E+02  0.51100000000E-03 0.  1.
    9900012    2    1    2    0    0  0.19294275008E+01  0.16977676303E+02 -0.76625031824E+01  0.72461597832E+02  0.70000035873E+02 0.  0.
         12    1    1    2    0    0 -0.19294275008E+01 -0.16977676303E+02  0.76625031824E+01  0.18726402168E+02  0.00000000000E+00 0. -1.
         11    1    3    3    0    0  0.17329204051E+02  0.44422894993E+01  0.12869512226E+02  0.22037685773E+02  0.51100000000E-03 0. -1.
        -11    1    3    3    0    0  0.10812691004E+02  0.58745964722E+01  0.49510577950E+01  0.13264167671E+02  0.51100000000E-03 0.  1.
        -12    1    3    3    0    0 -0.26212467554E+02  0.66607903319E+01 -0.25483073203E+02  0.37159744388E+02  0.00000000000E+00 0.  1.
</event>
<event>
 7    1  0.2932741E-013  0.7246100E+02  0.7816164E-02  0.1226710E+00
        -11   -1    0    0    0    0  0.00000000000E+00  0.00000000000E+00  0.45593999997E+02  0.45594000000E+02  0.51100000000E-03 0. -1.
         11   -1    0    0    0    0 -0.00000000000E+00 -0.00000000000E+00 -0.45593999997E+02  0.45594000000E+02  0.51100000000E-03 0.  1.
    9900012    2    1    2    0    0 -0.30251634048E+01 -0.14931940172E+02  0.10889726429E+02  0.72460998301E+02  0.69999254869E+02 0.  0.
         12    1    1    2    0    0  0.30251634048E+01  0.14931940172E+02 -0.10889726429E+02  0.18727001699E+02  0.00000000000E+00 0. -1.
         11    1    3    3    0    0  0.16302261933E+02 -0.60974610029E+01  0.17085959473E+02  0.24390014067E+02  0.51100000000E-03 0. -1.
        -11    1    3    3    0    0  0.32601961323E+01 -0.17317691081E+01  0.15513587941E+02  0.15946765005E+02  0.51100000000E-03 0.  1.
        -12    1    3    3    0    0 -0.22587621470E+02 -0.71027100612E+01 -0.21709820985E+02  0.32124219229E+02  0.00000000000E+00 0.  1.
</event>
<event>
 7    1  0.2932741E-013  0.7246155E+02  0.7816164E-02  0.1226708E+00
        -11   -1    0    0    0    0  0.00000000000E+00  0.00000000000E+00  0.45593999997E+02  0.45594000000E+02  0.51100000000E-03 0. -1.
         11   -1    0    0    0    0 -0.00000000000E+00 -0.00000000000E+00 -0.45593999997E+02  0.45594000000E+02  0.51100000000E-03 0.  1.
    9900012    2    1    2    0    0 -0.21774115808E+01 -0.11717646071E+02 -0.14444228049E+02  0.72461546130E+02  0.69999968521E+02 0.  0.
         12    1    1    2    0    0  0.21774115808E+01  0.11717646071E+02  0.14444228049E+02  0.18726453870E+02  0.00000000000E+00 0. -1.
         11    1    3    3    0    0  0.18557587435E+02 -0.26189081369E+02 -0.67417738336E+01  0.32797919889E+02  0.51100000000E-03 0. -1.
        -11    1    3    3    0    0  0.61971160200E+01  0.28355672716E+01  0.41973604901E+01  0.80039067999E+01  0.51100000000E-03 0.  1.
        -12    1    3    3    0    0 -0.26932115036E+02  0.11635868027E+02 -0.11899814706E+02  0.31659719441E+02  0.00000000000E+00 0.  1.
</event>
<event>
 7    1  0.2932741E-013  0.7246162E+02  0.7816164E-02  0.1226708E+00
        -11   -1    0    0    0    0  0.00000000000E+00  0.00000000000E+00  0.45593999997E+02  0.45594000000E+02  0.51100000000E-03 0.  1.
         11   -1    0    0    0    0 -0.00000000000E+00 -0.00000000000E+00 -0.45593999997E+02  0.45594000000E+02  0.51100000000E-03 0. -1.
    9900012    2    1    2    0    0 -0.12458444204E+00 -0.27444054461E+01  0.18523770985E+02  0.72461618234E+02  0.70000062450E+02 0.  0.
         12    1    1    2    0    0  0.12458444204E+00  0.27444054461E+01 -0.18523770985E+02  0.18726381766E+02  0.00000000000E+00 0. -1.
         11    1    3    3    0    0  0.18730639676E+02  0.22725962120E+01  0.87704354174E+01  0.20806779998E+02  0.51100000000E-03 0. -1.
        -11    1    3    3    0    0 -0.16359896168E+02 -0.58720914133E+01  0.28142417797E+02  0.33077535276E+02  0.51100000000E-03 0.  1.
         12    1    3    3    0    0 -0.24953279494E+01  0.85508975515E+00 -0.18389082229E+02  0.18577302960E+02  0.00000000000E+00 0. -1.
</event>
<event>
 7    1  0.2932741E-013  0.7246154E+02  0.7816164E-02  0.1226708E+00
        -11   -1    0    0    0    0  0.00000000000E+00  0.00000000000E+00  0.45593999997E+02  0.45594000000E+02  0.51100000000E-03 0.  1.
         11   -1    0    0    0    0 -0.00000000000E+00 -0.00000000000E+00 -0.45593999997E+02  0.45594000000E+02  0.51100000000E-03 0. -1.
    9900012    2    1    2    0    0  0.12030722723E+02  0.13178436481E+02  0.56807525430E+01  0.72461536726E+02  0.69999956270E+02 0.  0.
         12    1    1    2    0    0 -0.12030722723E+02 -0.13178436481E+02 -0.56807525430E+01  0.18726463274E+02  0.00000000000E+00 0. -1.
         11    1    3    3    0    0  0.18906239547E+02  0.14854955206E+02 -0.33193707829E+01  0.24272078828E+02  0.51100000000E-03 0. -1.
        -11    1    3    3    0    0  0.15845688067E+02 -0.36601622609E+00 -0.98299122902E+01  0.18650656130E+02  0.51100000000E-03 0.  1.
         12    1    3    3    0    0 -0.22721204891E+02 -0.13105024993E+01  0.18830035616E+02  0.29538801767E+02  0.00000000000E+00 0. -1.
</event>
<event>
 7    1  0.2932741E-013  0.7246160E+02  0.7816164E-02  0.1226708E+00
        -11   -1    0    0    0    0  0.00000000000E+00  0.00000000000E+00  0.45593999997E+02  0.45594000000E+02  0.51100000000E-03 0.  1.
         11   -1    0    0    0    0 -0.00000000000E+00 -0.00000000000E+00 -0.45593999997E+02  0.45594000000E+02  0.51100000000E-03 0. -1.
    9900012    2    1    2    0    0 -0.18412470202E+02 -0.24465695499E+01  0.23818784384E+01  0.72461598680E+02  0.70000036977E+02 0.  0.
         12    1    1    2    0    0  0.18412470202E+02  0.24465695499E+01 -0.23818784384E+01  0.18726401320E+02  0.00000000000E+00 0. -1.
         11    1    3    3    0    0  0.66273337454E+01 -0.16736031469E+02 -0.89534017068E+01  0.20104221057E+02  0.51100000000E-03 0. -1.
        -11    1    3    3    0    0 -0.35588191407E+02  0.68795555100E+01  0.17425291168E+01  0.36288897195E+02  0.51100000000E-03 0.  1.
         12    1    3    3    0    0  0.10548387459E+02  0.74099064094E+01  0.95927510284E+01  0.16068480428E+02  0.00000000000E+00 0. -1.
</event>
<event>
 7    1  0.2932741E-013  0.7246156E+02  0.7816164E-02  0.1226708E+00
        -11   -1    0    0    0    0  0.00000000000E+00  0.00000000000E+00  0.45593999997E+02  0.45594000000E+02  0.51100000000E-03 0.  1.
         11   -1    0    0    0    0 -0.00000000000E+00 -0.00000000000E+00 -0.45593999997E+02  0.45594000000E+02  0.51100000000E-03 0. -1.
    9900012    2    1    2    0    0 -0.14682969198E+02  0.31631791489E+01  0.11184107070E+02  0.72461560462E+02  0.69999987192E+02 0.  0.
         12    1    1    2    0    0  0.14682969198E+02 -0.31631791489E+01 -0.11184107070E+02  0.18726439538E+02  0.00000000000E+00 0. -1.
         11    1    3    3    0    0 -0.76110888532E+01 -0.18774991806E+02 -0.35947119903E+01  0.20575493807E+02  0.51100000000E-03 0.  1.
        -11    1    3    3    0    0  0.12384722667E+02  0.26577044552E+02  0.54818061054E+01  0.29829026989E+02  0.51100000000E-03 0. -1.
         12    1    3    3    0    0 -0.19456603012E+02 -0.46388735975E+01  0.92970129549E+01  0.22057039667E+02  0.00000000000E+00 0. -1.
</event>
<event>
 7    1  0.2932741E-013  0.7246151E+02  0.7816164E-02  0.1226708E+00
        -11   -1    0    0    0    0  0.00000000000E+00  0.00000000000E+00  0.45593999997E+02  0.45594000000E+02  0.51100000000E-03 0.  1.
         11   -1    0    0    0    0 -0.00000000000E+00 -0.00000000000E+00 -0.45593999997E+02  0.45594000000E+02  0.51100000000E-03 0. -1.
    9900012    2    1    2    0    0 -0.17328276095E+02  0.58139706716E+01 -0.40755258297E+01  0.72461512924E+02  0.69999925265E+02 0.  0.
         12    1    1    2    0    0  0.17328276095E+02 -0.58139706716E+01  0.40755258297E+01  0.18726487076E+02  0.00000000000E+00 0. -1.
         11    1    3    3    0    0  0.49886325455E+01 -0.16758675745E+02 -0.38989134186E+01  0.17914831663E+02  0.51100000000E-03 0. -1.
        -11    1    3    3    0    0  0.62314588844E+01 -0.78705249463E+01  0.69472547533E+01  0.12208218200E+02  0.51100000000E-03 0.  1.
        -12    1    3    3    0    0 -0.28548367525E+02  0.30443171363E+02 -0.71238671643E+01  0.42338463061E+02  0.00000000000E+00 0.  1.
</event>
<event>
 7    1  0.3183622E-013  0.7246162E+02  0.7816164E-02  0.1226708E+00
        -11   -1    0    0    0    0  0.00000000000E+00  0.00000000000E+00  0.45593999997E+02  0.45594000000E+02  0.51100000000E-03 0. -1.
         11   -1    0    0    0    0 -0.00000000000E+00 -0.00000000000E+00 -0.45593999997E+02  0.45594000000E+02  0.51100000000E-03 0.  1.
    9900012    2    1    2    0    0  0.13457692193E+02  0.23606887542E+01 -0.12806056280E+02  0.72461617327E+02  0.70000061269E+02 0.  0.
         12    1    1    2    0    0 -0.13457692193E+02 -0.23606887542E+01  0.12806056280E+02  0.18726382673E+02  0.00000000000E+00 0. -1.
         11    1    3    3    0    0 -0.91287597309E+01 -0.79779271800E+01  0.20787480028E+02  0.24064515422E+02  0.51100000000E-03 0. -1.
        -11    1    3    3    0    0  0.21015427666E+01  0.18219937418E+01  0.39248574613E+01  0.48104729027E+01  0.51100000000E-03 0.  1.
        -12    1    3    3    0    0  0.20484909157E+02  0.85166221924E+01 -0.37518393770E+02  0.43586629003E+02  0.00000000000E+00 0.  1.
</event>
<event>
 7    1  0.2932741E-013  0.7246163E+02  0.7816164E-02  0.1226708E+00
        -11   -1    0    0    0    0  0.00000000000E+00  0.00000000000E+00  0.45593999997E+02  0.45594000000E+02  0.51100000000E-03 0.  1.
         11   -1    0    0    0    0 -0.00000000000E+00 -0.00000000000E+00 -0.45593999997E+02  0.45594000000E+02  0.51100000000E-03 0. -1.
    9900012    2    1    2    0    0  0.51074745607E+01  0.69977480458E+01  0.16601869772E+02  0.72461632119E+02  0.70000080538E+02 0.  0.
         12    1    1    2    0    0 -0.51074745607E+01 -0.69977480458E+01 -0.16601869772E+02  0.18726367881E+02  0.00000000000E+00 0. -1.
         11    1    3    3    0    0 -0.88585420546E+01  0.25450503840E+02  0.30719739187E+01  0.27122664638E+02  0.51100000000E-03 0. -1.
        -11    1    3    3    0    0 -0.65796523737E+01  0.69432599450E+01  0.74204241646E+01  0.12106336319E+02  0.51100000000E-03 0.  1.
         12    1    3    3    0    0  0.20545668989E+02 -0.25396015739E+02  0.61094716885E+01  0.33232631162E+02  0.00000000000E+00 0. -1.
</event>
<event>
 7    1  0.2932741E-013  0.7246166E+02  0.7816164E-02  0.1226708E+00
        -11   -1    0    0    0    0  0.00000000000E+00  0.00000000000E+00  0.45593999997E+02  0.45594000000E+02  0.51100000000E-03 0.  1.
         11   -1    0    0    0    0 -0.00000000000E+00 -0.00000000000E+00 -0.45593999997E+02  0.45594000000E+02  0.51100000000E-03 0. -1.
    9900012    2    1    2    0    0 -0.18141947225E+02 -0.38570447056E+01 -0.25823823513E+01  0.72461661822E+02  0.70000119231E+02 0.  0.
         12    1    1    2    0    0  0.18141947225E+02  0.38570447056E+01  0.25823823513E+01  0.18726338178E+02  0.00000000000E+00 0. -1.
         11    1    3    3    0    0 -0.17009633357E+02  0.95997306718E+01  0.41958969014E+01  0.19977187164E+02  0.51100000000E-03 0. -1.
        -11    1    3    3    0    0  0.36219456267E+00 -0.14168653282E+02  0.20628184329E+02  0.25028062444E+02  0.51100000000E-03 0.  1.
         12    1    3    3    0    0 -0.14945084305E+01  0.71187790470E+00 -0.27406463582E+02  0.27456412214E+02  0.00000000000E+00 0. -1.
</event>
<event>
 7    1  0.2932741E-013  0.7246157E+02  0.7816164E-02  0.1226708E+00
        -11   -1    0    0    0    0  0.00000000000E+00  0.00000000000E+00  0.45593999997E+02  0.45594000000E+02  0.51100000000E-03 0. -1.
         11   -1    0    0    0    0 -0.00000000000E+00 -0.00000000000E+00 -0.45593999997E+02  0.45594000000E+02  0.51100000000E-03 0.  1.
    9900012    2    1    2    0    0  0.15999622244E+02 -0.91453632503E+01 -0.33246976188E+01  0.72461569609E+02  0.69999999108E+02 0.  0.
         12    1    1    2    0    0 -0.15999622244E+02  0.91453632503E+01  0.33246976188E+01  0.18726430391E+02  0.00000000000E+00 0. -1.
         11    1    3    3    0    0  0.13189547362E+01  0.26720540741E+02  0.18361645078E+01  0.26816010879E+02  0.51100000000E-03 0. -1.
        -11    1    3    3    0    0  0.56303543534E+01  0.23244331390E+01 -0.10745891901E+01  0.61853554264E+01  0.51100000000E-03 0.  1.
        -12    1    3    3    0    0  0.90503131542E+01 -0.38190337130E+02 -0.40862729365E+01  0.39460203304E+02  0.00000000000E+00 0.  1.
</event>
<event>
 7    1  0.2932741E-013  0.7246153E+02  0.7816164E-02  0.1226708E+00
        -11   -1    0    0    0    0  0.00000000000E+00  0.00000000000E+00  0.45593999997E+02  0.45594000000E+02  0.51100000000E-03 0.  1.
         11   -1    0    0    0    0 -0.00000000000E+00 -0.00000000000E+00 -0.45593999997E+02  0.45594000000E+02  0.51100000000E-03 0. -1.
    9900012    2    1    2    0    0  0.48916933676E+01 -0.11706112179E+02  0.13773848647E+02  0.72461531222E+02  0.69999949101E+02 0.  0.
         12    1    1    2    0    0 -0.48916933676E+01  0.11706112179E+02 -0.13773848647E+02  0.18726468778E+02  0.00000000000E+00 0. -1.
         11    1    3    3    0    0  0.62409596717E+01  0.88389108464E+01 -0.18581832587E+02  0.21502567872E+02  0.51100000000E-03 0. -1.
        -11    1    3    3    0    0  0.10575200797E+02 -0.19145827454E+02  0.71018809194E+01  0.22996397406E+02  0.51100000000E-03 0.  1.
         12    1    3    3    0    0 -0.11924467101E+02 -0.13991955712E+01  0.25253800314E+02  0.27962565944E+02  0.00000000000E+00 0. -1.
</event>
<event>
 7    1  0.2932741E-013  0.7246157E+02  0.7816164E-02  0.1226708E+00
        -11   -1    0    0    0    0  0.00000000000E+00  0.00000000000E+00  0.45593999997E+02  0.45594000000E+02  0.51100000000E-03 0. -1.
         11   -1    0    0    0    0 -0.00000000000E+00 -0.00000000000E+00 -0.45593999997E+02  0.45594000000E+02  0.51100000000E-03 0.  1.
    9900012    2    1    2    0    0  0.59991869660E+01  0.21629065674E+01 -0.17607125763E+02  0.72461567165E+02  0.69999995924E+02 0.  0.
         12    1    1    2    0    0 -0.59991869660E+01 -0.21629065674E+01  0.17607125763E+02  0.18726432835E+02  0.00000000000E+00 0. -1.
         11    1    3    3    0    0  0.26788629693E+02  0.19455229004E+02 -0.14642896592E+02  0.36201533632E+02  0.51100000000E-03 0.  1.
        -11    1    3    3    0    0  0.45684729812E+01 -0.18170605626E+01  0.32715764332E+01  0.59055793185E+01  0.51100000000E-03 0. -1.
         12    1    3    3    0    0 -0.25357915709E+02 -0.15475261874E+02 -0.62358056044E+01  0.30354454215E+02  0.00000000000E+00 0. -1.
</event>
<event>
 7    1  0.2932741E-013  0.7246150E+02  0.7816164E-02  0.1226708E+00
        -11   -1    0    0    0    0  0.00000000000E+00  0.00000000000E+00  0.45593999997E+02  0.45594000000E+02  0.51100000000E-03 0. -1.
         11   -1    0    0    0    0 -0.00000000000E+00 -0.00000000000E+00 -0.45593999997E+02  0.45594000000E+02  0.51100000000E-03 0.  1.
    9900012    2    1    2    0    0 -0.10737722342E+02 -0.90231099176E+01 -0.12408324338E+02  0.72461502555E+02  0.69999911757E+02 0.  0.
         12    1    1    2    0    0  0.10737722342E+02  0.90231099176E+01  0.12408324338E+02  0.18726497445E+02  0.00000000000E+00 0. -1.
         11    1    3    3    0    0 -0.31010475536E+02 -0.51788485280E+01 -0.13315379808E+02  0.34143365457E+02  0.51100000000E-03 0. -1.
        -11    1    3    3    0    0  0.80355646113E+01  0.25537688389E+01 -0.15028387910E+02  0.17232076988E+02  0.51100000000E-03 0.  1.
         12    1    3    3    0    0  0.12237188583E+02 -0.63980302285E+01  0.15935443380E+02  0.21086060110E+02  0.00000000000E+00 0. -1.
</event>
<event>
 7    1  0.2932741E-013  0.7246158E+02  0.7816164E-02  0.1226708E+00
        -11   -1    0    0    0    0  0.00000000000E+00  0.00000000000E+00  0.45593999997E+02  0.45594000000E+02  0.51100000000E-03 0. -1.
         11   -1    0    0    0    0 -0.00000000000E+00 -0.00000000000E+00 -0.45593999997E+02  0.45594000000E+02  0.51100000000E-03 0.  1.
    9900012    2    1    2    0    0  0.64250578774E+01 -0.94121459064E+01 -0.14859642605E+02  0.72461579156E+02  0.70000011544E+02 0.  0.
         12    1    1    2    0    0 -0.64250578774E+01  0.94121459064E+01  0.14859642605E+02  0.18726420844E+02  0.00000000000E+00 0. -1.
         11    1    3    3    0    0  0.23336013060E+02 -0.12888218606E+02 -0.12987333187E+02  0.29653777296E+02  0.51100000000E-03 0. -1.
        -11    1    3    3    0    0 -0.15610259024E+02 -0.15275323204E+02 -0.76527389403E+01  0.23142603556E+02  0.51100000000E-03 0.  1.
        -12    1    3    3    0    0 -0.13006961583E+01  0.18751395904E+02  0.57804295224E+01  0.19665198303E+02  0.00000000000E+00 0.  1.
</event>
<event>
 7    1  0.2932741E-013  0.7246159E+02  0.7816164E-02  0.1226708E+00
        -11   -1    0    0    0    0  0.00000000000E+00  0.00000000000E+00  0.45593999997E+02  0.45594000000E+02  0.51100000000E-03 0.  1.
         11   -1    0    0    0    0 -0.00000000000E+00 -0.00000000000E+00 -0.45593999997E+02  0.45594000000E+02  0.51100000000E-03 0. -1.
    9900012    2    1    2    0    0 -0.62649574479E+01 -0.12212935474E+01  0.17605032830E+02  0.72461590021E+02  0.70000025698E+02 0.  0.
         12    1    1    2    0    0  0.62649574479E+01  0.12212935474E+01 -0.17605032830E+02  0.18726409979E+02  0.00000000000E+00 0. -1.
         11    1    3    3    0    0 -0.15388100606E+02 -0.21614381827E+01  0.64708423920E+01  0.16832624774E+02  0.51100000000E-03 0.  1.
        -11    1    3    3    0    0  0.17292269599E+01 -0.25134866422E+02 -0.24482991218E+01  0.25312959226E+02  0.51100000000E-03 0. -1.
         12    1    3    3    0    0  0.73939161978E+01  0.26075011058E+02  0.13582489560E+02  0.30316006021E+02  0.00000000000E+00 0. -1.
</event>
<event>
 7    1  0.2932741E-013  0.7246160E+02  0.7816164E-02  0.1226708E+00
        -11   -1    0    0    0    0  0.00000000000E+00  0.00000000000E+00  0.45593999997E+02  0.45594000000E+02  0.51100000000E-03 0.  1.
         11   -1    0    0    0    0 -0.00000000000E+00 -0.00000000000E+00 -0.45593999997E+02  0.45594000000E+02  0.51100000000E-03 0. -1.
    9900012    2    1    2    0    0  0.15694978093E+02  0.31320429380E+01  0.97229627498E+01  0.72461600588E+02  0.70000039463E+02 0.  0.
         12    1    1    2    0    0 -0.15694978093E+02 -0.31320429380E+01 -0.97229627498E+01  0.18726399412E+02  0.00000000000E+00 0. -1.
         11    1    3    3    0    0 -0.17691793378E+01  0.74399159600E+01 -0.47675719597E+01  0.90117749458E+01  0.51100000000E-03 0. -1.
        -11    1    3    3    0    0  0.27738089442E+02  0.15375381368E+02 -0.70786578921E+01  0.32494789673E+02  0.51100000000E-03 0.  1.
         12    1    3    3    0    0 -0.10273932011E+02 -0.19683254390E+02  0.21569192602E+02  0.30955035969E+02  0.00000000000E+00 0. -1.
</event>
<event>
 7    1  0.2932741E-013  0.7246160E+02  0.7816164E-02  0.1226708E+00
        -11   -1    0    0    0    0  0.00000000000E+00  0.00000000000E+00  0.45593999997E+02  0.45594000000E+02  0.51100000000E-03 0.  1.
         11   -1    0    0    0    0 -0.00000000000E+00 -0.00000000000E+00 -0.45593999997E+02  0.45594000000E+02  0.51100000000E-03 0. -1.
    9900012    2    1    2    0    0  0.98839151625E+00  0.55242343095E+01  0.17865721439E+02  0.72461599250E+02  0.70000037720E+02 0.  0.
         12    1    1    2    0    0 -0.98839151625E+00 -0.55242343095E+01 -0.17865721439E+02  0.18726400750E+02  0.00000000000E+00 0. -1.
         11    1    3    3    0    0  0.83656600592E+01 -0.30424809292E+01 -0.17889283155E+01  0.90797149300E+01  0.51100000000E-03 0. -1.
        -11    1    3    3    0    0  0.16069965466E+02 -0.13415820716E+02  0.22961496091E+02  0.31071825478E+02  0.51100000000E-03 0.  1.
        -12    1    3    3    0    0 -0.23447234009E+02  0.21982535955E+02 -0.33068463359E+01  0.32310058842E+02  0.00000000000E+00 0.  1.
</event>
<event>
 7    1  0.2932741E-013  0.7246137E+02  0.7816164E-02  0.1226709E+00
        -11   -1    0    0    0    0  0.00000000000E+00  0.00000000000E+00  0.45593999997E+02  0.45594000000E+02  0.51100000000E-03 0.  1.
         11   -1    0    0    0    0 -0.00000000000E+00 -0.00000000000E+00 -0.45593999997E+02  0.45594000000E+02  0.51100000000E-03 0. -1.
    9900012    2    1    2    0    0 -0.82229927709E+01 -0.16808638793E+02 -0.73394414070E+00  0.72461371308E+02  0.69999740782E+02 0.  0.
         12    1    1    2    0    0  0.82229927709E+01  0.16808638793E+02  0.73394414070E+00  0.18726628692E+02  0.00000000000E+00 0. -1.
         11    1    3    3    0    0  0.17800886022E+02  0.49453059107E+01 -0.14703311494E+02  0.23611754760E+02  0.51100000000E-03 0. -1.
        -11    1    3    3    0    0  0.68797933608E+01 -0.90153482575E+01  0.52933994596E+01  0.12515116419E+02  0.51100000000E-03 0.  1.
         12    1    3    3    0    0 -0.32903672154E+02 -0.12738596446E+02  0.86759678933E+01  0.36334500128E+02  0.00000000000E+00 0. -1.
</event>
<event>
 7    1  0.2932741E-013  0.7246150E+02  0.7816164E-02  0.1226708E+00
        -11   -1    0    0    0    0  0.00000000000E+00  0.00000000000E+00  0.45593999997E+02  0.45594000000E+02  0.51100000000E-03 0. -1.
         11   -1    0    0    0    0 -0.00000000000E+00 -0.00000000000E+00 -0.45593999997E+02  0.45594000000E+02  0.51100000000E-03 0.  1.
    9900012    2    1    2    0    0 -0.19447962571E+01 -0.87674537548E+01 -0.16432630281E+02  0.72461499639E+02  0.69999907958E+02 0.  0.
         12    1    1    2    0    0  0.19447962571E+01  0.87674537548E+01  0.16432630281E+02  0.18726500361E+02  0.00000000000E+00 0. -1.
         11    1    3    3    0    0 -0.25413762099E+02  0.37491680227E+01  0.41912473345E+01  0.26028486690E+02  0.51100000000E-03 0. -1.
        -11    1    3    3    0    0 -0.52795480664E+01 -0.79917268757E+01 -0.13358335687E+02  0.16437349508E+02  0.51100000000E-03 0.  1.
        -12    1    3    3    0    0  0.28748513908E+02 -0.45248949018E+01 -0.72655419282E+01  0.29995663442E+02  0.00000000000E+00 0.  1.
</event>
<event>
 7    1  0.2932741E-013  0.7246155E+02  0.7816164E-02  0.1226708E+00
        -11   -1    0    0    0    0  0.00000000000E+00  0.00000000000E+00  0.45593999997E+02  0.45594000000E+02  0.51100000000E-03 0. -1.
         11   -1    0    0    0    0 -0.00000000000E+00 -0.00000000000E+00 -0.45593999997E+02  0.45594000000E+02  0.51100000000E-03 0.  1.
    9900012    2    1    2    0    0 -0.13178835814E+02 -0.11336483134E+02 -0.69629383450E+01  0.72461546154E+02  0.69999968552E+02 0.  0.
         12    1    1    2    0    0  0.13178835814E+02  0.11336483134E+02  0.69629383450E+01  0.18726453846E+02  0.00000000000E+00 0. -1.
         11    1    3    3    0    0 -0.12349850546E+02 -0.13799697537E+02 -0.12738830329E+02  0.22477283177E+02  0.51100000000E-03 0. -1.
        -11    1    3    3    0    0 -0.19751019797E+01 -0.74807985830E+01 -0.20475837231E+02  0.21888884984E+02  0.51100000000E-03 0.  1.
         12    1    3    3    0    0  0.11461167112E+01  0.99440129856E+01  0.26251729215E+02  0.28095377993E+02  0.00000000000E+00 0. -1.
</event>
<event>
 7    1  0.2932741E-013  0.7246160E+02  0.7816164E-02  0.1226708E+00
        -11   -1    0    0    0    0  0.00000000000E+00  0.00000000000E+00  0.45593999997E+02  0.45594000000E+02  0.51100000000E-03 0. -1.
         11   -1    0    0    0    0 -0.00000000000E+00 -0.00000000000E+00 -0.45593999997E+02  0.45594000000E+02  0.51100000000E-03 0.  1.
    9900012    2    1    2    0    0  0.95326023914E+01  0.13931552032E+02  0.81067473456E+01  0.72461601444E+02  0.70000040578E+02 0.  0.
         12    1    1    2    0    0 -0.95326023914E+01 -0.13931552032E+02 -0.81067473456E+01  0.18726398556E+02  0.00000000000E+00 0. -1.
         11    1    3    3    0    0  0.81086219666E+01 -0.73056753944E+01 -0.60042526573E+00  0.10930835006E+02  0.51100000000E-03 0. -1.
        -11    1    3    3    0    0  0.83665651082E-01 -0.19598706844E+02 -0.67098490857E+00  0.19610367944E+02  0.51100000000E-03 0.  1.
         12    1    3    3    0    0  0.13403147738E+01  0.40835934270E+02  0.93781575199E+01  0.41920398494E+02  0.00000000000E+00 0. -1.
</event>
<event>
 7    1  0.2932741E-013  0.7246165E+02  0.7816164E-02  0.1226708E+00
        -11   -1    0    0    0    0  0.00000000000E+00  0.00000000000E+00  0.45593999997E+02  0.45594000000E+02  0.51100000000E-03 0.  1.
         11   -1    0    0    0    0 -0.00000000000E+00 -0.00000000000E+00 -0.45593999997E+02  0.45594000000E+02  0.51100000000E-03 0. -1.
    9900012    2    1    2    0    0 -0.11576287070E+02 -0.88525338163E+01  0.11760028911E+02  0.72461653392E+02  0.70000108250E+02 0.  0.
         12    1    1    2    0    0  0.11576287070E+02  0.88525338163E+01 -0.11760028911E+02  0.18726346608E+02  0.00000000000E+00 0. -1.
         11    1    3    3    0    0 -0.18145518198E+02 -0.26966295218E+01 -0.10396798408E+02  0.21086134279E+02  0.51100000000E-03 0. -1.
        -11    1    3    3    0    0  0.25666404467E+01 -0.18415765306E+02 -0.67030694904E+01  0.19765100451E+02  0.51100000000E-03 0.  1.
        -12    1    3    3    0    0  0.40025906815E+01  0.12259861011E+02  0.28859896809E+02  0.31610418662E+02  0.00000000000E+00 0.  1.
</event>
<event>
 7    1  0.2932741E-013  0.7246160E+02  0.7816164E-02  0.1226708E+00
        -11   -1    0    0    0    0  0.00000000000E+00  0.00000000000E+00  0.45593999997E+02  0.45594000000E+02  0.51100000000E-03 0.  1.
         11   -1    0    0    0    0 -0.00000000000E+00 -0.00000000000E+00 -0.45593999997E+02  0.45594000000E+02  0.51100000000E-03 0. -1.
    9900012    2    1    2    0    0  0.18321325459E+02 -0.82215583942E+00  0.37856372389E+01  0.72461602693E+02  0.70000042205E+02 0.  0.
         12    1    1    2    0    0 -0.18321325459E+02  0.82215583942E+00 -0.37856372389E+01  0.18726397307E+02  0.00000000000E+00 0. -1.
         11    1    3    3    0    0  0.25367500156E+02  0.65287019632E+01 -0.65114497191E+01  0.26991350303E+02  0.51100000000E-03 0. -1.
        -11    1    3    3    0    0  0.26950838081E+01  0.17434916973E+02  0.35115876086E+01  0.17988080898E+02  0.51100000000E-03 0.  1.
         12    1    3    3    0    0 -0.97412585046E+01 -0.24785774776E+02  0.67854993494E+01  0.27482171492E+02  0.00000000000E+00 0. -1.
</event>
<event>
 7    1  0.2932741E-013  0.7246157E+02  0.7816164E-02  0.1226708E+00
        -11   -1    0    0    0    0  0.00000000000E+00  0.00000000000E+00  0.45593999997E+02  0.45594000000E+02  0.51100000000E-03 0. -1.
         11   -1    0    0    0    0 -0.00000000000E+00 -0.00000000000E+00 -0.45593999997E+02  0.45594000000E+02  0.51100000000E-03 0.  1.
    9900012    2    1    2    0    0 -0.64831199731E-01  0.24418858167E+01 -0.18566424448E+02  0.72461571451E+02  0.70000001506E+02 0.  0.
         12    1    1    2    0    0  0.64831199731E-01 -0.24418858167E+01  0.18566424448E+02  0.18726428549E+02  0.00000000000E+00 0. -1.
         11    1    3    3    0    0 -0.10274574444E+02  0.10445900465E+02 -0.39840293919E+01  0.15184077416E+02  0.51100000000E-03 0. -1.
        -11    1    3    3    0    0 -0.19790246506E+02  0.33977675758E+01  0.35868767450E+01  0.20397655902E+02  0.51100000000E-03 0.  1.
        -12    1    3    3    0    0  0.29999989750E+02 -0.11401782224E+02 -0.18169271801E+02  0.36879838132E+02  0.00000000000E+00 0.  1.
</event>
<event>
 7    1  0.2932741E-013  0.7246163E+02  0.7816164E-02  0.1226708E+00
        -11   -1    0    0    0    0  0.00000000000E+00  0.00000000000E+00  0.45593999997E+02  0.45594000000E+02  0.51100000000E-03 0. -1.
         11   -1    0    0    0    0 -0.00000000000E+00 -0.00000000000E+00 -0.45593999997E+02  0.45594000000E+02  0.51100000000E-03 0.  1.
    9900012    2    1    2    0    0 -0.12936527531E+02 -0.35432618700E+01 -0.13067837156E+02  0.72461633102E+02  0.70000081819E+02 0.  0.
         12    1    1    2    0    0  0.12936527531E+02  0.35432618700E+01  0.13067837156E+02  0.18726366898E+02  0.00000000000E+00 0. -1.
         11    1    3    3    0    0 -0.77043222124E+01  0.47262698476E+01 -0.18300660631E+02  0.20410986925E+02  0.51100000000E-03 0. -1.
        -11    1    3    3    0    0 -0.21629863115E+02 -0.20075687254E+01 -0.14131593617E+02  0.25914923287E+02  0.51100000000E-03 0.  1.
         12    1    3    3    0    0  0.16397657796E+02 -0.62619629923E+01  0.19364417092E+02  0.26135722891E+02  0.00000000000E+00 0. -1.
</event>
<event>
 7    1  0.2932741E-013  0.7246158E+02  0.7816164E-02  0.1226708E+00
        -11   -1    0    0    0    0  0.00000000000E+00  0.00000000000E+00  0.45593999997E+02  0.45594000000E+02  0.51100000000E-03 0. -1.
         11   -1    0    0    0    0 -0.00000000000E+00 -0.00000000000E+00 -0.45593999997E+02  0.45594000000E+02  0.51100000000E-03 0.  1.
    9900012    2    1    2    0    0  0.14405449621E+01  0.12632635603E+02 -0.13748463312E+02  0.72461577611E+02  0.70000009531E+02 0.  0.
         12    1    1    2    0    0 -0.14405449621E+01 -0.12632635603E+02  0.13748463312E+02  0.18726422389E+02  0.00000000000E+00 0. -1.
         11    1    3    3    0    0 -0.94881974974E+01 -0.10958644096E+01 -0.34247182720E+00  0.95574106204E+01  0.51100000000E-03 0. -1.
        -11    1    3    3    0    0 -0.97717270642E+01 -0.16669196741E+02 -0.17282584836E+02  0.25923666961E+02  0.51100000000E-03 0.  1.
         12    1    3    3    0    0  0.20700469524E+02  0.30397696754E+02  0.38765933519E+01  0.36980500030E+02  0.00000000000E+00 0. -1.
</event>
<event>
 7    1  0.2932741E-013  0.7246160E+02  0.7816164E-02  0.1226708E+00
        -11   -1    0    0    0    0  0.00000000000E+00  0.00000000000E+00  0.45593999997E+02  0.45594000000E+02  0.51100000000E-03 0.  1.
         11   -1    0    0    0    0 -0.00000000000E+00 -0.00000000000E+00 -0.45593999997E+02  0.45594000000E+02  0.51100000000E-03 0. -1.
    9900012    2    1    2    0    0 -0.34762077010E+01 -0.82175538118E+01  0.16464082689E+02  0.72461595396E+02  0.70000032699E+02 0.  0.
         12    1    1    2    0    0  0.34762077010E+01  0.82175538118E+01 -0.16464082689E+02  0.18726404604E+02  0.00000000000E+00 0. -1.
         11    1    3    3    0    0 -0.26823899123E+02  0.30813954427E+01  0.14141081984E+02  0.30479284145E+02  0.51100000000E-03 0. -1.
        -11    1    3    3    0    0 -0.34992914590E+01 -0.73635702166E+01 -0.93837912266E+01  0.12430717803E+02  0.51100000000E-03 0.  1.
        -12    1    3    3    0    0  0.26846982881E+02 -0.39353790378E+01  0.11706791931E+02  0.29551593448E+02  0.00000000000E+00 0.  1.
</event>
