<event>
 7    1  0.4477737E-009  0.4778727E+02  0.7816164E-02  0.1312668E+00
        -11   -1    0    0    0    0  0.00000000000E+00  0.00000000000E+00  0.45593999997E+02  0.45594000000E+02  0.51100000000E-03 0.  1.
         11   -1    0    0    0    0 -0.00000000000E+00 -0.00000000000E+00 -0.45593999997E+02  0.45594000000E+02  0.51100000000E-03 0. -1.
    9900012    2    1    2    0    0  0.36112617269E+00  0.37680563301E+02  0.21532951048E+02  0.47787271392E+02  0.20000001587E+02 0.  0.
         12    1    1    2    0    0 -0.36112617269E+00 -0.37680563301E+02 -0.21532951048E+02  0.43400728608E+02  0.00000000000E+00 0. -1.
         11    1    3    3    0    0  0.31885271316E+01  0.16611907819E+01  0.15375877867E+01  0.39102987796E+01  0.51100000000E-03 0. -1.
        -11    1    3    3    0    0 -0.32449288455E+01  0.17402756069E+02  0.17201856424E+01  0.17786076603E+02  0.51100000000E-03 0.  1.
        -12    1    3    3    0    0  0.41752788667E+00  0.18616616450E+02  0.18275177619E+02  0.26090896010E+02  0.00000000000E+00 0.  1.
</event>
<event>
 7    1  0.4477737E-009  0.4778732E+02  0.7816164E-02  0.1312668E+00
        -11   -1    0    0    0    0  0.00000000000E+00  0.00000000000E+00  0.45593999997E+02  0.45594000000E+02  0.51100000000E-03 0. -1.
         11   -1    0    0    0    0 -0.00000000000E+00 -0.00000000000E+00 -0.45593999997E+02  0.45594000000E+02  0.51100000000E-03 0.  1.
    9900012    2    1    2    0    0  0.96642431746E+01  0.71455367615E+00 -0.42304979211E+02  0.47787315108E+02  0.20000200901E+02 0.  0.
         12    1    1    2    0    0 -0.96642431746E+01 -0.71455367615E+00  0.42304979211E+02  0.43400684892E+02  0.00000000000E+00 0. -1.
         11    1    3    3    0    0  0.72441419927E+01 -0.52351744118E+01 -0.10034872131E+02  0.13438128712E+02  0.51100000000E-03 0. -1.
        -11    1    3    3    0    0 -0.32693555831E+01  0.37243738349E+01 -0.20470850872E+02  0.21062178949E+02  0.51100000000E-03 0.  1.
         12    1    3    3    0    0  0.56894567650E+01  0.22253542531E+01 -0.11799256207E+02  0.13287007446E+02  0.00000000000E+00 0. -1.
</event>
<event>
 7    1  0.4477737E-009  0.4778727E+02  0.7816164E-02  0.1312668E+00
        -11   -1    0    0    0    0  0.00000000000E+00  0.00000000000E+00  0.45593999997E+02  0.45594000000E+02  0.51100000000E-03 0.  1.
         11   -1    0    0    0    0 -0.00000000000E+00 -0.00000000000E+00 -0.45593999997E+02  0.45594000000E+02  0.51100000000E-03 0. -1.
    9900012    2    1    2    0    0 -0.38051518424E+02 -0.13625659626E+02  0.15812864926E+02  0.47787270147E+02  0.19999995908E+02 0.  0.
         12    1    1    2    0    0  0.38051518424E+02  0.13625659626E+02 -0.15812864926E+02  0.43400729853E+02  0.00000000000E+00 0. -1.
         11    1    3    3    0    0 -0.14027442690E+02 -0.90695801268E+01  0.10062576540E+01  0.16734365444E+02  0.51100000000E-03 0. -1.
        -11    1    3    3    0    0 -0.16099319408E+01  0.38622502846E+00  0.63977462279E+01  0.66084951149E+01  0.51100000000E-03 0.  1.
        -12    1    3    3    0    0 -0.22414143793E+02 -0.49423045279E+01  0.84088610444E+01  0.24444409588E+02  0.00000000000E+00 0.  1.
</event>
<event>
 7    1  0.4477737E-009  0.4778727E+02  0.7816164E-02  0.1312668E+00
        -11   -1    0    0    0    0  0.00000000000E+00  0.00000000000E+00  0.45593999997E+02  0.45594000000E+02  0.51100000000E-03 0.  1.
         11   -1    0    0    0    0 -0.00000000000E+00 -0.00000000000E+00 -0.45593999997E+02  0.45594000000E+02  0.51100000000E-03 0. -1.
    9900012    2    1    2    0    0 -0.35086848041E+02 -0.12317131720E+02  0.22379122561E+02  0.47787265376E+02  0.19999974157E+02 0.  0.
         12    1    1    2    0    0  0.35086848041E+02  0.12317131720E+02 -0.22379122561E+02  0.43400734624E+02  0.00000000000E+00 0. -1.
         11    1    3    3    0    0 -0.31838859166E+00 -0.31398387430E+01  0.45868883948E+01  0.55677198237E+01  0.51100000000E-03 0.  1.
        -11    1    3    3    0    0 -0.18525603643E+02 -0.41015887484E+01  0.21330623818E+01  0.19093741802E+02  0.51100000000E-03 0. -1.
         12    1    3    3    0    0 -0.16242855806E+02 -0.50757042288E+01  0.15659171784E+02  0.23125803751E+02  0.00000000000E+00 0. -1.
</event>
<event>
 7    1  0.4477737E-009  0.4778727E+02  0.7816164E-02  0.1312668E+00
        -11   -1    0    0    0    0  0.00000000000E+00  0.00000000000E+00  0.45593999997E+02  0.45594000000E+02  0.51100000000E-03 0.  1.
         11   -1    0    0    0    0 -0.00000000000E+00 -0.00000000000E+00 -0.45593999997E+02  0.45594000000E+02  0.51100000000E-03 0. -1.
    9900012    2    1    2    0    0 -0.21825102125E+02 -0.30698095910E+02  0.21561896333E+02  0.47787267877E+02  0.19999985560E+02 0.  0.
         12    1    1    2    0    0  0.21825102125E+02  0.30698095910E+02 -0.21561896333E+02  0.43400732123E+02  0.00000000000E+00 0. -1.
         11    1    3    3    0    0  0.16752773513E+01 -0.16223411426E+01 -0.29748551832E+00  0.23509663718E+01  0.51100000000E-03 0. -1.
        -11    1    3    3    0    0 -0.20418186497E+02 -0.28021647416E+02  0.14871248131E+02  0.37726238681E+02  0.51100000000E-03 0.  1.
        -12    1    3    3    0    0 -0.30821929787E+01 -0.10541073517E+01  0.69881337204E+01  0.77100628247E+01  0.00000000000E+00 0.  1.
</event>
<event>
 7    1  0.4477737E-009  0.4778727E+02  0.7816164E-02  0.1312668E+00
        -11   -1    0    0    0    0  0.00000000000E+00  0.00000000000E+00  0.45593999997E+02  0.45594000000E+02  0.51100000000E-03 0.  1.
         11   -1    0    0    0    0 -0.00000000000E+00 -0.00000000000E+00 -0.45593999997E+02  0.45594000000E+02  0.51100000000E-03 0. -1.
    9900012    2    1    2    0    0 -0.55705193929E+00 -0.41983060836E+02  0.10987981336E+02  0.47787269155E+02  0.19999991386E+02 0.  0.
         12    1    1    2    0    0  0.55705193929E+00  0.41983060836E+02 -0.10987981336E+02  0.43400730845E+02  0.00000000000E+00 0. -1.
         11    1    3    3    0    0  0.48496927254E+01 -0.10511813543E+02 -0.37781478257E+01  0.12177526216E+02  0.51100000000E-03 0. -1.
        -11    1    3    3    0    0 -0.40999616288E+01 -0.18328636877E+02  0.11434660936E+02  0.21988635386E+02  0.51100000000E-03 0.  1.
        -12    1    3    3    0    0 -0.13067830359E+01 -0.13142610416E+02  0.33314682258E+01  0.13621107553E+02  0.00000000000E+00 0.  1.
</event>
<event>
 7    1  0.4477737E-009  0.4778727E+02  0.7816164E-02  0.1312668E+00
        -11   -1    0    0    0    0  0.00000000000E+00  0.00000000000E+00  0.45593999997E+02  0.45594000000E+02  0.51100000000E-03 0. -1.
         11   -1    0    0    0    0 -0.00000000000E+00 -0.00000000000E+00 -0.45593999997E+02  0.45594000000E+02  0.51100000000E-03 0.  1.
    9900012    2    1    2    0    0  0.17528003606E+02  0.16972758729E+02 -0.35893143641E+02  0.47787271784E+02  0.20000003371E+02 0.  0.
         12    1    1    2    0    0 -0.17528003606E+02 -0.16972758729E+02  0.35893143641E+02  0.43400728216E+02  0.00000000000E+00 0. -1.
         11    1    3    3    0    0 -0.20397042028E+01 -0.40629433313E+00 -0.12196072092E+02  0.12372131711E+02  0.51100000000E-03 0. -1.
        -11    1    3    3    0    0  0.11027279773E+02  0.11548285895E+02 -0.13898486174E+02  0.21169121958E+02  0.51100000000E-03 0.  1.
         12    1    3    3    0    0  0.85404280356E+01  0.58307671673E+01 -0.97985853745E+01  0.14246018115E+02  0.00000000000E+00 0. -1.
</event>
<event>
 7    1  0.4477737E-009  0.4778727E+02  0.7816164E-02  0.1312668E+00
        -11   -1    0    0    0    0  0.00000000000E+00  0.00000000000E+00  0.45593999997E+02  0.45594000000E+02  0.51100000000E-03 0. -1.
         11   -1    0    0    0    0 -0.00000000000E+00 -0.00000000000E+00 -0.45593999997E+02  0.45594000000E+02  0.51100000000E-03 0.  1.
    9900012    2    1    2    0    0 -0.25276855913E+02 -0.34173819959E+02 -0.87666271497E+01  0.47787272275E+02  0.20000005612E+02 0.  0.
         12    1    1    2    0    0  0.25276855913E+02  0.34173819959E+02  0.87666271497E+01  0.43400727725E+02  0.00000000000E+00 0. -1.
         11    1    3    3    0    0 -0.70782745569E+01 -0.11355366348E+02  0.26714577643E+01  0.13644889243E+02  0.51100000000E-03 0. -1.
        -11    1    3    3    0    0 -0.19683874983E+02 -0.22385582288E+02 -0.87940808549E+01  0.31079013612E+02  0.51100000000E-03 0.  1.
        -12    1    3    3    0    0  0.14852936274E+01 -0.43287132266E+00 -0.26440040592E+01  0.30633694205E+01  0.00000000000E+00 0.  1.
</event>
<event>
 7    1  0.4477737E-009  0.4778727E+02  0.7816164E-02  0.1312668E+00
        -11   -1    0    0    0    0  0.00000000000E+00  0.00000000000E+00  0.45593999997E+02  0.45594000000E+02  0.51100000000E-03 0.  1.
         11   -1    0    0    0    0 -0.00000000000E+00 -0.00000000000E+00 -0.45593999997E+02  0.45594000000E+02  0.51100000000E-03 0. -1.
    9900012    2    1    2    0    0 -0.93485447567E+01  0.42217088282E+02  0.37343402611E+01  0.47787272710E+02  0.20000007595E+02 0.  0.
         12    1    1    2    0    0  0.93485447567E+01 -0.42217088282E+02 -0.37343402611E+01  0.43400727290E+02  0.00000000000E+00 0. -1.
         11    1    3    3    0    0 -0.81843702972E+01  0.26523910335E+02  0.60861025675E+01  0.28417290183E+02  0.51100000000E-03 0. -1.
        -11    1    3    3    0    0 -0.61283680894E+01  0.85755126586E+01 -0.10005741674E+01  0.10587608877E+02  0.51100000000E-03 0.  1.
         12    1    3    3    0    0  0.49641936299E+01  0.71176652890E+01 -0.13511881389E+01  0.87823736511E+01  0.00000000000E+00 0. -1.
</event>
<event>
 7    1  0.4477737E-009  0.4778727E+02  0.7816164E-02  0.1312668E+00
        -11   -1    0    0    0    0  0.00000000000E+00  0.00000000000E+00  0.45593999997E+02  0.45594000000E+02  0.51100000000E-03 0.  1.
         11   -1    0    0    0    0 -0.00000000000E+00 -0.00000000000E+00 -0.45593999997E+02  0.45594000000E+02  0.51100000000E-03 0. -1.
    9900012    2    1    2    0    0 -0.24459796620E+02 -0.95821790595E+01  0.34547410709E+02  0.47787269673E+02  0.19999993749E+02 0.  0.
         12    1    1    2    0    0  0.24459796620E+02  0.95821790595E+01 -0.34547410709E+02  0.43400730327E+02  0.00000000000E+00 0. -1.
         11    1    3    3    0    0 -0.20706532567E+02 -0.15827563803E+01  0.25749588332E+02  0.33080309978E+02  0.51100000000E-03 0.  1.
        -11    1    3    3    0    0 -0.13886486853E+01 -0.88096997875E+01  0.51926373107E+01  0.10320011532E+02  0.51100000000E-03 0. -1.
         12    1    3    3    0    0 -0.23646153668E+01  0.81027710829E+00  0.36051850660E+01  0.43869481630E+01  0.00000000000E+00 0. -1.
</event>
<event>
 7    1  0.4477737E-009  0.4778727E+02  0.7816164E-02  0.1312668E+00
        -11   -1    0    0    0    0  0.00000000000E+00  0.00000000000E+00  0.45593999997E+02  0.45594000000E+02  0.51100000000E-03 0. -1.
         11   -1    0    0    0    0 -0.00000000000E+00 -0.00000000000E+00 -0.45593999997E+02  0.45594000000E+02  0.51100000000E-03 0.  1.
    9900012    2    1    2    0    0  0.27084462253E+02 -0.33869038842E+02  0.17156758829E+01  0.47787269230E+02  0.19999991727E+02 0.  0.
         12    1    1    2    0    0 -0.27084462253E+02  0.33869038842E+02 -0.17156758829E+01  0.43400730770E+02  0.00000000000E+00 0. -1.
         11    1    3    3    0    0  0.28088936643E+02 -0.33391669137E+02  0.51558003489E+01  0.43938300001E+02  0.51100000000E-03 0. -1.
        -11    1    3    3    0    0 -0.36290252934E+00 -0.85078502022E+00 -0.23919122187E+01  0.25645229029E+01  0.51100000000E-03 0.  1.
         12    1    3    3    0    0 -0.64157186045E+00  0.37341531471E+00 -0.10482122473E+01  0.12844463262E+01  0.00000000000E+00 0. -1.
</event>
<event>
 7    1  0.4477737E-009  0.4778727E+02  0.7816164E-02  0.1312668E+00
        -11   -1    0    0    0    0  0.00000000000E+00  0.00000000000E+00  0.45593999997E+02  0.45594000000E+02  0.51100000000E-03 0.  1.
         11   -1    0    0    0    0 -0.00000000000E+00 -0.00000000000E+00 -0.45593999997E+02  0.45594000000E+02  0.51100000000E-03 0. -1.
    9900012    2    1    2    0    0  0.76707574511E+01  0.37996783276E+02  0.19519916110E+02  0.47787272078E+02  0.20000004713E+02 0.  0.
         12    1    1    2    0    0 -0.76707574511E+01 -0.37996783276E+02 -0.19519916110E+02  0.43400727922E+02  0.00000000000E+00 0. -1.
         11    1    3    3    0    0  0.36671751382E+01  0.59378978594E+01  0.58079877462E+01  0.90796214901E+01  0.51100000000E-03 0.  1.
        -11    1    3    3    0    0  0.16008545167E+01  0.81516383065E+00 -0.27699554176E+01  0.33014967107E+01  0.51100000000E-03 0. -1.
        -12    1    3    3    0    0  0.24027277963E+01  0.31243721586E+02  0.16481883781E+02  0.35406153877E+02  0.00000000000E+00 0.  1.
</event>
<event>
 7    1  0.4477737E-009  0.4778730E+02  0.7816164E-02  0.1312668E+00
        -11   -1    0    0    0    0  0.00000000000E+00  0.00000000000E+00  0.45593999997E+02  0.45594000000E+02  0.51100000000E-03 0.  1.
         11   -1    0    0    0    0 -0.00000000000E+00 -0.00000000000E+00 -0.45593999997E+02  0.45594000000E+02  0.51100000000E-03 0. -1.
    9900012    2    1    2    0    0  0.15043746255E+02  0.23985718228E+02  0.32893646698E+02  0.47787297547E+02  0.20000120836E+02 0.  0.
         12    1    1    2    0    0 -0.15043746255E+02 -0.23985718228E+02 -0.32893646698E+02  0.43400702453E+02  0.00000000000E+00 0. -1.
         11    1    3    3    0    0 -0.31398507500E+00  0.71718334891E+01  0.12444926197E+02  0.14366974996E+02  0.51100000000E-03 0. -1.
        -11    1    3    3    0    0  0.96364720852E+01  0.17649711451E+01  0.45796087051E+01  0.10814320762E+02  0.51100000000E-03 0.  1.
        -12    1    3    3    0    0  0.57212592448E+01  0.15048913594E+02  0.15869111796E+02  0.22606001789E+02  0.00000000000E+00 0.  1.
</event>
<event>
 7    1  0.4477737E-009  0.4778727E+02  0.7816164E-02  0.1312668E+00
        -11   -1    0    0    0    0  0.00000000000E+00  0.00000000000E+00  0.45593999997E+02  0.45594000000E+02  0.51100000000E-03 0. -1.
         11   -1    0    0    0    0 -0.00000000000E+00 -0.00000000000E+00 -0.45593999997E+02  0.45594000000E+02  0.51100000000E-03 0.  1.
    9900012    2    1    2    0    0 -0.19861823973E+02 -0.13095300700E+02 -0.36299370509E+02  0.47787271305E+02  0.20000001186E+02 0.  0.
         12    1    1    2    0    0  0.19861823973E+02  0.13095300700E+02  0.36299370509E+02  0.43400728695E+02  0.00000000000E+00 0. -1.
         11    1    3    3    0    0 -0.53327906634E+00 -0.81114550504E+00  0.22627969277E+01  0.24622334963E+01  0.51100000000E-03 0. -1.
        -11    1    3    3    0    0 -0.12626559045E+02 -0.10891007477E+02 -0.23880193291E+02  0.29125721777E+02  0.51100000000E-03 0.  1.
         12    1    3    3    0    0 -0.67019858615E+01 -0.13931477175E+01 -0.14681974146E+02  0.16199316031E+02  0.00000000000E+00 0. -1.
</event>
<event>
 7    1  0.4477737E-009  0.4778727E+02  0.7816164E-02  0.1312668E+00
        -11   -1    0    0    0    0  0.00000000000E+00  0.00000000000E+00  0.45593999997E+02  0.45594000000E+02  0.51100000000E-03 0. -1.
         11   -1    0    0    0    0 -0.00000000000E+00 -0.00000000000E+00 -0.45593999997E+02  0.45594000000E+02  0.51100000000E-03 0.  1.
    9900012    2    1    2    0    0  0.37631568594E+02 -0.33797692279E+01  0.21355690198E+02  0.47787270758E+02  0.19999998696E+02 0.  0.
         12    1    1    2    0    0 -0.37631568594E+02  0.33797692279E+01 -0.21355690198E+02  0.43400729242E+02  0.00000000000E+00 0. -1.
         11    1    3    3    0    0  0.88542487965E+01  0.34192923757E+01 -0.58783905824E+00  0.95097232936E+01  0.51100000000E-03 0.  1.
        -11    1    3    3    0    0  0.13480153633E+02 -0.49674764586E+00  0.15435050435E+02  0.20498831244E+02  0.51100000000E-03 0. -1.
         12    1    3    3    0    0  0.15297166164E+02 -0.63023139578E+01  0.65084788215E+01  0.17778716220E+02  0.00000000000E+00 0. -1.
</event>
<event>
 7    1  0.4477737E-009  0.4778728E+02  0.7816164E-02  0.1312668E+00
        -11   -1    0    0    0    0  0.00000000000E+00  0.00000000000E+00  0.45593999997E+02  0.45594000000E+02  0.51100000000E-03 0.  1.
         11   -1    0    0    0    0 -0.00000000000E+00 -0.00000000000E+00 -0.45593999997E+02  0.45594000000E+02  0.51100000000E-03 0. -1.
    9900012    2    1    2    0    0 -0.17964844825E+02 -0.16854666287E+02  0.35732440496E+02  0.47787277321E+02  0.20000028618E+02 0.  0.
         12    1    1    2    0    0  0.17964844825E+02  0.16854666287E+02 -0.35732440496E+02  0.43400722679E+02  0.00000000000E+00 0. -1.
         11    1    3    3    0    0 -0.12137421134E+02 -0.58861158567E+01  0.21900164409E+02  0.25721208235E+02  0.51100000000E-03 0. -1.
        -11    1    3    3    0    0 -0.87241018146E+01 -0.40349516847E+01  0.87157685321E+01  0.12975184351E+02  0.51100000000E-03 0.  1.
         12    1    3    3    0    0  0.28966781231E+01 -0.69335987456E+01  0.51165075551E+01  0.90908847355E+01  0.00000000000E+00 0. -1.
</event>
<event>
 7    1  0.4477737E-009  0.4778727E+02  0.7816164E-02  0.1312668E+00
        -11   -1    0    0    0    0  0.00000000000E+00  0.00000000000E+00  0.45593999997E+02  0.45594000000E+02  0.51100000000E-03 0. -1.
         11   -1    0    0    0    0 -0.00000000000E+00 -0.00000000000E+00 -0.45593999997E+02  0.45594000000E+02  0.51100000000E-03 0.  1.
    9900012    2    1    2    0    0  0.36852492250E+02  0.18430296766E+02 -0.13632360301E+02  0.47787271074E+02  0.20000000133E+02 0.  0.
         12    1    1    2    0    0 -0.36852492250E+02 -0.18430296766E+02  0.13632360301E+02  0.43400728926E+02  0.00000000000E+00 0. -1.
         11    1    3    3    0    0  0.49424685612E+01  0.18388628178E+01  0.16439826418E+01  0.55237750795E+01  0.51100000000E-03 0. -1.
        -11    1    3    3    0    0  0.17738940464E+02  0.20666502726E+00 -0.66173815851E+01  0.18934161152E+02  0.51100000000E-03 0.  1.
        -12    1    3    3    0    0  0.14171083225E+02  0.16384768921E+02 -0.86589613581E+01  0.23329334842E+02  0.00000000000E+00 0.  1.
</event>
<event>
 7    1  0.4477737E-009  0.4778727E+02  0.7816164E-02  0.1312668E+00
        -11   -1    0    0    0    0  0.00000000000E+00  0.00000000000E+00  0.45593999997E+02  0.45594000000E+02  0.51100000000E-03 0.  1.
         11   -1    0    0    0    0 -0.00000000000E+00 -0.00000000000E+00 -0.45593999997E+02  0.45594000000E+02  0.51100000000E-03 0. -1.
    9900012    2    1    2    0    0  0.68438599775E+01  0.22159779637E+02  0.36684179922E+02  0.47787270634E+02  0.19999998128E+02 0.  0.
         12    1    1    2    0    0 -0.68438599775E+01 -0.22159779637E+02 -0.36684179922E+02  0.43400729366E+02  0.00000000000E+00 0. -1.
         11    1    3    3    0    0  0.34284821341E+01 -0.34263010820E+00  0.96509620255E+01  0.10247582808E+02  0.51100000000E-03 0. -1.
        -11    1    3    3    0    0  0.57725684397E+01  0.22858540910E+02  0.23588060978E+02  0.33350143326E+02  0.51100000000E-03 0.  1.
        -12    1    3    3    0    0 -0.23571905963E+01 -0.35613116521E+00  0.34451569190E+01  0.41895444992E+01  0.00000000000E+00 0.  1.
</event>
<event>
 7    1  0.4477737E-009  0.4778727E+02  0.7816164E-02  0.1312668E+00
        -11   -1    0    0    0    0  0.00000000000E+00  0.00000000000E+00  0.45593999997E+02  0.45594000000E+02  0.51100000000E-03 0. -1.
         11   -1    0    0    0    0 -0.00000000000E+00 -0.00000000000E+00 -0.45593999997E+02  0.45594000000E+02  0.51100000000E-03 0.  1.
    9900012    2    1    2    0    0  0.19098432625E+02  0.38846958921E+02 -0.31284230033E+01  0.47787269861E+02  0.19999994604E+02 0.  0.
         12    1    1    2    0    0 -0.19098432625E+02 -0.38846958921E+02  0.31284230033E+01  0.43400730139E+02  0.00000000000E+00 0. -1.
         11    1    3    3    0    0  0.45285584298E+00  0.58316855023E+01  0.23034420838E+01  0.62864520921E+01  0.51100000000E-03 0. -1.
        -11    1    3    3    0    0  0.11502917984E+01  0.96530288320E+01  0.44431207269E+01  0.10688566738E+02  0.51100000000E-03 0.  1.
        -12    1    3    3    0    0  0.17495284983E+02  0.23362244587E+02 -0.98749858139E+01  0.30812251031E+02  0.00000000000E+00 0.  1.
</event>
<event>
 7    1  0.4477737E-009  0.4778727E+02  0.7816164E-02  0.1312668E+00
        -11   -1    0    0    0    0  0.00000000000E+00  0.00000000000E+00  0.45593999997E+02  0.45594000000E+02  0.51100000000E-03 0. -1.
         11   -1    0    0    0    0 -0.00000000000E+00 -0.00000000000E+00 -0.45593999997E+02  0.45594000000E+02  0.51100000000E-03 0.  1.
    9900012    2    1    2    0    0  0.32364362738E+02 -0.15514930870E+02 -0.24402010849E+02  0.47787272025E+02  0.20000004469E+02 0.  0.
         12    1    1    2    0    0 -0.32364362738E+02  0.15514930870E+02  0.24402010849E+02  0.43400727975E+02  0.00000000000E+00 0. -1.
         11    1    3    3    0    0  0.24169936553E+02 -0.10200003686E+01 -0.12451951710E+02  0.27208038066E+02  0.51100000000E-03 0. -1.
        -11    1    3    3    0    0  0.67221699352E+01 -0.11802210094E+02 -0.10587882558E+02  0.17221584975E+02  0.51100000000E-03 0.  1.
        -12    1    3    3    0    0  0.14722562493E+01 -0.26927204080E+01 -0.13621765800E+01  0.33576489831E+01  0.00000000000E+00 0.  1.
</event>
<event>
 7    1  0.4477737E-009  0.4778727E+02  0.7816164E-02  0.1312668E+00
        -11   -1    0    0    0    0  0.00000000000E+00  0.00000000000E+00  0.45593999997E+02  0.45594000000E+02  0.51100000000E-03 0. -1.
         11   -1    0    0    0    0 -0.00000000000E+00 -0.00000000000E+00 -0.45593999997E+02  0.45594000000E+02  0.51100000000E-03 0.  1.
    9900012    2    1    2    0    0 -0.38795283029E+02 -0.16174825554E+02  0.10813159703E+02  0.47787269709E+02  0.19999993911E+02 0.  0.
         12    1    1    2    0    0  0.38795283029E+02  0.16174825554E+02 -0.10813159703E+02  0.43400730291E+02  0.00000000000E+00 0. -1.
         11    1    3    3    0    0 -0.97214266484E+00 -0.39652631555E+01  0.50250658161E+01  0.64745393635E+01  0.51100000000E-03 0. -1.
        -11    1    3    3    0    0 -0.28158631058E+02 -0.88655788581E+01  0.85223838822E+01  0.30726828975E+02  0.51100000000E-03 0.  1.
         12    1    3    3    0    0 -0.96645093061E+01 -0.33439835403E+01 -0.27342899950E+01  0.10585901370E+02  0.00000000000E+00 0. -1.
</event>
<event>
 7    1  0.4477737E-009  0.4778726E+02  0.7816164E-02  0.1312668E+00
        -11   -1    0    0    0    0  0.00000000000E+00  0.00000000000E+00  0.45593999997E+02  0.45594000000E+02  0.51100000000E-03 0.  1.
         11   -1    0    0    0    0 -0.00000000000E+00 -0.00000000000E+00 -0.45593999997E+02  0.45594000000E+02  0.51100000000E-03 0. -1.
    9900012    2    1    2    0    0  0.29787045559E+02 -0.23404233152E+02  0.21180123613E+02  0.47787264421E+02  0.19999969802E+02 0.  0.
         12    1    1    2    0    0 -0.29787045559E+02  0.23404233152E+02 -0.21180123613E+02  0.43400735579E+02  0.00000000000E+00 0. -1.
         11    1    3    3    0    0  0.15482115241E+02 -0.91057813871E+01  0.19081338274E+02  0.26205125789E+02  0.51100000000E-03 0. -1.
        -11    1    3    3    0    0  0.57882523185E+01 -0.10817293377E+02  0.15349221629E+01  0.12364209931E+02  0.51100000000E-03 0.  1.
         12    1    3    3    0    0  0.85166779995E+01 -0.34811583874E+01  0.56386317550E+00  0.92179287015E+01  0.00000000000E+00 0. -1.
</event>
<event>
 7    1  0.4477737E-009  0.4778727E+02  0.7816164E-02  0.1312668E+00
        -11   -1    0    0    0    0  0.00000000000E+00  0.00000000000E+00  0.45593999997E+02  0.45594000000E+02  0.51100000000E-03 0.  1.
         11   -1    0    0    0    0 -0.00000000000E+00 -0.00000000000E+00 -0.45593999997E+02  0.45594000000E+02  0.51100000000E-03 0. -1.
    9900012    2    1    2    0    0  0.30385376037E+01 -0.26545721473E+02  0.34201106822E+02  0.47787265592E+02  0.19999975140E+02 0.  0.
         12    1    1    2    0    0 -0.30385376037E+01  0.26545721473E+02 -0.34201106822E+02  0.43400734408E+02  0.00000000000E+00 0. -1.
         11    1    3    3    0    0  0.67290478068E+01 -0.16409563897E+01  0.62648304979E+01  0.93392142972E+01  0.51100000000E-03 0. -1.
        -11    1    3    3    0    0 -0.13512816944E+01 -0.17025980165E+02  0.13242267193E+02  0.21611746886E+02  0.51100000000E-03 0.  1.
         12    1    3    3    0    0 -0.23392285087E+01 -0.78787849184E+01  0.14694009131E+02  0.16836304409E+02  0.00000000000E+00 0. -1.
</event>
<event>
 7    1  0.4477737E-009  0.4778727E+02  0.7816164E-02  0.1312668E+00
        -11   -1    0    0    0    0  0.00000000000E+00  0.00000000000E+00  0.45593999997E+02  0.45594000000E+02  0.51100000000E-03 0.  1.
         11   -1    0    0    0    0 -0.00000000000E+00 -0.00000000000E+00 -0.45593999997E+02  0.45594000000E+02  0.51100000000E-03 0. -1.
    9900012    2    1    2    0    0 -0.15677877756E+02  0.25882734958E+02  0.31111274726E+02  0.47787271494E+02  0.20000002048E+02 0.  0.
         12    1    1    2    0    0  0.15677877756E+02 -0.25882734958E+02 -0.31111274726E+02  0.43400728506E+02  0.00000000000E+00 0. -1.
         11    1    3    3    0    0 -0.28712190983E+01 -0.57123307518E-01 -0.10508358558E+01  0.30580089012E+01  0.51100000000E-03 0. -1.
        -11    1    3    3    0    0 -0.12551754888E+02  0.25922797774E+02  0.33030483337E+02  0.43824089551E+02  0.51100000000E-03 0.  1.
        -12    1    3    3    0    0 -0.25490376974E+00  0.17060490800E-01 -0.86837275567E+00  0.90517304145E+00  0.00000000000E+00 0.  1.
</event>
<event>
 7    1  0.4477737E-009  0.4778727E+02  0.7816164E-02  0.1312668E+00
        -11   -1    0    0    0    0  0.00000000000E+00  0.00000000000E+00  0.45593999997E+02  0.45594000000E+02  0.51100000000E-03 0.  1.
         11   -1    0    0    0    0 -0.00000000000E+00 -0.00000000000E+00 -0.45593999997E+02  0.45594000000E+02  0.51100000000E-03 0. -1.
    9900012    2    1    2    0    0 -0.18469706346E+02  0.39263878189E+02 -0.91716839070E+00  0.47787269812E+02  0.19999994382E+02 0.  0.
         12    1    1    2    0    0  0.18469706346E+02 -0.39263878189E+02  0.91716839070E+00  0.43400730188E+02  0.00000000000E+00 0. -1.
         11    1    3    3    0    0 -0.29293833568E+00 -0.68574653939E+00 -0.23610742920E+00  0.78218166946E+00  0.51100000000E-03 0. -1.
        -11    1    3    3    0    0 -0.44316727579E+01 -0.79110488004E-01  0.13502319197E+01  0.46334769235E+01  0.51100000000E-03 0.  1.
        -12    1    3    3    0    0 -0.13745095252E+02  0.40028735217E+02 -0.20312928812E+01  0.42371611219E+02  0.00000000000E+00 0.  1.
</event>
<event>
 7    1  0.4477737E-009  0.4778724E+02  0.7816164E-02  0.1312668E+00
        -11   -1    0    0    0    0  0.00000000000E+00  0.00000000000E+00  0.45593999997E+02  0.45594000000E+02  0.51100000000E-03 0.  1.
         11   -1    0    0    0    0 -0.00000000000E+00 -0.00000000000E+00 -0.45593999997E+02  0.45594000000E+02  0.51100000000E-03 0. -1.
    9900012    2    1    2    0    0 -0.28172559895E+02  0.15815562556E+02  0.28979313689E+02  0.47787242266E+02  0.19999868786E+02 0.  0.
         12    1    1    2    0    0  0.28172559895E+02 -0.15815562556E+02 -0.28979313689E+02  0.43400757734E+02  0.00000000000E+00 0. -1.
         11    1    3    3    0    0 -0.43897550047E+01 -0.26275920970E+00 -0.18848187873E+01  0.47845097476E+01  0.51100000000E-03 0. -1.
        -11    1    3    3    0    0 -0.18222305697E+02  0.88149110102E+01  0.24868256660E+02  0.32065328169E+02  0.51100000000E-03 0.  1.
         12    1    3    3    0    0 -0.55604991933E+01  0.72634107560E+01  0.59958758171E+01  0.10937404349E+02  0.00000000000E+00 0. -1.
</event>
<event>
 7    1  0.4477737E-009  0.4778727E+02  0.7816164E-02  0.1312668E+00
        -11   -1    0    0    0    0  0.00000000000E+00  0.00000000000E+00  0.45593999997E+02  0.45594000000E+02  0.51100000000E-03 0. -1.
         11   -1    0    0    0    0 -0.00000000000E+00 -0.00000000000E+00 -0.45593999997E+02  0.45594000000E+02  0.51100000000E-03 0.  1.
    9900012    2    1    2    0    0 -0.28587720268E+01 -0.24572672318E+02 -0.35659983916E+02  0.47787271259E+02  0.20000000977E+02 0.  0.
         12    1    1    2    0    0  0.28587720268E+01  0.24572672318E+02  0.35659983916E+02  0.43400728741E+02  0.00000000000E+00 0. -1.
         11    1    3    3    0    0 -0.68758394806E+01 -0.12000572528E+02 -0.25832739449E+02  0.29302241164E+02  0.51100000000E-03 0. -1.
        -11    1    3    3    0    0  0.16259257852E+01 -0.31869431954E+01 -0.78124451941E+01  0.85927028205E+01  0.51100000000E-03 0.  1.
         12    1    3    3    0    0  0.23911416686E+01 -0.93851565946E+01 -0.20147992738E+01  0.98923272741E+01  0.00000000000E+00 0. -1.
</event>
<event>
 7    1  0.4477737E-009  0.4778727E+02  0.7816164E-02  0.1312668E+00
        -11   -1    0    0    0    0  0.00000000000E+00  0.00000000000E+00  0.45593999997E+02  0.45594000000E+02  0.51100000000E-03 0.  1.
         11   -1    0    0    0    0 -0.00000000000E+00 -0.00000000000E+00 -0.45593999997E+02  0.45594000000E+02  0.51100000000E-03 0. -1.
    9900012    2    1    2    0    0  0.36101649408E+02  0.23911056704E+02  0.29249919635E+01  0.47787270736E+02  0.19999998595E+02 0.  0.
         12    1    1    2    0    0 -0.36101649408E+02 -0.23911056704E+02 -0.29249919635E+01  0.43400729264E+02  0.00000000000E+00 0. -1.
         11    1    3    3    0    0  0.32903891093E+01  0.10682091057E+02 -0.28021217845E+01  0.11523264147E+02  0.51100000000E-03 0. -1.
        -11    1    3    3    0    0  0.19191201523E+02  0.80355798078E+01  0.60742125341E+00  0.20814459387E+02  0.51100000000E-03 0.  1.
         12    1    3    3    0    0  0.13620058776E+02  0.51933858390E+01  0.51196924946E+01  0.15449547203E+02  0.00000000000E+00 0. -1.
</event>
<event>
 7    1  0.4477737E-009  0.4778727E+02  0.7816164E-02  0.1312668E+00
        -11   -1    0    0    0    0  0.00000000000E+00  0.00000000000E+00  0.45593999997E+02  0.45594000000E+02  0.51100000000E-03 0.  1.
         11   -1    0    0    0    0 -0.00000000000E+00 -0.00000000000E+00 -0.45593999997E+02  0.45594000000E+02  0.51100000000E-03 0. -1.
    9900012    2    1    2    0    0  0.18744088279E+02  0.18440988912E+02  0.34528428685E+02  0.47787270687E+02  0.19999998370E+02 0.  0.
         12    1    1    2    0    0 -0.18744088279E+02 -0.18440988912E+02 -0.34528428685E+02  0.43400729313E+02  0.00000000000E+00 0. -1.
         11    1    3    3    0    0  0.33261889050E+01  0.90738955041E+01  0.10162725533E+01  0.97176088836E+01  0.51100000000E-03 0. -1.
        -11    1    3    3    0    0  0.99347059053E+01  0.64743969360E+01  0.21607705715E+02  0.24647700575E+02  0.51100000000E-03 0.  1.
         12    1    3    3    0    0  0.54831934688E+01  0.28926964720E+01  0.11904450417E+02  0.13421961228E+02  0.00000000000E+00 0. -1.
</event>
<event>
 7    1  0.4477737E-009  0.4778727E+02  0.7816164E-02  0.1312668E+00
        -11   -1    0    0    0    0  0.00000000000E+00  0.00000000000E+00  0.45593999997E+02  0.45594000000E+02  0.51100000000E-03 0.  1.
         11   -1    0    0    0    0 -0.00000000000E+00 -0.00000000000E+00 -0.45593999997E+02  0.45594000000E+02  0.51100000000E-03 0. -1.
    9900012    2    1    2    0    0 -0.95519991361E+01  0.41889001422E+02  0.61395638375E+01  0.47787269917E+02  0.19999994861E+02 0.  0.
         12    1    1    2    0    0  0.95519991361E+01 -0.41889001422E+02 -0.61395638375E+01  0.43400730083E+02  0.00000000000E+00 0. -1.
         11    1    3    3    0    0 -0.84113963202E+01  0.36489448542E+02  0.38472218146E+01  0.37643492916E+02  0.51100000000E-03 0. -1.
        -11    1    3    3    0    0 -0.35873572171E+01  0.60995257783E+01  0.26854489221E+01  0.75686843439E+01  0.51100000000E-03 0.  1.
         12    1    3    3    0    0  0.24467544012E+01 -0.69997289913E+00 -0.39310689923E+00  0.25750926573E+01  0.00000000000E+00 0. -1.
</event>
<event>
 7    1  0.4477737E-009  0.4778727E+02  0.7816164E-02  0.1312668E+00
        -11   -1    0    0    0    0  0.00000000000E+00  0.00000000000E+00  0.45593999997E+02  0.45594000000E+02  0.51100000000E-03 0. -1.
         11   -1    0    0    0    0 -0.00000000000E+00 -0.00000000000E+00 -0.45593999997E+02  0.45594000000E+02  0.51100000000E-03 0.  1.
    9900012    2    1    2    0    0 -0.92058420478E+01  0.33422848304E+02 -0.26111086736E+02  0.47787272274E+02  0.20000005607E+02 0.  0.
         12    1    1    2    0    0  0.92058420478E+01 -0.33422848304E+02  0.26111086736E+02  0.43400727726E+02  0.00000000000E+00 0. -1.
         11    1    3    3    0    0 -0.52241243948E+01  0.18116071242E+01 -0.97672855562E+01  0.11223781157E+02  0.51100000000E-03 0. -1.
        -11    1    3    3    0    0 -0.60892674455E+01  0.23352360595E+02 -0.12958900605E+02  0.27392426481E+02  0.51100000000E-03 0.  1.
         12    1    3    3    0    0  0.21075497926E+01  0.82588805852E+01 -0.33849005749E+01  0.91710646356E+01  0.00000000000E+00 0. -1.
</event>
<event>
 7    1  0.4477737E-009  0.4778727E+02  0.7816164E-02  0.1312668E+00
        -11   -1    0    0    0    0  0.00000000000E+00  0.00000000000E+00  0.45593999997E+02  0.45594000000E+02  0.51100000000E-03 0.  1.
         11   -1    0    0    0    0 -0.00000000000E+00 -0.00000000000E+00 -0.45593999997E+02  0.45594000000E+02  0.51100000000E-03 0. -1.
    9900012    2    1    2    0    0 -0.36840494202E+02 -0.14919915653E+02  0.17429795040E+02  0.47787266696E+02  0.19999980176E+02 0.  0.
         12    1    1    2    0    0  0.36840494202E+02  0.14919915653E+02 -0.17429795040E+02  0.43400733304E+02  0.00000000000E+00 0. -1.
         11    1    3    3    0    0 -0.32302035057E+01  0.43837372779E+01  0.10932861500E+01  0.55539753399E+01  0.51100000000E-03 0. -1.
        -11    1    3    3    0    0 -0.20968216267E+02 -0.12874213326E+02  0.12173462451E+02  0.27451860602E+02  0.51100000000E-03 0.  1.
         12    1    3    3    0    0 -0.12642074429E+02 -0.64294396049E+01  0.41630464390E+01  0.14781430755E+02  0.00000000000E+00 0. -1.
</event>
<event>
 7    1  0.4477737E-009  0.4778727E+02  0.7816164E-02  0.1312668E+00
        -11   -1    0    0    0    0  0.00000000000E+00  0.00000000000E+00  0.45593999997E+02  0.45594000000E+02  0.51100000000E-03 0.  1.
         11   -1    0    0    0    0 -0.00000000000E+00 -0.00000000000E+00 -0.45593999997E+02  0.45594000000E+02  0.51100000000E-03 0. -1.
    9900012    2    1    2    0    0  0.28885185113E+02  0.28708758086E+02  0.15002551295E+02  0.47787271260E+02  0.20000000981E+02 0.  0.
         12    1    1    2    0    0 -0.28885185113E+02 -0.28708758086E+02 -0.15002551295E+02  0.43400728740E+02  0.00000000000E+00 0. -1.
         11    1    3    3    0    0  0.10020539826E+02  0.62422835923E+01 -0.29093687543E+01  0.12159019272E+02  0.51100000000E-03 0. -1.
        -11    1    3    3    0    0  0.81634515268E+01  0.32778033964E+01  0.44127456973E+01  0.98416594528E+01  0.51100000000E-03 0.  1.
         12    1    3    3    0    0  0.10701193760E+02  0.19188671097E+02  0.13499174352E+02  0.25786592534E+02  0.00000000000E+00 0. -1.
</event>
<event>
 7    1  0.4477737E-009  0.4778727E+02  0.7816164E-02  0.1312668E+00
        -11   -1    0    0    0    0  0.00000000000E+00  0.00000000000E+00  0.45593999997E+02  0.45594000000E+02  0.51100000000E-03 0.  1.
         11   -1    0    0    0    0 -0.00000000000E+00 -0.00000000000E+00 -0.45593999997E+02  0.45594000000E+02  0.51100000000E-03 0. -1.
    9900012    2    1    2    0    0 -0.20134925674E+02 -0.94060241156E+01  0.37279148995E+02  0.47787268769E+02  0.19999989627E+02 0.  0.
         12    1    1    2    0    0  0.20134925674E+02  0.94060241156E+01 -0.37279148995E+02  0.43400731231E+02  0.00000000000E+00 0. -1.
         11    1    3    3    0    0 -0.11410706924E+01 -0.83196620452E+00 -0.14573015251E+01  0.20292703336E+01  0.51100000000E-03 0. -1.
        -11    1    3    3    0    0 -0.20365304856E+02 -0.94427373302E+01  0.37546058431E+02  0.43744913237E+02  0.51100000000E-03 0.  1.
        -12    1    3    3    0    0  0.13714498743E+01  0.86867941911E+00  0.11903920893E+01  0.20130851987E+01  0.00000000000E+00 0.  1.
</event>
<event>
 7    1  0.4477737E-009  0.4778728E+02  0.7816164E-02  0.1312668E+00
        -11   -1    0    0    0    0  0.00000000000E+00  0.00000000000E+00  0.45593999997E+02  0.45594000000E+02  0.51100000000E-03 0.  1.
         11   -1    0    0    0    0 -0.00000000000E+00 -0.00000000000E+00 -0.45593999997E+02  0.45594000000E+02  0.51100000000E-03 0. -1.
    9900012    2    1    2    0    0  0.33131276269E+02  0.23748238695E+02 -0.14898405876E+02  0.47787276435E+02  0.20000024577E+02 0.  0.
         12    1    1    2    0    0 -0.33131276269E+02 -0.23748238695E+02  0.14898405876E+02  0.43400723565E+02  0.00000000000E+00 0. -1.
         11    1    3    3    0    0  0.15911066410E+02  0.73540540008E+01 -0.15228789941E+02  0.23219823166E+02  0.51100000000E-03 0. -1.
        -11    1    3    3    0    0  0.12644046681E+02  0.89653100883E+01  0.21679408897E+01  0.15650836061E+02  0.51100000000E-03 0.  1.
         12    1    3    3    0    0  0.45761631782E+01  0.74288746056E+01 -0.18375568242E+01  0.89166172073E+01  0.00000000000E+00 0. -1.
</event>
<event>
 7    1  0.4477737E-009  0.4778727E+02  0.7816164E-02  0.1312668E+00
        -11   -1    0    0    0    0  0.00000000000E+00  0.00000000000E+00  0.45593999997E+02  0.45594000000E+02  0.51100000000E-03 0.  1.
         11   -1    0    0    0    0 -0.00000000000E+00 -0.00000000000E+00 -0.45593999997E+02  0.45594000000E+02  0.51100000000E-03 0. -1.
    9900012    2    1    2    0    0 -0.36463077163E+02  0.14545986436E+02  0.18506255121E+02  0.47787271940E+02  0.20000004082E+02 0.  0.
         12    1    1    2    0    0  0.36463077163E+02 -0.14545986436E+02 -0.18506255121E+02  0.43400728060E+02  0.00000000000E+00 0. -1.
         11    1    3    3    0    0 -0.26229849780E+02  0.30793223293E+01  0.72895782168E+01  0.27397539968E+02  0.51100000000E-03 0. -1.
        -11    1    3    3    0    0 -0.50382431238E+01  0.10353742718E+02  0.61764667087E+01  0.13066469428E+02  0.51100000000E-03 0.  1.
         12    1    3    3    0    0 -0.51949842592E+01  0.11129213884E+01  0.50402101951E+01  0.73232625435E+01  0.00000000000E+00 0. -1.
</event>
<event>
 7    1  0.4477737E-009  0.4778727E+02  0.7816164E-02  0.1312668E+00
        -11   -1    0    0    0    0  0.00000000000E+00  0.00000000000E+00  0.45593999997E+02  0.45594000000E+02  0.51100000000E-03 0. -1.
         11   -1    0    0    0    0 -0.00000000000E+00 -0.00000000000E+00 -0.45593999997E+02  0.45594000000E+02  0.51100000000E-03 0.  1.
    9900012    2    1    2    0    0 -0.32860582268E+02 -0.16899904993E+02  0.22763975740E+02  0.47787271351E+02  0.20000001399E+02 0.  0.
         12    1    1    2    0    0  0.32860582268E+02  0.16899904993E+02 -0.22763975740E+02  0.43400728649E+02  0.00000000000E+00 0. -1.
         11    1    3    3    0    0 -0.96840816758E+01  0.21583298247E+01  0.12497377727E+02  0.15956950706E+02  0.51100000000E-03 0. -1.
        -11    1    3    3    0    0 -0.17834873168E+02 -0.14665031506E+02  0.90900096055E+01  0.24814796491E+02  0.51100000000E-03 0.  1.
         12    1    3    3    0    0 -0.53416274245E+01 -0.43932033111E+01  0.11765884073E+01  0.70155241539E+01  0.00000000000E+00 0. -1.
</event>
<event>
 7    1  0.4477737E-009  0.4778727E+02  0.7816164E-02  0.1312668E+00
        -11   -1    0    0    0    0  0.00000000000E+00  0.00000000000E+00  0.45593999997E+02  0.45594000000E+02  0.51100000000E-03 0.  1.
         11   -1    0    0    0    0 -0.00000000000E+00 -0.00000000000E+00 -0.45593999997E+02  0.45594000000E+02  0.51100000000E-03 0. -1.
    9900012    2    1    2    0    0 -0.38180078041E+02  0.29450903253E+01  0.20426242006E+02  0.47787270989E+02  0.19999999745E+02 0.  0.
         12    1    1    2    0    0  0.38180078041E+02 -0.29450903253E+01 -0.20426242006E+02  0.43400729011E+02  0.00000000000E+00 0. -1.
         11    1    3    3    0    0 -0.10497402584E+02 -0.43852353412E+01  0.80253756198E+01  0.13922370636E+02  0.51100000000E-03 0. -1.
        -11    1    3    3    0    0 -0.22719288069E+02  0.99691190919E+01  0.13334544585E+02  0.28166637453E+02  0.51100000000E-03 0.  1.
        -12    1    3    3    0    0 -0.49633873874E+01 -0.26387934254E+01 -0.93367819892E+00  0.56982629001E+01  0.00000000000E+00 0.  1.
</event>
<event>
 7    1  0.4477737E-009  0.4778727E+02  0.7816164E-02  0.1312668E+00
        -11   -1    0    0    0    0  0.00000000000E+00  0.00000000000E+00  0.45593999997E+02  0.45594000000E+02  0.51100000000E-03 0. -1.
         11   -1    0    0    0    0 -0.00000000000E+00 -0.00000000000E+00 -0.45593999997E+02  0.45594000000E+02  0.51100000000E-03 0.  1.
    9900012    2    1    2    0    0 -0.40105708886E+02 -0.14583811225E+02  0.79036404111E+01  0.47787274581E+02  0.20000016126E+02 0.  0.
         12    1    1    2    0    0  0.40105708886E+02  0.14583811225E+02 -0.79036404111E+01  0.43400725419E+02  0.00000000000E+00 0. -1.
         11    1    3    3    0    0 -0.19753930979E+02 -0.46534139666E+01 -0.31959390121E+01  0.20544733561E+02  0.51100000000E-03 0. -1.
        -11    1    3    3    0    0 -0.73715686424E+01 -0.38213024388E+01 -0.11447836110E+01  0.83817006840E+01  0.51100000000E-03 0.  1.
         12    1    3    3    0    0 -0.12980209265E+02 -0.61090948191E+01  0.12244363034E+02  0.18860840336E+02  0.00000000000E+00 0. -1.
</event>
<event>
 7    1  0.4477737E-009  0.4778727E+02  0.7816164E-02  0.1312668E+00
        -11   -1    0    0    0    0  0.00000000000E+00  0.00000000000E+00  0.45593999997E+02  0.45594000000E+02  0.51100000000E-03 0.  1.
         11   -1    0    0    0    0 -0.00000000000E+00 -0.00000000000E+00 -0.45593999997E+02  0.45594000000E+02  0.51100000000E-03 0. -1.
    9900012    2    1    2    0    0 -0.79984672650E+01  0.21828365695E+01  0.42601446764E+02  0.47787268204E+02  0.19999987049E+02 0.  0.
         12    1    1    2    0    0  0.79984672650E+01 -0.21828365695E+01 -0.42601446764E+02  0.43400731796E+02  0.00000000000E+00 0. -1.
         11    1    3    3    0    0 -0.22625992520E+01  0.38489220781E-01  0.27114245880E+01  0.35316653795E+01  0.51100000000E-03 0. -1.
        -11    1    3    3    0    0 -0.73531447240E+01 -0.57227640816E+01  0.30539211738E+02  0.31929018461E+02  0.51100000000E-03 0.  1.
        -12    1    3    3    0    0  0.16172767110E+01  0.78671114303E+01  0.93508104381E+01  0.12326584363E+02  0.00000000000E+00 0.  1.
</event>
<event>
 7    1  0.4477737E-009  0.4778727E+02  0.7816164E-02  0.1312668E+00
        -11   -1    0    0    0    0  0.00000000000E+00  0.00000000000E+00  0.45593999997E+02  0.45594000000E+02  0.51100000000E-03 0.  1.
         11   -1    0    0    0    0 -0.00000000000E+00 -0.00000000000E+00 -0.45593999997E+02  0.45594000000E+02  0.51100000000E-03 0. -1.
    9900012    2    1    2    0    0  0.22766886050E+02  0.36398156175E+02  0.63613246804E+01  0.47787270455E+02  0.19999997312E+02 0.  0.
         12    1    1    2    0    0 -0.22766886050E+02 -0.36398156175E+02 -0.63613246804E+01  0.43400729545E+02  0.00000000000E+00 0. -1.
         11    1    3    3    0    0 -0.98780521543E+00 -0.11967655389E+01  0.14562904339E+00  0.15585939106E+01  0.51100000000E-03 0. -1.
        -11    1    3    3    0    0  0.13313441915E+02  0.30177259541E+02  0.50494504321E+01  0.33367824007E+02  0.51100000000E-03 0.  1.
        -12    1    3    3    0    0  0.10441249350E+02  0.74176621725E+01  0.11662452050E+01  0.12860852537E+02  0.00000000000E+00 0.  1.
</event>
<event>
 7    1  0.4477737E-009  0.4778727E+02  0.7816164E-02  0.1312668E+00
        -11   -1    0    0    0    0  0.00000000000E+00  0.00000000000E+00  0.45593999997E+02  0.45594000000E+02  0.51100000000E-03 0.  1.
         11   -1    0    0    0    0 -0.00000000000E+00 -0.00000000000E+00 -0.45593999997E+02  0.45594000000E+02  0.51100000000E-03 0. -1.
    9900012    2    1    2    0    0  0.43144003238E+02  0.40247388293E+01 -0.24535299680E+01  0.47787270198E+02  0.19999996139E+02 0.  0.
         12    1    1    2    0    0 -0.43144003238E+02 -0.40247388293E+01  0.24535299680E+01  0.43400729802E+02  0.00000000000E+00 0. -1.
         11    1    3    3    0    0  0.14653252007E+02  0.10055219203E+02  0.18429426046E+01  0.17866775459E+02  0.51100000000E-03 0. -1.
        -11    1    3    3    0    0  0.17603785930E+02 -0.47103827067E+01 -0.51032015421E+01  0.18924155214E+02  0.51100000000E-03 0.  1.
        -12    1    3    3    0    0  0.10886965302E+02 -0.13200976666E+01  0.80672896957E+00  0.10996339525E+02  0.00000000000E+00 0.  1.
</event>
<event>
 7    1  0.4477737E-009  0.4778727E+02  0.7816164E-02  0.1312668E+00
        -11   -1    0    0    0    0  0.00000000000E+00  0.00000000000E+00  0.45593999997E+02  0.45594000000E+02  0.51100000000E-03 0.  1.
         11   -1    0    0    0    0 -0.00000000000E+00 -0.00000000000E+00 -0.45593999997E+02  0.45594000000E+02  0.51100000000E-03 0. -1.
    9900012    2    1    2    0    0 -0.27861331937E+02  0.32985395500E+02  0.43969684169E+01  0.47787268844E+02  0.19999989968E+02 0.  0.
         12    1    1    2    0    0  0.27861331937E+02 -0.32985395500E+02 -0.43969684169E+01  0.43400731156E+02  0.00000000000E+00 0. -1.
         11    1    3    3    0    0 -0.91833789475E+01  0.36098069758E+01  0.58191025782E+01  0.11455440209E+02  0.51100000000E-03 0. -1.
        -11    1    3    3    0    0 -0.15035058244E+02  0.22767524929E+02  0.32188680070E+01  0.27473155613E+02  0.51100000000E-03 0.  1.
         12    1    3    3    0    0 -0.36428947458E+01  0.66080635946E+01 -0.46410021682E+01  0.88586730228E+01  0.00000000000E+00 0. -1.
</event>
<event>
 7    1  0.4477737E-009  0.4778727E+02  0.7816164E-02  0.1312668E+00
        -11   -1    0    0    0    0  0.00000000000E+00  0.00000000000E+00  0.45593999997E+02  0.45594000000E+02  0.51100000000E-03 0.  1.
         11   -1    0    0    0    0 -0.00000000000E+00 -0.00000000000E+00 -0.45593999997E+02  0.45594000000E+02  0.51100000000E-03 0. -1.
    9900012    2    1    2    0    0  0.37726550252E+02 -0.19070183834E+02  0.98315178875E+01  0.47787271327E+02  0.20000001286E+02 0.  0.
         12    1    1    2    0    0 -0.37726550252E+02  0.19070183834E+02 -0.98315178875E+01  0.43400728673E+02  0.00000000000E+00 0. -1.
         11    1    3    3    0    0  0.77479717878E+01 -0.19280289046E+01 -0.52783777149E+01  0.95712921721E+01  0.51100000000E-03 0. -1.
        -11    1    3    3    0    0  0.25780108966E+02 -0.17037534394E+02  0.13211372212E+02  0.33607022369E+02  0.51100000000E-03 0.  1.
         12    1    3    3    0    0  0.41984694984E+01 -0.10462053577E+00  0.18985233903E+01  0.46089567854E+01  0.00000000000E+00 0. -1.
</event>
<event>
 7    1  0.4477737E-009  0.4778727E+02  0.7816164E-02  0.1312668E+00
        -11   -1    0    0    0    0  0.00000000000E+00  0.00000000000E+00  0.45593999997E+02  0.45594000000E+02  0.51100000000E-03 0.  1.
         11   -1    0    0    0    0 -0.00000000000E+00 -0.00000000000E+00 -0.45593999997E+02  0.45594000000E+02  0.51100000000E-03 0. -1.
    9900012    2    1    2    0    0  0.16595910335E+02 -0.39797954007E+02  0.49317632473E+01  0.47787266461E+02  0.19999979102E+02 0.  0.
         12    1    1    2    0    0 -0.16595910335E+02  0.39797954007E+02 -0.49317632473E+01  0.43400733539E+02  0.00000000000E+00 0. -1.
         11    1    3    3    0    0  0.22164430325E+01 -0.18713288980E+02 -0.90016441425E+00  0.18865579779E+02  0.51100000000E-03 0. -1.
        -11    1    3    3    0    0  0.16082738972E+02 -0.20971739098E+02  0.62642057691E+01  0.27160791737E+02  0.51100000000E-03 0.  1.
        -12    1    3    3    0    0 -0.17032716688E+01 -0.11292592931E+00 -0.43227810760E+00  0.17608949445E+01  0.00000000000E+00 0.  1.
</event>
<event>
 7    1  0.4477737E-009  0.4778727E+02  0.7816164E-02  0.1312668E+00
        -11   -1    0    0    0    0  0.00000000000E+00  0.00000000000E+00  0.45593999997E+02  0.45594000000E+02  0.51100000000E-03 0.  1.
         11   -1    0    0    0    0 -0.00000000000E+00 -0.00000000000E+00 -0.45593999997E+02  0.45594000000E+02  0.51100000000E-03 0. -1.
    9900012    2    1    2    0    0  0.31706285540E+02 -0.55610316011E+01  0.29110303098E+02  0.47787270033E+02  0.19999995389E+02 0.  0.
         12    1    1    2    0    0 -0.31706285540E+02  0.55610316011E+01 -0.29110303098E+02  0.43400729967E+02  0.00000000000E+00 0. -1.
         11    1    3    3    0    0  0.24167640056E+02  0.49699042740E+01  0.19973057230E+02  0.31744256012E+02  0.51100000000E-03 0. -1.
        -11    1    3    3    0    0  0.12863667928E+01 -0.37331352183E+01  0.28741150717E+01  0.48838075095E+01  0.51100000000E-03 0.  1.
         12    1    3    3    0    0  0.62522786917E+01 -0.67978006569E+01  0.62631307957E+01  0.11159206512E+02  0.00000000000E+00 0. -1.
</event>
<event>
 7    1  0.4477737E-009  0.4778727E+02  0.7816164E-02  0.1312668E+00
        -11   -1    0    0    0    0  0.00000000000E+00  0.00000000000E+00  0.45593999997E+02  0.45594000000E+02  0.51100000000E-03 0.  1.
         11   -1    0    0    0    0 -0.00000000000E+00 -0.00000000000E+00 -0.45593999997E+02  0.45594000000E+02  0.51100000000E-03 0. -1.
    9900012    2    1    2    0    0 -0.15970862099E+02  0.18143074923E+02  0.36046965951E+02  0.47787270074E+02  0.19999995575E+02 0.  0.
         12    1    1    2    0    0  0.15970862099E+02 -0.18143074923E+02 -0.36046965951E+02  0.43400729926E+02  0.00000000000E+00 0. -1.
         11    1    3    3    0    0 -0.19617433746E+01 -0.13683578464E+01  0.90651190393E+00  0.25578515118E+01  0.51100000000E-03 0. -1.
        -11    1    3    3    0    0 -0.15932483090E+02  0.11440659133E+02  0.28525121788E+02  0.34618135017E+02  0.51100000000E-03 0.  1.
        -12    1    3    3    0    0  0.19233643650E+01  0.80707736363E+01  0.66153322592E+01  0.10611283545E+02  0.00000000000E+00 0.  1.
</event>
<event>
 7    1  0.4477737E-009  0.4778727E+02  0.7816164E-02  0.1312668E+00
        -11   -1    0    0    0    0  0.00000000000E+00  0.00000000000E+00  0.45593999997E+02  0.45594000000E+02  0.51100000000E-03 0. -1.
         11   -1    0    0    0    0 -0.00000000000E+00 -0.00000000000E+00 -0.45593999997E+02  0.45594000000E+02  0.51100000000E-03 0.  1.
    9900012    2    1    2    0    0  0.93019605986E+01 -0.31503646166E+02 -0.28365768084E+02  0.47787274295E+02  0.20000014822E+02 0.  0.
         12    1    1    2    0    0 -0.93019605986E+01  0.31503646166E+02  0.28365768084E+02  0.43400725705E+02  0.00000000000E+00 0. -1.
         11    1    3    3    0    0  0.58088888519E+01 -0.19802728254E+02 -0.12569910742E+02  0.24163896464E+02  0.51100000000E-03 0.  1.
        -11    1    3    3    0    0 -0.20854789802E+01  0.19259240445E+01 -0.24081056717E+01  0.37225500922E+01  0.51100000000E-03 0. -1.
         12    1    3    3    0    0  0.55785507269E+01 -0.13626841956E+02 -0.13387751670E+02  0.19900827739E+02  0.00000000000E+00 0. -1.
</event>
<event>
 7    1  0.4477737E-009  0.4778727E+02  0.7816164E-02  0.1312668E+00
        -11   -1    0    0    0    0  0.00000000000E+00  0.00000000000E+00  0.45593999997E+02  0.45594000000E+02  0.51100000000E-03 0.  1.
         11   -1    0    0    0    0 -0.00000000000E+00 -0.00000000000E+00 -0.45593999997E+02  0.45594000000E+02  0.51100000000E-03 0. -1.
    9900012    2    1    2    0    0 -0.11915000438E+02  0.34316391273E+02  0.23749557604E+02  0.47787269225E+02  0.19999991703E+02 0.  0.
         12    1    1    2    0    0  0.11915000438E+02 -0.34316391273E+02 -0.23749557604E+02  0.43400730775E+02  0.00000000000E+00 0. -1.
         11    1    3    3    0    0 -0.41786956992E+01  0.46792817270E+01  0.19106297754E+01  0.65580242167E+01  0.51100000000E-03 0. -1.
        -11    1    3    3    0    0 -0.65836456638E+01  0.30206256477E+02  0.15168565723E+02  0.34436139548E+02  0.51100000000E-03 0.  1.
        -12    1    3    3    0    0 -0.11526590745E+01 -0.56914693116E+00  0.66703621059E+01  0.67931054603E+01  0.00000000000E+00 0.  1.
</event>
<event>
 7    1  0.4477737E-009  0.4778727E+02  0.7816164E-02  0.1312668E+00
        -11   -1    0    0    0    0  0.00000000000E+00  0.00000000000E+00  0.45593999997E+02  0.45594000000E+02  0.51100000000E-03 0.  1.
         11   -1    0    0    0    0 -0.00000000000E+00 -0.00000000000E+00 -0.45593999997E+02  0.45594000000E+02  0.51100000000E-03 0. -1.
    9900012    2    1    2    0    0  0.34772724406E+02  0.11872551100E+02  0.23098125946E+02  0.47787271268E+02  0.20000001019E+02 0.  0.
         12    1    1    2    0    0 -0.34772724406E+02 -0.11872551100E+02 -0.23098125946E+02  0.43400728732E+02  0.00000000000E+00 0. -1.
         11    1    3    3    0    0  0.73668505055E+01  0.49096109640E+01 -0.15297043043E+01  0.89841394528E+01  0.51100000000E-03 0. -1.
        -11    1    3    3    0    0  0.96722389603E+01 -0.20034196774E+01  0.10536619633E+02  0.14442515379E+02  0.51100000000E-03 0.  1.
         12    1    3    3    0    0  0.17733634940E+02  0.89663598136E+01  0.14091210618E+02  0.24360616436E+02  0.00000000000E+00 0. -1.
</event>
<event>
 7    1  0.4477737E-009  0.4778727E+02  0.7816164E-02  0.1312668E+00
        -11   -1    0    0    0    0  0.00000000000E+00  0.00000000000E+00  0.45593999997E+02  0.45594000000E+02  0.51100000000E-03 0. -1.
         11   -1    0    0    0    0 -0.00000000000E+00 -0.00000000000E+00 -0.45593999997E+02  0.45594000000E+02  0.51100000000E-03 0.  1.
    9900012    2    1    2    0    0 -0.26337552631E+02 -0.34370658809E+02  0.29350128047E+01  0.47787272290E+02  0.20000005680E+02 0.  0.
         12    1    1    2    0    0  0.26337552631E+02  0.34370658809E+02 -0.29350128047E+01  0.43400727710E+02  0.00000000000E+00 0. -1.
         11    1    3    3    0    0 -0.26892100974E+01  0.15764540784E+01 -0.19034518117E+01  0.36524221373E+01  0.51100000000E-03 0. -1.
        -11    1    3    3    0    0 -0.13342752366E+02 -0.22205630894E+02  0.69682601327E+01  0.26826772703E+02  0.51100000000E-03 0.  1.
        -12    1    3    3    0    0 -0.10305590168E+02 -0.13741481993E+02 -0.21297955163E+01  0.17308077450E+02  0.00000000000E+00 0.  1.
</event>
<event>
 7    1  0.4477737E-009  0.4778728E+02  0.7816164E-02  0.1312668E+00
        -11   -1    0    0    0    0  0.00000000000E+00  0.00000000000E+00  0.45593999997E+02  0.45594000000E+02  0.51100000000E-03 0.  1.
         11   -1    0    0    0    0 -0.00000000000E+00 -0.00000000000E+00 -0.45593999997E+02  0.45594000000E+02  0.51100000000E-03 0. -1.
    9900012    2    1    2    0    0  0.11147338889E+02  0.27472257579E+02  0.31695965494E+02  0.47787281926E+02  0.20000049612E+02 0.  0.
         12    1    1    2    0    0 -0.11147338889E+02 -0.27472257579E+02 -0.31695965494E+02  0.43400718074E+02  0.00000000000E+00 0. -1.
         11    1    3    3    0    0  0.26032630144E-01  0.42770204964E+01 -0.13693506987E+01  0.44909579848E+01  0.51100000000E-03 0. -1.
        -11    1    3    3    0    0  0.62735626824E+01  0.11854213653E+02  0.25542092889E+02  0.28849237069E+02  0.51100000000E-03 0.  1.
        -12    1    3    3    0    0  0.48477435762E+01  0.11341023429E+02  0.75232233033E+01  0.14447086872E+02  0.00000000000E+00 0.  1.
</event>
<event>
 7    1  0.4477737E-009  0.4778728E+02  0.7816164E-02  0.1312668E+00
        -11   -1    0    0    0    0  0.00000000000E+00  0.00000000000E+00  0.45593999997E+02  0.45594000000E+02  0.51100000000E-03 0.  1.
         11   -1    0    0    0    0 -0.00000000000E+00 -0.00000000000E+00 -0.45593999997E+02  0.45594000000E+02  0.51100000000E-03 0. -1.
    9900012    2    1    2    0    0  0.46860747359E+00  0.20736728643E+02  0.38123365340E+02  0.47787280044E+02  0.20000041034E+02 0.  0.
         12    1    1    2    0    0 -0.46860747359E+00 -0.20736728643E+02 -0.38123365340E+02  0.43400719956E+02  0.00000000000E+00 0. -1.
         11    1    3    3    0    0 -0.62698830052E+01  0.81518371495E+01  0.97281489283E+01  0.14156297667E+02  0.51100000000E-03 0. -1.
        -11    1    3    3    0    0  0.54132408274E+01  0.12376800283E+02  0.29123901982E+02  0.32104361517E+02  0.51100000000E-03 0.  1.
         12    1    3    3    0    0  0.13252496514E+01  0.20809121142E+00 -0.72868556999E+00  0.15266208602E+01  0.00000000000E+00 0. -1.
</event>
<event>
 7    1  0.4477737E-009  0.4778728E+02  0.7816164E-02  0.1312668E+00
        -11   -1    0    0    0    0  0.00000000000E+00  0.00000000000E+00  0.45593999997E+02  0.45594000000E+02  0.51100000000E-03 0. -1.
         11   -1    0    0    0    0 -0.00000000000E+00 -0.00000000000E+00 -0.45593999997E+02  0.45594000000E+02  0.51100000000E-03 0.  1.
    9900012    2    1    2    0    0  0.19156486254E+02  0.33629972122E+02  0.19638646175E+02  0.47787280949E+02  0.20000045161E+02 0.  0.
         12    1    1    2    0    0 -0.19156486254E+02 -0.33629972122E+02 -0.19638646175E+02  0.43400719051E+02  0.00000000000E+00 0. -1.
         11    1    3    3    0    0 -0.99970303361E+00  0.12369100233E+02  0.33118136785E+01  0.12843759451E+02  0.51100000000E-03 0. -1.
        -11    1    3    3    0    0  0.18294704573E+02  0.14824571328E+02  0.95387460915E+01  0.25405743597E+02  0.51100000000E-03 0.  1.
         12    1    3    3    0    0  0.18614847147E+01  0.64363005609E+01  0.67880864049E+01  0.95377779012E+01  0.00000000000E+00 0. -1.
</event>
<event>
 7    1  0.4477737E-009  0.4778727E+02  0.7816164E-02  0.1312668E+00
        -11   -1    0    0    0    0  0.00000000000E+00  0.00000000000E+00  0.45593999997E+02  0.45594000000E+02  0.51100000000E-03 0.  1.
         11   -1    0    0    0    0 -0.00000000000E+00 -0.00000000000E+00 -0.45593999997E+02  0.45594000000E+02  0.51100000000E-03 0. -1.
    9900012    2    1    2    0    0  0.38742542078E+02  0.10736192920E+02  0.16351540565E+02  0.47787270929E+02  0.19999999473E+02 0.  0.
         12    1    1    2    0    0 -0.38742542078E+02 -0.10736192920E+02 -0.16351540565E+02  0.43400729071E+02  0.00000000000E+00 0. -1.
         11    1    3    3    0    0  0.42054044471E+01  0.54867149487E+01  0.62931274877E+01  0.93484181191E+01  0.51100000000E-03 0. -1.
        -11    1    3    3    0    0  0.31697313634E+02  0.67540576933E+01  0.55166950100E+01  0.32875080396E+02  0.51100000000E-03 0.  1.
         12    1    3    3    0    0  0.28398239969E+01 -0.15045797222E+01  0.45417180669E+01  0.55637724138E+01  0.00000000000E+00 0. -1.
</event>
<event>
 7    1  0.4477737E-009  0.4778727E+02  0.7816164E-02  0.1312668E+00
        -11   -1    0    0    0    0  0.00000000000E+00  0.00000000000E+00  0.45593999997E+02  0.45594000000E+02  0.51100000000E-03 0.  1.
         11   -1    0    0    0    0 -0.00000000000E+00 -0.00000000000E+00 -0.45593999997E+02  0.45594000000E+02  0.51100000000E-03 0. -1.
    9900012    2    1    2    0    0  0.11097912087E+02 -0.18789041768E+02  0.37515749667E+02  0.47787271708E+02  0.20000003024E+02 0.  0.
         12    1    1    2    0    0 -0.11097912087E+02  0.18789041768E+02 -0.37515749667E+02  0.43400728292E+02  0.00000000000E+00 0. -1.
         11    1    3    3    0    0 -0.27283206998E+01 -0.73974750767E+01  0.26990597919E+01  0.83337443789E+01  0.51100000000E-03 0. -1.
        -11    1    3    3    0    0  0.10856163071E+02 -0.10547517281E+02  0.25676042797E+02  0.29805462107E+02  0.51100000000E-03 0.  1.
        -12    1    3    3    0    0  0.29700697152E+01 -0.84404940984E+00  0.91406470779E+01  0.96480652217E+01  0.00000000000E+00 0.  1.
</event>
<event>
 7    1  0.4477737E-009  0.4778727E+02  0.7816164E-02  0.1312668E+00
        -11   -1    0    0    0    0  0.00000000000E+00  0.00000000000E+00  0.45593999997E+02  0.45594000000E+02  0.51100000000E-03 0.  1.
         11   -1    0    0    0    0 -0.00000000000E+00 -0.00000000000E+00 -0.45593999997E+02  0.45594000000E+02  0.51100000000E-03 0. -1.
    9900012    2    1    2    0    0  0.18777598423E+02  0.32516899057E+01  0.38992968089E+02  0.47787271317E+02  0.20000001244E+02 0.  0.
         12    1    1    2    0    0 -0.18777598423E+02 -0.32516899057E+01 -0.38992968089E+02  0.43400728683E+02  0.00000000000E+00 0. -1.
         11    1    3    3    0    0  0.17249395685E+02 -0.24219037853E+01  0.21406472658E+02  0.27597904655E+02  0.51100000000E-03 0. -1.
        -11    1    3    3    0    0 -0.28804765328E+01  0.10213573352E+01  0.31242021781E+01  0.43704639769E+01  0.51100000000E-03 0.  1.
        -12    1    3    3    0    0  0.44086792707E+01  0.46522363557E+01  0.14462293253E+02  0.15818902685E+02  0.00000000000E+00 0.  1.
</event>
<event>
 7    1  0.4477737E-009  0.4778727E+02  0.7816164E-02  0.1312668E+00
        -11   -1    0    0    0    0  0.00000000000E+00  0.00000000000E+00  0.45593999997E+02  0.45594000000E+02  0.51100000000E-03 0.  1.
         11   -1    0    0    0    0 -0.00000000000E+00 -0.00000000000E+00 -0.45593999997E+02  0.45594000000E+02  0.51100000000E-03 0. -1.
    9900012    2    1    2    0    0 -0.78076282630E+01  0.23101069206E+02  0.35902711365E+02  0.47787272576E+02  0.20000006985E+02 0.  0.
         12    1    1    2    0    0  0.78076282630E+01 -0.23101069206E+02 -0.35902711365E+02  0.43400727424E+02  0.00000000000E+00 0. -1.
         11    1    3    3    0    0 -0.54617139513E+01  0.82133451320E+01  0.52080271227E+01  0.11154053268E+02  0.51100000000E-03 0. -1.
        -11    1    3    3    0    0  0.15495371708E+00  0.93913735481E+01  0.58505401235E+01  0.11065745694E+02  0.51100000000E-03 0.  1.
         12    1    3    3    0    0 -0.25008680288E+01  0.54963505261E+01  0.24844144119E+02  0.25567473614E+02  0.00000000000E+00 0. -1.
</event>
<event>
 7    1  0.4477737E-009  0.4778727E+02  0.7816164E-02  0.1312668E+00
        -11   -1    0    0    0    0  0.00000000000E+00  0.00000000000E+00  0.45593999997E+02  0.45594000000E+02  0.51100000000E-03 0.  1.
         11   -1    0    0    0    0 -0.00000000000E+00 -0.00000000000E+00 -0.45593999997E+02  0.45594000000E+02  0.51100000000E-03 0. -1.
    9900012    2    1    2    0    0 -0.24909912883E+01  0.25192589076E+01  0.43255886240E+02  0.47787269621E+02  0.19999993509E+02 0.  0.
         12    1    1    2    0    0  0.24909912883E+01 -0.25192589076E+01 -0.43255886240E+02  0.43400730379E+02  0.00000000000E+00 0. -1.
         11    1    3    3    0    0 -0.34926173950E+01  0.44447542183E+01  0.20386834317E+01  0.60091968452E+01  0.51100000000E-03 0. -1.
        -11    1    3    3    0    0  0.31926532674E+01 -0.26069275909E+01  0.32641425367E+02  0.32900634593E+02  0.51100000000E-03 0.  1.
        -12    1    3    3    0    0 -0.21910271607E+01  0.68143228026E+00  0.85757774413E+01  0.88774381831E+01  0.00000000000E+00 0.  1.
</event>
<event>
 7    1  0.4477737E-009  0.4778727E+02  0.7816164E-02  0.1312668E+00
        -11   -1    0    0    0    0  0.00000000000E+00  0.00000000000E+00  0.45593999997E+02  0.45594000000E+02  0.51100000000E-03 0. -1.
         11   -1    0    0    0    0 -0.00000000000E+00 -0.00000000000E+00 -0.45593999997E+02  0.45594000000E+02  0.51100000000E-03 0.  1.
    9900012    2    1    2    0    0 -0.11074403921E+02  0.35855976266E+02  0.21802070181E+02  0.47787265900E+02  0.19999976545E+02 0.  0.
         12    1    1    2    0    0  0.11074403921E+02 -0.35855976266E+02 -0.21802070181E+02  0.43400734100E+02  0.00000000000E+00 0. -1.
         11    1    3    3    0    0 -0.91029449941E+01  0.10826976042E+02  0.11920797990E+02  0.18498444334E+02  0.51100000000E-03 0. -1.
        -11    1    3    3    0    0 -0.65910302357E+00  0.25229997528E+02  0.71179878083E+01  0.26223137546E+02  0.51100000000E-03 0.  1.
         12    1    3    3    0    0 -0.13123559038E+01 -0.20099730367E+00  0.27632843821E+01  0.30656840200E+01  0.00000000000E+00 0. -1.
</event>
<event>
 7    1  0.4477737E-009  0.4778728E+02  0.7816164E-02  0.1312668E+00
        -11   -1    0    0    0    0  0.00000000000E+00  0.00000000000E+00  0.45593999997E+02  0.45594000000E+02  0.51100000000E-03 0. -1.
         11   -1    0    0    0    0 -0.00000000000E+00 -0.00000000000E+00 -0.45593999997E+02  0.45594000000E+02  0.51100000000E-03 0.  1.
    9900012    2    1    2    0    0  0.41176278591E+02 -0.11767994471E+02  0.70463373560E+01  0.47787280161E+02  0.20000041564E+02 0.  0.
         12    1    1    2    0    0 -0.41176278591E+02  0.11767994471E+02 -0.70463373560E+01  0.43400719839E+02  0.00000000000E+00 0. -1.
         11    1    3    3    0    0  0.51573216711E+01 -0.31352868606E+01  0.28096593915E+01  0.66574902685E+01  0.51100000000E-03 0. -1.
        -11    1    3    3    0    0  0.18827926636E+02 -0.13114951429E+02  0.43989487882E+01  0.23363294355E+02  0.51100000000E-03 0.  1.
        -12    1    3    3    0    0  0.17191030283E+02  0.44822438190E+01 -0.16227082365E+00  0.17766495537E+02  0.00000000000E+00 0.  1.
</event>
<event>
 7    1  0.4477737E-009  0.4778727E+02  0.7816164E-02  0.1312668E+00
        -11   -1    0    0    0    0  0.00000000000E+00  0.00000000000E+00  0.45593999997E+02  0.45594000000E+02  0.51100000000E-03 0.  1.
         11   -1    0    0    0    0 -0.00000000000E+00 -0.00000000000E+00 -0.45593999997E+02  0.45594000000E+02  0.51100000000E-03 0. -1.
    9900012    2    1    2    0    0  0.31461123692E+02  0.83034739829E+01  0.28720614029E+02  0.47787266662E+02  0.19999980017E+02 0.  0.
         12    1    1    2    0    0 -0.31461123692E+02 -0.83034739829E+01 -0.28720614029E+02  0.43400733338E+02  0.00000000000E+00 0. -1.
         11    1    3    3    0    0  0.26310886740E+02  0.10231139650E+02  0.30283998749E+02  0.41401202399E+02  0.51100000000E-03 0.  1.
        -11    1    3    3    0    0  0.12854961784E+01  0.20636331710E-01 -0.16067241875E+01  0.20577874425E+01  0.51100000000E-03 0. -1.
         12    1    3    3    0    0  0.38647407727E+01 -0.19483019988E+01  0.43339466745E-01  0.43282768197E+01  0.00000000000E+00 0. -1.
</event>
<event>
 7    1  0.4477737E-009  0.4778727E+02  0.7816164E-02  0.1312668E+00
        -11   -1    0    0    0    0  0.00000000000E+00  0.00000000000E+00  0.45593999997E+02  0.45594000000E+02  0.51100000000E-03 0.  1.
         11   -1    0    0    0    0 -0.00000000000E+00 -0.00000000000E+00 -0.45593999997E+02  0.45594000000E+02  0.51100000000E-03 0. -1.
    9900012    2    1    2    0    0 -0.25331787163E+02 -0.34983941465E+02  0.42482746233E+01  0.47787269147E+02  0.19999991347E+02 0.  0.
         12    1    1    2    0    0  0.25331787163E+02  0.34983941465E+02 -0.42482746233E+01  0.43400730853E+02  0.00000000000E+00 0. -1.
         11    1    3    3    0    0 -0.20410803284E+00 -0.15868782856E+00 -0.40202876776E+01  0.40285922092E+01  0.51100000000E-03 0. -1.
        -11    1    3    3    0    0 -0.11963081346E+02 -0.17760214572E+02  0.38211231852E+01  0.21751816466E+02  0.51100000000E-03 0.  1.
         12    1    3    3    0    0 -0.13164597785E+02 -0.17065039065E+02  0.44474391158E+01  0.22006860471E+02  0.00000000000E+00 0. -1.
</event>
<event>
 7    1  0.4477737E-009  0.4778727E+02  0.7816164E-02  0.1312668E+00
        -11   -1    0    0    0    0  0.00000000000E+00  0.00000000000E+00  0.45593999997E+02  0.45594000000E+02  0.51100000000E-03 0.  1.
         11   -1    0    0    0    0 -0.00000000000E+00 -0.00000000000E+00 -0.45593999997E+02  0.45594000000E+02  0.51100000000E-03 0. -1.
    9900012    2    1    2    0    0 -0.45036943020E+01 -0.20629824253E+01  0.43117099610E+02  0.47787269158E+02  0.19999991397E+02 0.  0.
         12    1    1    2    0    0  0.45036943020E+01  0.20629824253E+01 -0.43117099610E+02  0.43400730842E+02  0.00000000000E+00 0. -1.
         11    1    3    3    0    0 -0.10070862436E+02 -0.47133393829E+01  0.35339969432E+02  0.37047959162E+02  0.51100000000E-03 0. -1.
        -11    1    3    3    0    0  0.37087501804E+01  0.28621494289E+01  0.75078900470E+01  0.88495841977E+01  0.51100000000E-03 0.  1.
         12    1    3    3    0    0  0.18584179538E+01 -0.21179247131E+00  0.26924013083E+00  0.18897257976E+01  0.00000000000E+00 0. -1.
</event>
<event>
 7    1  0.4477737E-009  0.4778727E+02  0.7816164E-02  0.1312668E+00
        -11   -1    0    0    0    0  0.00000000000E+00  0.00000000000E+00  0.45593999997E+02  0.45594000000E+02  0.51100000000E-03 0.  1.
         11   -1    0    0    0    0 -0.00000000000E+00 -0.00000000000E+00 -0.45593999997E+02  0.45594000000E+02  0.51100000000E-03 0. -1.
    9900012    2    1    2    0    0 -0.21009011296E+02 -0.37518906348E+02  0.58801676991E+01  0.47787271188E+02  0.20000000656E+02 0.  0.
         12    1    1    2    0    0  0.21009011296E+02  0.37518906348E+02 -0.58801676991E+01  0.43400728812E+02  0.00000000000E+00 0. -1.
         11    1    3    3    0    0 -0.10494233771E+02 -0.56262925387E+01  0.14761923813E+01  0.11998468835E+02  0.51100000000E-03 0. -1.
        -11    1    3    3    0    0 -0.64605577957E+01 -0.27444238036E+02  0.72787167196E+01  0.29118803645E+02  0.51100000000E-03 0.  1.
         12    1    3    3    0    0 -0.40542197293E+01 -0.44483757739E+01 -0.28747414018E+01  0.66699987081E+01  0.00000000000E+00 0. -1.
</event>
<event>
 7    1  0.4477737E-009  0.4778727E+02  0.7816164E-02  0.1312668E+00
        -11   -1    0    0    0    0  0.00000000000E+00  0.00000000000E+00  0.45593999997E+02  0.45594000000E+02  0.51100000000E-03 0.  1.
         11   -1    0    0    0    0 -0.00000000000E+00 -0.00000000000E+00 -0.45593999997E+02  0.45594000000E+02  0.51100000000E-03 0. -1.
    9900012    2    1    2    0    0  0.11192660064E+02  0.29907312101E+02  0.29392187987E+02  0.47787266469E+02  0.19999979137E+02 0.  0.
         12    1    1    2    0    0 -0.11192660064E+02 -0.29907312101E+02 -0.29392187987E+02  0.43400733531E+02  0.00000000000E+00 0. -1.
         11    1    3    3    0    0 -0.33656276843E+01  0.77938852319E+01  0.93086416085E+00  0.85404101227E+01  0.51100000000E-03 0. -1.
        -11    1    3    3    0    0  0.12282811598E+02  0.14863240175E+02  0.22167776229E+02  0.29380157801E+02  0.51100000000E-03 0.  1.
         12    1    3    3    0    0  0.22754761505E+01  0.72501866941E+01  0.62935475977E+01  0.98666985448E+01  0.00000000000E+00 0. -1.
</event>
<event>
 7    1  0.4477737E-009  0.4778723E+02  0.7816164E-02  0.1312668E+00
        -11   -1    0    0    0    0  0.00000000000E+00  0.00000000000E+00  0.45593999997E+02  0.45594000000E+02  0.51100000000E-03 0.  1.
         11   -1    0    0    0    0 -0.00000000000E+00 -0.00000000000E+00 -0.45593999997E+02  0.45594000000E+02  0.51100000000E-03 0. -1.
    9900012    2    1    2    0    0 -0.31050544490E+02 -0.29985961112E+02  0.45091272087E+01  0.47787234971E+02  0.19999835524E+02 0.  0.
         12    1    1    2    0    0  0.31050544490E+02  0.29985961112E+02 -0.45091272087E+01  0.43400765029E+02  0.00000000000E+00 0. -1.
         11    1    3    3    0    0 -0.25461351151E+02 -0.23104895052E+02  0.61418785943E+01  0.34926197198E+02  0.51100000000E-03 0. -1.
        -11    1    3    3    0    0 -0.80912755426E+01 -0.48929299248E+01 -0.19328401818E+01  0.96511851388E+01  0.51100000000E-03 0.  1.
         12    1    3    3    0    0  0.25020822031E+01 -0.19881361350E+01  0.30008879618E+00  0.32098526334E+01  0.00000000000E+00 0. -1.
</event>
<event>
 7    1  0.4477737E-009  0.4778732E+02  0.7816164E-02  0.1312668E+00
        -11   -1    0    0    0    0  0.00000000000E+00  0.00000000000E+00  0.45593999997E+02  0.45594000000E+02  0.51100000000E-03 0.  1.
         11   -1    0    0    0    0 -0.00000000000E+00 -0.00000000000E+00 -0.45593999997E+02  0.45594000000E+02  0.51100000000E-03 0. -1.
    9900012    2    1    2    0    0 -0.33503820471E+02 -0.25936705864E+02 -0.94021396824E+01  0.47787321113E+02  0.20000228283E+02 0.  0.
         12    1    1    2    0    0  0.33503820471E+02  0.25936705864E+02  0.94021396824E+01  0.43400678887E+02  0.00000000000E+00 0. -1.
         11    1    3    3    0    0 -0.11834943269E+02 -0.14054975174E+02 -0.10234210426E+02  0.21032053457E+02  0.51100000000E-03 0. -1.
        -11    1    3    3    0    0 -0.68526148237E+01 -0.38609617501E+01  0.51011813186E+01  0.93748283539E+01  0.51100000000E-03 0.  1.
         12    1    3    3    0    0 -0.14816262378E+02 -0.80207689398E+01 -0.42691105753E+01  0.17380439303E+02  0.00000000000E+00 0. -1.
</event>
<event>
 7    1  0.4477737E-009  0.4778727E+02  0.7816164E-02  0.1312668E+00
        -11   -1    0    0    0    0  0.00000000000E+00  0.00000000000E+00  0.45593999997E+02  0.45594000000E+02  0.51100000000E-03 0.  1.
         11   -1    0    0    0    0 -0.00000000000E+00 -0.00000000000E+00 -0.45593999997E+02  0.45594000000E+02  0.51100000000E-03 0. -1.
    9900012    2    1    2    0    0  0.13742912353E+01 -0.40801715991E+01  0.43186651568E+02  0.47787270164E+02  0.19999995984E+02 0.  0.
         12    1    1    2    0    0 -0.13742912353E+01  0.40801715991E+01 -0.43186651568E+02  0.43400729836E+02  0.00000000000E+00 0. -1.
         11    1    3    3    0    0 -0.31217987683E+01  0.41837872353E+01  0.96568619606E+01  0.10977462656E+02  0.51100000000E-03 0. -1.
        -11    1    3    3    0    0  0.47757405479E+01 -0.94178417836E+01  0.15582741615E+02  0.18823529906E+02  0.51100000000E-03 0.  1.
        -12    1    3    3    0    0 -0.27965054426E+00  0.11538829492E+01  0.17947047993E+02  0.17986277601E+02  0.00000000000E+00 0.  1.
</event>
<event>
 7    1  0.4477737E-009  0.4778728E+02  0.7816164E-02  0.1312668E+00
        -11   -1    0    0    0    0  0.00000000000E+00  0.00000000000E+00  0.45593999997E+02  0.45594000000E+02  0.51100000000E-03 0.  1.
         11   -1    0    0    0    0 -0.00000000000E+00 -0.00000000000E+00 -0.45593999997E+02  0.45594000000E+02  0.51100000000E-03 0. -1.
    9900012    2    1    2    0    0  0.15122466022E+02 -0.35390154079E+02  0.20061675154E+02  0.47787276570E+02  0.20000025191E+02 0.  0.
         12    1    1    2    0    0 -0.15122466022E+02  0.35390154079E+02 -0.20061675154E+02  0.43400723430E+02  0.00000000000E+00 0. -1.
         11    1    3    3    0    0 -0.19473261612E+01 -0.67697571189E+01  0.29982234641E+01  0.76557844032E+01  0.51100000000E-03 0. -1.
        -11    1    3    3    0    0  0.66699153183E+01 -0.17187905893E+01  0.58132209682E+00  0.69123040359E+01  0.51100000000E-03 0.  1.
        -12    1    3    3    0    0  0.10399876865E+02 -0.26901606371E+02  0.16482129593E+02  0.33219188130E+02  0.00000000000E+00 0.  1.
</event>
<event>
 7    1  0.4477737E-009  0.4778727E+02  0.7816164E-02  0.1312668E+00
        -11   -1    0    0    0    0  0.00000000000E+00  0.00000000000E+00  0.45593999997E+02  0.45594000000E+02  0.51100000000E-03 0.  1.
         11   -1    0    0    0    0 -0.00000000000E+00 -0.00000000000E+00 -0.45593999997E+02  0.45594000000E+02  0.51100000000E-03 0. -1.
    9900012    2    1    2    0    0  0.34784955890E+02 -0.25743077447E+02 -0.33051949092E+01  0.47787268369E+02  0.19999987803E+02 0.  0.
         12    1    1    2    0    0 -0.34784955890E+02  0.25743077447E+02  0.33051949092E+01  0.43400731631E+02  0.00000000000E+00 0. -1.
         11    1    3    3    0    0  0.16460371618E+02 -0.15570360606E+02 -0.78105926467E+01  0.23966337245E+02  0.51100000000E-03 0. -1.
        -11    1    3    3    0    0  0.19403964816E+02 -0.80624259692E+01  0.38549056142E+01  0.21362978740E+02  0.51100000000E-03 0.  1.
        -12    1    3    3    0    0 -0.10793805438E+01 -0.21102908715E+01  0.65049212332E+00  0.24579523842E+01  0.00000000000E+00 0.  1.
</event>
<event>
 7    1  0.4477737E-009  0.4778727E+02  0.7816164E-02  0.1312668E+00
        -11   -1    0    0    0    0  0.00000000000E+00  0.00000000000E+00  0.45593999997E+02  0.45594000000E+02  0.51100000000E-03 0.  1.
         11   -1    0    0    0    0 -0.00000000000E+00 -0.00000000000E+00 -0.45593999997E+02  0.45594000000E+02  0.51100000000E-03 0. -1.
    9900012    2    1    2    0    0 -0.78676513972E+01  0.31273761495E+01  0.42566921341E+02  0.47787271751E+02  0.20000003220E+02 0.  0.
         12    1    1    2    0    0  0.78676513972E+01 -0.31273761495E+01 -0.42566921341E+02  0.43400728249E+02  0.00000000000E+00 0. -1.
         11    1    3    3    0    0 -0.29276506084E+01  0.17519387652E+01  0.21047180639E+01  0.40087736169E+01  0.51100000000E-03 0. -1.
        -11    1    3    3    0    0 -0.18865616143E+01 -0.23082904018E+01 -0.53112262982E-01  0.29816338603E+01  0.51100000000E-03 0.  1.
        -12    1    3    3    0    0 -0.30534391745E+01  0.36837277861E+01  0.40515315540E+02  0.40796864273E+02  0.00000000000E+00 0.  1.
</event>
<event>
 7    1  0.4477737E-009  0.4778727E+02  0.7816164E-02  0.1312668E+00
        -11   -1    0    0    0    0  0.00000000000E+00  0.00000000000E+00  0.45593999997E+02  0.45594000000E+02  0.51100000000E-03 0. -1.
         11   -1    0    0    0    0 -0.00000000000E+00 -0.00000000000E+00 -0.45593999997E+02  0.45594000000E+02  0.51100000000E-03 0.  1.
    9900012    2    1    2    0    0  0.64277127012E+01 -0.38376708261E+02 -0.19223321013E+02  0.47787270763E+02  0.19999998717E+02 0.  0.
         12    1    1    2    0    0 -0.64277127012E+01  0.38376708261E+02  0.19223321013E+02  0.43400729237E+02  0.00000000000E+00 0. -1.
         11    1    3    3    0    0  0.40988416309E+01 -0.65447790717E+01  0.27831230790E+01  0.82085571294E+01  0.51100000000E-03 0. -1.
        -11    1    3    3    0    0  0.33197529471E+01 -0.20117118595E+02 -0.17881281728E+02  0.27119355758E+02  0.51100000000E-03 0.  1.
         12    1    3    3    0    0 -0.99088187679E+00 -0.11714810594E+02 -0.41251623635E+01  0.12459357876E+02  0.00000000000E+00 0. -1.
</event>
<event>
 7    1  0.4477737E-009  0.4778726E+02  0.7816164E-02  0.1312668E+00
        -11   -1    0    0    0    0  0.00000000000E+00  0.00000000000E+00  0.45593999997E+02  0.45594000000E+02  0.51100000000E-03 0.  1.
         11   -1    0    0    0    0 -0.00000000000E+00 -0.00000000000E+00 -0.45593999997E+02  0.45594000000E+02  0.51100000000E-03 0. -1.
    9900012    2    1    2    0    0 -0.51901311314E+01 -0.40694215803E+02 -0.14165719396E+02  0.47787259603E+02  0.19999947836E+02 0.  0.
         12    1    1    2    0    0  0.51901311314E+01  0.40694215803E+02  0.14165719396E+02  0.43400740397E+02  0.00000000000E+00 0. -1.
         11    1    3    3    0    0  0.49557561025E+00 -0.55695861758E+01 -0.10324048489E+02  0.11741033294E+02  0.51100000000E-03 0. -1.
        -11    1    3    3    0    0 -0.28374112183E+01 -0.23815684015E+02 -0.81595116122E+00  0.23997989167E+02  0.51100000000E-03 0.  1.
         12    1    3    3    0    0 -0.28482955234E+01 -0.11308945612E+02 -0.30257197459E+01  0.12048237142E+02  0.00000000000E+00 0. -1.
</event>
<event>
 7    1  0.4477737E-009  0.4778727E+02  0.7816164E-02  0.1312668E+00
        -11   -1    0    0    0    0  0.00000000000E+00  0.00000000000E+00  0.45593999997E+02  0.45594000000E+02  0.51100000000E-03 0.  1.
         11   -1    0    0    0    0 -0.00000000000E+00 -0.00000000000E+00 -0.45593999997E+02  0.45594000000E+02  0.51100000000E-03 0. -1.
    9900012    2    1    2    0    0  0.18968690778E+02  0.24357707906E+02  0.30504335286E+02  0.47787266878E+02  0.19999981004E+02 0.  0.
         12    1    1    2    0    0 -0.18968690778E+02 -0.24357707906E+02 -0.30504335286E+02  0.43400733122E+02  0.00000000000E+00 0. -1.
         11    1    3    3    0    0  0.40497835648E+01 -0.54281917840E+00  0.38920670223E+01  0.56430120990E+01  0.51100000000E-03 0. -1.
        -11    1    3    3    0    0 -0.14824781752E+01  0.67969841395E+01  0.11435341755E+02  0.13385207367E+02  0.51100000000E-03 0.  1.
        -12    1    3    3    0    0  0.16401385388E+02  0.18103542945E+02  0.15176926509E+02  0.28759047412E+02  0.00000000000E+00 0.  1.
</event>
<event>
 7    1  0.4477737E-009  0.4778727E+02  0.7816164E-02  0.1312668E+00
        -11   -1    0    0    0    0  0.00000000000E+00  0.00000000000E+00  0.45593999997E+02  0.45594000000E+02  0.51100000000E-03 0.  1.
         11   -1    0    0    0    0 -0.00000000000E+00 -0.00000000000E+00 -0.45593999997E+02  0.45594000000E+02  0.51100000000E-03 0. -1.
    9900012    2    1    2    0    0  0.33209648000E+02 -0.50747734256E+00  0.27937156057E+02  0.47787274866E+02  0.20000017425E+02 0.  0.
         12    1    1    2    0    0 -0.33209648000E+02  0.50747734256E+00 -0.27937156057E+02  0.43400725134E+02  0.00000000000E+00 0. -1.
         11    1    3    3    0    0  0.30346729719E+02  0.13343152232E+01  0.19573106348E+02  0.36136005509E+02  0.51100000000E-03 0. -1.
        -11    1    3    3    0    0  0.43512342473E+01  0.93494518373E-01  0.81005421540E+01  0.91956926955E+01  0.51100000000E-03 0.  1.
         12    1    3    3    0    0 -0.14883159657E+01 -0.19352870841E+01  0.26350755500E+00  0.24555766620E+01  0.00000000000E+00 0. -1.
</event>
<event>
 7    1  0.4477737E-009  0.4778727E+02  0.7816164E-02  0.1312668E+00
        -11   -1    0    0    0    0  0.00000000000E+00  0.00000000000E+00  0.45593999997E+02  0.45594000000E+02  0.51100000000E-03 0.  1.
         11   -1    0    0    0    0 -0.00000000000E+00 -0.00000000000E+00 -0.45593999997E+02  0.45594000000E+02  0.51100000000E-03 0. -1.
    9900012    2    1    2    0    0 -0.17262669632E+02  0.35528108556E+02  0.17982683781E+02  0.47787272168E+02  0.20000005122E+02 0.  0.
         12    1    1    2    0    0  0.17262669632E+02 -0.35528108556E+02 -0.17982683781E+02  0.43400727832E+02  0.00000000000E+00 0. -1.
         11    1    3    3    0    0 -0.27105370769E+00  0.18979413555E+01  0.75329988192E+01  0.77731411265E+01  0.51100000000E-03 0. -1.
        -11    1    3    3    0    0 -0.93931090524E+01  0.15403011391E+02  0.86097927951E+00  0.18061687163E+02  0.51100000000E-03 0.  1.
        -12    1    3    3    0    0 -0.75985068719E+01  0.18227155810E+02  0.95887056821E+01  0.21952443879E+02  0.00000000000E+00 0.  1.
</event>
<event>
 7    1  0.4477737E-009  0.4778727E+02  0.7816164E-02  0.1312668E+00
        -11   -1    0    0    0    0  0.00000000000E+00  0.00000000000E+00  0.45593999997E+02  0.45594000000E+02  0.51100000000E-03 0.  1.
         11   -1    0    0    0    0 -0.00000000000E+00 -0.00000000000E+00 -0.45593999997E+02  0.45594000000E+02  0.51100000000E-03 0. -1.
    9900012    2    1    2    0    0  0.28133494597E+02 -0.61508436712E+00  0.33041660207E+02  0.47787272400E+02  0.20000006180E+02 0.  0.
         12    1    1    2    0    0 -0.28133494597E+02  0.61508436712E+00 -0.33041660207E+02  0.43400727600E+02  0.00000000000E+00 0. -1.
         11    1    3    3    0    0 -0.14017729952E+00  0.19466547263E+01  0.41055888926E+01  0.45458744720E+01  0.51100000000E-03 0. -1.
        -11    1    3    3    0    0  0.20898147938E+02 -0.71799184378E+01  0.14645811383E+02  0.26510066152E+02  0.51100000000E-03 0.  1.
        -12    1    3    3    0    0  0.73755239576E+01  0.46181793445E+01  0.14290259931E+02  0.16731331776E+02  0.00000000000E+00 0.  1.
</event>
<event>
 7    1  0.4477737E-009  0.4778727E+02  0.7816164E-02  0.1312668E+00
        -11   -1    0    0    0    0  0.00000000000E+00  0.00000000000E+00  0.45593999997E+02  0.45594000000E+02  0.51100000000E-03 0. -1.
         11   -1    0    0    0    0 -0.00000000000E+00 -0.00000000000E+00 -0.45593999997E+02  0.45594000000E+02  0.51100000000E-03 0.  1.
    9900012    2    1    2    0    0  0.33831871010E+02  0.26715780183E+02  0.50294053415E+01  0.47787270456E+02  0.19999997318E+02 0.  0.
         12    1    1    2    0    0 -0.33831871010E+02 -0.26715780183E+02 -0.50294053415E+01  0.43400729544E+02  0.00000000000E+00 0. -1.
         11    1    3    3    0    0  0.77392118744E+01  0.11459199322E+02  0.77957946197E+01  0.15873974410E+02  0.51100000000E-03 0. -1.
        -11    1    3    3    0    0  0.67262637236E+01  0.55305238708E+01  0.34520609335E+01  0.93672857816E+01  0.51100000000E-03 0.  1.
         12    1    3    3    0    0  0.19366395412E+02  0.97260569898E+01 -0.62184502117E+01  0.22546010265E+02  0.00000000000E+00 0. -1.
</event>
<event>
 7    1  0.4477737E-009  0.4778728E+02  0.7816164E-02  0.1312668E+00
        -11   -1    0    0    0    0  0.00000000000E+00  0.00000000000E+00  0.45593999997E+02  0.45594000000E+02  0.51100000000E-03 0.  1.
         11   -1    0    0    0    0 -0.00000000000E+00 -0.00000000000E+00 -0.45593999997E+02  0.45594000000E+02  0.51100000000E-03 0. -1.
    9900012    2    1    2    0    0  0.19271844595E+02 -0.13185794731E+02  0.36583512662E+02  0.47787279090E+02  0.20000036684E+02 0.  0.
         12    1    1    2    0    0 -0.19271844595E+02  0.13185794731E+02 -0.36583512662E+02  0.43400720910E+02  0.00000000000E+00 0. -1.
         11    1    3    3    0    0  0.12749131691E+02 -0.17095445882E+02  0.19601803691E+02  0.28965934077E+02  0.51100000000E-03 0. -1.
        -11    1    3    3    0    0  0.60392297332E+01  0.23780262434E+01  0.13074836025E+02  0.14597213499E+02  0.51100000000E-03 0.  1.
         12    1    3    3    0    0  0.48348317105E+00  0.15316249074E+01  0.39068729465E+01  0.42241315147E+01  0.00000000000E+00 0. -1.
</event>
<event>
 7    1  0.4477737E-009  0.4778727E+02  0.7816164E-02  0.1312668E+00
        -11   -1    0    0    0    0  0.00000000000E+00  0.00000000000E+00  0.45593999997E+02  0.45594000000E+02  0.51100000000E-03 0. -1.
         11   -1    0    0    0    0 -0.00000000000E+00 -0.00000000000E+00 -0.45593999997E+02  0.45594000000E+02  0.51100000000E-03 0.  1.
    9900012    2    1    2    0    0 -0.11408314078E+02  0.26249810211E+02 -0.32625468383E+02  0.47787270128E+02  0.19999995821E+02 0.  0.
         12    1    1    2    0    0  0.11408314078E+02 -0.26249810211E+02  0.32625468383E+02  0.43400729872E+02  0.00000000000E+00 0. -1.
         11    1    3    3    0    0  0.61810886904E+00 -0.93117742674E+00 -0.24098281462E+01  0.26563926535E+01  0.51100000000E-03 0. -1.
        -11    1    3    3    0    0 -0.10428563831E+02  0.64081303039E+01 -0.14844493820E+02  0.19240012334E+02  0.51100000000E-03 0.  1.
        -12    1    3    3    0    0 -0.15978591164E+01  0.20772857334E+02 -0.15371146417E+02  0.25890865141E+02  0.00000000000E+00 0.  1.
</event>
<event>
 7    1  0.4477737E-009  0.4778727E+02  0.7816164E-02  0.1312668E+00
        -11   -1    0    0    0    0  0.00000000000E+00  0.00000000000E+00  0.45593999997E+02  0.45594000000E+02  0.51100000000E-03 0.  1.
         11   -1    0    0    0    0 -0.00000000000E+00 -0.00000000000E+00 -0.45593999997E+02  0.45594000000E+02  0.51100000000E-03 0. -1.
    9900012    2    1    2    0    0  0.13647824888E+02  0.35538028041E+01  0.41045469540E+02  0.47787271800E+02  0.20000003446E+02 0.  0.
         12    1    1    2    0    0 -0.13647824888E+02 -0.35538028041E+01 -0.41045469540E+02  0.43400728200E+02  0.00000000000E+00 0. -1.
         11    1    3    3    0    0  0.75132538916E+01 -0.72194893652E+01  0.15088629432E+02  0.18336759504E+02  0.51100000000E-03 0. -1.
        -11    1    3    3    0    0  0.52003563934E+01  0.59087956779E+01  0.99048276783E+01  0.12651607984E+02  0.51100000000E-03 0.  1.
         12    1    3    3    0    0  0.93421460333E+00  0.48644964914E+01  0.16052012430E+02  0.16798904312E+02  0.00000000000E+00 0. -1.
</event>
<event>
 7    1  0.4812049E-009  0.4778727E+02  0.7816164E-02  0.1312668E+00
        -11   -1    0    0    0    0  0.00000000000E+00  0.00000000000E+00  0.45593999997E+02  0.45594000000E+02  0.51100000000E-03 0.  1.
         11   -1    0    0    0    0 -0.00000000000E+00 -0.00000000000E+00 -0.45593999997E+02  0.45594000000E+02  0.51100000000E-03 0. -1.
    9900012    2    1    2    0    0  0.33092472027E+02 -0.28020158115E+02 -0.18390361444E+01  0.47787273974E+02  0.20000013357E+02 0.  0.
         12    1    1    2    0    0 -0.33092472027E+02  0.28020158115E+02  0.18390361444E+01  0.43400726026E+02  0.00000000000E+00 0. -1.
         11    1    3    3    0    0  0.11052637184E+02 -0.55504177144E+00 -0.25990816644E+01  0.11367677241E+02  0.51100000000E-03 0. -1.
        -11    1    3    3    0    0  0.12827807856E+02 -0.92611023420E+01 -0.15008896842E+01  0.15892556153E+02  0.51100000000E-03 0.  1.
         12    1    3    3    0    0  0.92120269871E+01 -0.18204014001E+02  0.22609352042E+01  0.20527040580E+02  0.00000000000E+00 0. -1.
</event>
<event>
 7    1  0.4477737E-009  0.4778727E+02  0.7816164E-02  0.1312668E+00
        -11   -1    0    0    0    0  0.00000000000E+00  0.00000000000E+00  0.45593999997E+02  0.45594000000E+02  0.51100000000E-03 0.  1.
         11   -1    0    0    0    0 -0.00000000000E+00 -0.00000000000E+00 -0.45593999997E+02  0.45594000000E+02  0.51100000000E-03 0. -1.
    9900012    2    1    2    0    0  0.70382348462E+01  0.14693728974E+02  0.40226617008E+02  0.47787272623E+02  0.20000007198E+02 0.  0.
         12    1    1    2    0    0 -0.70382348462E+01 -0.14693728974E+02 -0.40226617008E+02  0.43400727377E+02  0.00000000000E+00 0. -1.
         11    1    3    3    0    0 -0.44187211262E+01  0.14143603310E+00  0.12016920729E+01  0.45813933079E+01  0.51100000000E-03 0. -1.
        -11    1    3    3    0    0  0.67717530291E+01  0.90353053794E+01  0.24553908298E+02  0.27025687694E+02  0.51100000000E-03 0.  1.
         12    1    3    3    0    0  0.46852029434E+01  0.55169875619E+01  0.14471016637E+02  0.16180191621E+02  0.00000000000E+00 0. -1.
</event>
<event>
 7    1  0.4477737E-009  0.4778727E+02  0.7816164E-02  0.1312668E+00
        -11   -1    0    0    0    0  0.00000000000E+00  0.00000000000E+00  0.45593999997E+02  0.45594000000E+02  0.51100000000E-03 0.  1.
         11   -1    0    0    0    0 -0.00000000000E+00 -0.00000000000E+00 -0.45593999997E+02  0.45594000000E+02  0.51100000000E-03 0. -1.
    9900012    2    1    2    0    0  0.60823998970E+01  0.37088508933E+02  0.21704144974E+02  0.47787274287E+02  0.20000014786E+02 0.  0.
         12    1    1    2    0    0 -0.60823998970E+01 -0.37088508933E+02 -0.21704144974E+02  0.43400725713E+02  0.00000000000E+00 0. -1.
         11    1    3    3    0    0  0.42661298817E+01  0.12303214831E+02 -0.17525499695E+01  0.13139269043E+02  0.51100000000E-03 0. -1.
        -11    1    3    3    0    0  0.37451154792E+01  0.12028095088E+02  0.11696561758E+02  0.17190419385E+02  0.51100000000E-03 0.  1.
         12    1    3    3    0    0 -0.19288454639E+01  0.12757199013E+02  0.11760133185E+02  0.17457585859E+02  0.00000000000E+00 0. -1.
</event>
<event>
 7    1  0.4477737E-009  0.4778727E+02  0.7816164E-02  0.1312668E+00
        -11   -1    0    0    0    0  0.00000000000E+00  0.00000000000E+00  0.45593999997E+02  0.45594000000E+02  0.51100000000E-03 0.  1.
         11   -1    0    0    0    0 -0.00000000000E+00 -0.00000000000E+00 -0.45593999997E+02  0.45594000000E+02  0.51100000000E-03 0. -1.
    9900012    2    1    2    0    0  0.74515609973E+01 -0.32505732588E+02  0.27775437051E+02  0.47787270562E+02  0.19999997800E+02 0.  0.
         12    1    1    2    0    0 -0.74515609973E+01  0.32505732588E+02 -0.27775437051E+02  0.43400729438E+02  0.00000000000E+00 0. -1.
         11    1    3    3    0    0  0.61495236718E+01 -0.18023673387E+02  0.13008397444E+02  0.23062693860E+02  0.51100000000E-03 0.  1.
        -11    1    3    3    0    0 -0.83939816989E+00 -0.45296653996E+01  0.13741186161E+02  0.14492848419E+02  0.51100000000E-03 0. -1.
        -12    1    3    3    0    0  0.21414354954E+01 -0.99523938015E+01  0.10258534456E+01  0.10231728283E+02  0.00000000000E+00 0.  1.
</event>
<event>
 7    1  0.4477737E-009  0.4778727E+02  0.7816164E-02  0.1312668E+00
        -11   -1    0    0    0    0  0.00000000000E+00  0.00000000000E+00  0.45593999997E+02  0.45594000000E+02  0.51100000000E-03 0.  1.
         11   -1    0    0    0    0 -0.00000000000E+00 -0.00000000000E+00 -0.45593999997E+02  0.45594000000E+02  0.51100000000E-03 0. -1.
    9900012    2    1    2    0    0 -0.10403096049E+01 -0.23235720567E+02  0.36642085196E+02  0.47787270031E+02  0.19999995379E+02 0.  0.
         12    1    1    2    0    0  0.10403096049E+01  0.23235720567E+02 -0.36642085196E+02  0.43400729969E+02  0.00000000000E+00 0. -1.
         11    1    3    3    0    0  0.26161135417E+01 -0.20658030992E+01 -0.73633569571E+00  0.34137637624E+01  0.51100000000E-03 0. -1.
        -11    1    3    3    0    0  0.58255996684E+00 -0.10852492230E+02  0.27130235206E+02  0.29226112063E+02  0.51100000000E-03 0.  1.
         12    1    3    3    0    0 -0.42389831134E+01 -0.10317425238E+02  0.10248185685E+02  0.15147394206E+02  0.00000000000E+00 0. -1.
</event>
<event>
 7    1  0.4477737E-009  0.4778727E+02  0.7816164E-02  0.1312668E+00
        -11   -1    0    0    0    0  0.00000000000E+00  0.00000000000E+00  0.45593999997E+02  0.45594000000E+02  0.51100000000E-03 0. -1.
         11   -1    0    0    0    0 -0.00000000000E+00 -0.00000000000E+00 -0.45593999997E+02  0.45594000000E+02  0.51100000000E-03 0.  1.
    9900012    2    1    2    0    0 -0.43081450294E+02  0.32216949809E+01 -0.41512037473E+01  0.47787272235E+02  0.20000005430E+02 0.  0.
         12    1    1    2    0    0  0.43081450294E+02 -0.32216949809E+01  0.41512037473E+01  0.43400727765E+02  0.00000000000E+00 0. -1.
         11    1    3    3    0    0 -0.57226192713E+01 -0.41431648726E+01  0.42743422553E+01  0.82573717648E+01  0.51100000000E-03 0. -1.
        -11    1    3    3    0    0 -0.34104432887E+02  0.63358307674E+01 -0.56809520333E+01  0.35150082650E+02  0.51100000000E-03 0.  1.
         12    1    3    3    0    0 -0.32543981357E+01  0.10290290862E+01 -0.27445939693E+01  0.43798178207E+01  0.00000000000E+00 0. -1.
</event>
<event>
 7    1  0.4477737E-009  0.4778727E+02  0.7816164E-02  0.1312668E+00
        -11   -1    0    0    0    0  0.00000000000E+00  0.00000000000E+00  0.45593999997E+02  0.45594000000E+02  0.51100000000E-03 0.  1.
         11   -1    0    0    0    0 -0.00000000000E+00 -0.00000000000E+00 -0.45593999997E+02  0.45594000000E+02  0.51100000000E-03 0. -1.
    9900012    2    1    2    0    0  0.27287203610E+02 -0.32792912123E+02  0.79785111827E+01  0.47787271814E+02  0.20000003510E+02 0.  0.
         12    1    1    2    0    0 -0.27287203610E+02  0.32792912123E+02 -0.79785111827E+01  0.43400728186E+02  0.00000000000E+00 0. -1.
         11    1    3    3    0    0  0.26254543145E+01 -0.17028548158E+01 -0.18307111441E+01  0.36254969915E+01  0.51100000000E-03 0. -1.
        -11    1    3    3    0    0  0.12351684780E+02 -0.26934770869E+02  0.38956664771E+01  0.29886823455E+02  0.51100000000E-03 0.  1.
        -12    1    3    3    0    0  0.12310064515E+02 -0.41552864375E+01  0.59135558498E+01  0.14274951367E+02  0.00000000000E+00 0.  1.
</event>
<event>
 7    1  0.4477737E-009  0.4778727E+02  0.7816164E-02  0.1312668E+00
        -11   -1    0    0    0    0  0.00000000000E+00  0.00000000000E+00  0.45593999997E+02  0.45594000000E+02  0.51100000000E-03 0.  1.
         11   -1    0    0    0    0 -0.00000000000E+00 -0.00000000000E+00 -0.45593999997E+02  0.45594000000E+02  0.51100000000E-03 0. -1.
    9900012    2    1    2    0    0  0.42160040986E+02  0.64632856605E+01  0.80237302936E+01  0.47787269991E+02  0.19999995199E+02 0.  0.
         12    1    1    2    0    0 -0.42160040986E+02 -0.64632856605E+01 -0.80237302936E+01  0.43400730009E+02  0.00000000000E+00 0. -1.
         11    1    3    3    0    0  0.23167212050E+02  0.68004431778E+01 -0.15961994410E+01  0.24197388176E+02  0.51100000000E-03 0. -1.
        -11    1    3    3    0    0  0.52099907163E+01 -0.37760887239E+01  0.62926869374E+01  0.90000421370E+01  0.51100000000E-03 0.  1.
        -12    1    3    3    0    0  0.13782838219E+02  0.34389312067E+01  0.33272427973E+01  0.14589839679E+02  0.00000000000E+00 0.  1.
</event>
<event>
 7    1  0.4477737E-009  0.4778728E+02  0.7816164E-02  0.1312668E+00
        -11   -1    0    0    0    0  0.00000000000E+00  0.00000000000E+00  0.45593999997E+02  0.45594000000E+02  0.51100000000E-03 0. -1.
         11   -1    0    0    0    0 -0.00000000000E+00 -0.00000000000E+00 -0.45593999997E+02  0.45594000000E+02  0.51100000000E-03 0.  1.
    9900012    2    1    2    0    0  0.40156428529E+01  0.40789586812E+02 -0.14272584948E+02  0.47787280410E+02  0.20000042700E+02 0.  0.
         12    1    1    2    0    0 -0.40156428529E+01 -0.40789586812E+02  0.14272584948E+02  0.43400719590E+02  0.00000000000E+00 0. -1.
         11    1    3    3    0    0  0.55020135918E+01  0.18322199189E+01 -0.58664113720E+00  0.58286646396E+01  0.51100000000E-03 0. -1.
        -11    1    3    3    0    0 -0.33629424688E+01  0.22369819299E+02 -0.10603545248E+02  0.24983061654E+02  0.51100000000E-03 0.  1.
        -12    1    3    3    0    0  0.18765717298E+01  0.16587547594E+02 -0.30823985630E+01  0.16975554116E+02  0.00000000000E+00 0.  1.
</event>
<event>
 7    1  0.4477737E-009  0.4778727E+02  0.7816164E-02  0.1312668E+00
        -11   -1    0    0    0    0  0.00000000000E+00  0.00000000000E+00  0.45593999997E+02  0.45594000000E+02  0.51100000000E-03 0. -1.
         11   -1    0    0    0    0 -0.00000000000E+00 -0.00000000000E+00 -0.45593999997E+02  0.45594000000E+02  0.51100000000E-03 0.  1.
    9900012    2    1    2    0    0  0.42458356043E+02  0.77115426191E+01  0.46307164656E+01  0.47787269333E+02  0.19999992195E+02 0.  0.
         12    1    1    2    0    0 -0.42458356043E+02 -0.77115426191E+01 -0.46307164656E+01  0.43400730667E+02  0.00000000000E+00 0. -1.
         11    1    3    3    0    0 -0.61847794462E-01 -0.77969017915E+00  0.17864564334E+01  0.19501714732E+01  0.51100000000E-03 0. -1.
        -11    1    3    3    0    0  0.29956848609E+02  0.10106203468E+02  0.72314595369E+01  0.32432115787E+02  0.51100000000E-03 0.  1.
        -12    1    3    3    0    0  0.12563355228E+02 -0.16149706701E+01 -0.43871995047E+01  0.13404982072E+02  0.00000000000E+00 0.  1.
</event>
<event>
 7    1  0.4477737E-009  0.4778727E+02  0.7816164E-02  0.1312668E+00
        -11   -1    0    0    0    0  0.00000000000E+00  0.00000000000E+00  0.45593999997E+02  0.45594000000E+02  0.51100000000E-03 0.  1.
         11   -1    0    0    0    0 -0.00000000000E+00 -0.00000000000E+00 -0.45593999997E+02  0.45594000000E+02  0.51100000000E-03 0. -1.
    9900012    2    1    2    0    0  0.13664956881E+01 -0.12508870159E+02  0.41536542779E+02  0.47787268103E+02  0.19999986591E+02 0.  0.
         12    1    1    2    0    0 -0.13664956881E+01  0.12508870159E+02 -0.41536542779E+02  0.43400731897E+02  0.00000000000E+00 0. -1.
         11    1    3    3    0    0  0.11176476899E+01 -0.40156433271E+01  0.45976634520E+01  0.62058872991E+01  0.51100000000E-03 0. -1.
        -11    1    3    3    0    0 -0.65900459392E+01 -0.43845617819E+01  0.68985638895E+01  0.10499679590E+02  0.51100000000E-03 0.  1.
        -12    1    3    3    0    0  0.68388939374E+01 -0.41086650498E+01  0.30040315437E+02  0.31081701214E+02  0.00000000000E+00 0.  1.
</event>
<event>
 7    1  0.4477737E-009  0.4778727E+02  0.7816164E-02  0.1312668E+00
        -11   -1    0    0    0    0  0.00000000000E+00  0.00000000000E+00  0.45593999997E+02  0.45594000000E+02  0.51100000000E-03 0.  1.
         11   -1    0    0    0    0 -0.00000000000E+00 -0.00000000000E+00 -0.45593999997E+02  0.45594000000E+02  0.51100000000E-03 0. -1.
    9900012    2    1    2    0    0  0.41786781848E+02  0.10981101472E+02  0.41113882155E+01  0.47787271437E+02  0.20000001790E+02 0.  0.
         12    1    1    2    0    0 -0.41786781848E+02 -0.10981101472E+02 -0.41113882155E+01  0.43400728563E+02  0.00000000000E+00 0. -1.
         11    1    3    3    0    0  0.51315092503E+01 -0.27858642141E+01  0.25979933758E+01  0.63908525602E+01  0.51100000000E-03 0. -1.
        -11    1    3    3    0    0  0.28538542891E+02  0.11347660309E+02  0.67416391140E+01  0.31443083866E+02  0.51100000000E-03 0.  1.
        -12    1    3    3    0    0  0.81167297067E+01  0.24193053770E+01 -0.52282442743E+01  0.99533350105E+01  0.00000000000E+00 0.  1.
</event>
<event>
 7    1  0.4477737E-009  0.4778730E+02  0.7816164E-02  0.1312668E+00
        -11   -1    0    0    0    0  0.00000000000E+00  0.00000000000E+00  0.45593999997E+02  0.45594000000E+02  0.51100000000E-03 0. -1.
         11   -1    0    0    0    0 -0.00000000000E+00 -0.00000000000E+00 -0.45593999997E+02  0.45594000000E+02  0.51100000000E-03 0.  1.
    9900012    2    1    2    0    0  0.28334419345E+02 -0.14203812147E+02 -0.29648489776E+02  0.47787302481E+02  0.20000143333E+02 0.  0.
         12    1    1    2    0    0 -0.28334419345E+02  0.14203812147E+02  0.29648489776E+02  0.43400697519E+02  0.00000000000E+00 0. -1.
         11    1    3    3    0    0 -0.15987972458E+01  0.11836964691E+01  0.21439131972E-01  0.19894094253E+01  0.51100000000E-03 0. -1.
        -11    1    3    3    0    0  0.29086794137E+02 -0.12150863564E+02 -0.26360800120E+02  0.41092296867E+02  0.51100000000E-03 0.  1.
        -12    1    3    3    0    0  0.84642245327E+00 -0.32366450524E+01 -0.33091287875E+01  0.47055961893E+01  0.00000000000E+00 0.  1.
</event>
<event>
 7    1  0.4477737E-009  0.4778727E+02  0.7816164E-02  0.1312668E+00
        -11   -1    0    0    0    0  0.00000000000E+00  0.00000000000E+00  0.45593999997E+02  0.45594000000E+02  0.51100000000E-03 0.  1.
         11   -1    0    0    0    0 -0.00000000000E+00 -0.00000000000E+00 -0.45593999997E+02  0.45594000000E+02  0.51100000000E-03 0. -1.
    9900012    2    1    2    0    0 -0.19909126184E+02 -0.34321540412E+02  0.17586413926E+02  0.47787269632E+02  0.19999993561E+02 0.  0.
         12    1    1    2    0    0  0.19909126184E+02  0.34321540412E+02 -0.17586413926E+02  0.43400730368E+02  0.00000000000E+00 0. -1.
         11    1    3    3    0    0 -0.95451214499E+01 -0.78048135799E+01  0.12899986315E+01  0.12397118828E+02  0.51100000000E-03 0. -1.
        -11    1    3    3    0    0 -0.40668108596E+01 -0.86054764058E+01  0.13012934207E+02  0.16122333320E+02  0.51100000000E-03 0.  1.
        -12    1    3    3    0    0 -0.62971938742E+01 -0.17911250427E+02  0.32834810875E+01  0.19267817484E+02  0.00000000000E+00 0.  1.
</event>
<event>
 7    1  0.4477737E-009  0.4778725E+02  0.7816164E-02  0.1312668E+00
        -11   -1    0    0    0    0  0.00000000000E+00  0.00000000000E+00  0.45593999997E+02  0.45594000000E+02  0.51100000000E-03 0.  1.
         11   -1    0    0    0    0 -0.00000000000E+00 -0.00000000000E+00 -0.45593999997E+02  0.45594000000E+02  0.51100000000E-03 0. -1.
    9900012    2    1    2    0    0 -0.58893638732E+01  0.24669585949E+02  0.35218630637E+02  0.47787250909E+02  0.19999908194E+02 0.  0.
         12    1    1    2    0    0  0.58893638732E+01 -0.24669585949E+02 -0.35218630637E+02  0.43400749091E+02  0.00000000000E+00 0. -1.
         11    1    3    3    0    0 -0.88436544771E+01  0.50206417293E+01  0.19640768979E+02  0.22117343291E+02  0.51100000000E-03 0. -1.
        -11    1    3    3    0    0  0.32873779163E+01  0.18193167564E+02  0.15579007454E+02  0.24176510772E+02  0.51100000000E-03 0.  1.
        -12    1    3    3    0    0 -0.33308731238E+00  0.14557766554E+01 -0.11457965193E-02  0.14933968464E+01  0.00000000000E+00 0.  1.
</event>
<event>
 7    1  0.4477737E-009  0.4778727E+02  0.7816164E-02  0.1312668E+00
        -11   -1    0    0    0    0  0.00000000000E+00  0.00000000000E+00  0.45593999997E+02  0.45594000000E+02  0.51100000000E-03 0. -1.
         11   -1    0    0    0    0 -0.00000000000E+00 -0.00000000000E+00 -0.45593999997E+02  0.45594000000E+02  0.51100000000E-03 0.  1.
    9900012    2    1    2    0    0  0.11358472708E+02  0.28279163808E+02 -0.30901417684E+02  0.47787267024E+02  0.19999981671E+02 0.  0.
         12    1    1    2    0    0 -0.11358472708E+02 -0.28279163808E+02  0.30901417684E+02  0.43400732976E+02  0.00000000000E+00 0. -1.
         11    1    3    3    0    0  0.56060800333E+00 -0.77953305723E+00 -0.14337307919E+00  0.97082914133E+00  0.51100000000E-03 0. -1.
        -11    1    3    3    0    0 -0.16784241483E+01 -0.10851801569E+01 -0.45492816746E+01  0.49689724904E+01  0.51100000000E-03 0.  1.
        -12    1    3    3    0    0  0.12476288853E+02  0.30143877022E+02 -0.26208762930E+02  0.41847465393E+02  0.00000000000E+00 0.  1.
</event>
<event>
 7    1  0.5119898E-009  0.4778727E+02  0.7816164E-02  0.1312668E+00
        -11   -1    0    0    0    0  0.00000000000E+00  0.00000000000E+00  0.45593999997E+02  0.45594000000E+02  0.51100000000E-03 0. -1.
         11   -1    0    0    0    0 -0.00000000000E+00 -0.00000000000E+00 -0.45593999997E+02  0.45594000000E+02  0.51100000000E-03 0.  1.
    9900012    2    1    2    0    0  0.35889378371E+02 -0.22758890094E+02 -0.88096051778E+01  0.47787266117E+02  0.19999977535E+02 0.  0.
         12    1    1    2    0    0 -0.35889378371E+02  0.22758890094E+02  0.88096051778E+01  0.43400733883E+02  0.00000000000E+00 0. -1.
         11    1    3    3    0    0 -0.12135659242E+01  0.15012542520E+01  0.18759573823E+00  0.19395099906E+01  0.51100000000E-03 0. -1.
        -11    1    3    3    0    0  0.26725304541E+02 -0.13684117991E+02 -0.75531533959E+01  0.30960412053E+02  0.51100000000E-03 0.  1.
         12    1    3    3    0    0  0.10377639754E+02 -0.10576026356E+02 -0.14440475202E+01  0.14887344074E+02  0.00000000000E+00 0. -1.
</event>
<event>
 7    1  0.4477737E-009  0.4778727E+02  0.7816164E-02  0.1312668E+00
        -11   -1    0    0    0    0  0.00000000000E+00  0.00000000000E+00  0.45593999997E+02  0.45594000000E+02  0.51100000000E-03 0.  1.
         11   -1    0    0    0    0 -0.00000000000E+00 -0.00000000000E+00 -0.45593999997E+02  0.45594000000E+02  0.51100000000E-03 0. -1.
    9900012    2    1    2    0    0  0.18052889387E+02 -0.25136132472E+02  0.30428460457E+02  0.47787272164E+02  0.20000005106E+02 0.  0.
         12    1    1    2    0    0 -0.18052889387E+02  0.25136132472E+02 -0.30428460457E+02  0.43400727836E+02  0.00000000000E+00 0. -1.
         11    1    3    3    0    0  0.20591732787E+01 -0.99313193525E-01 -0.25632802270E+01  0.32894472918E+01  0.51100000000E-03 0. -1.
        -11    1    3    3    0    0  0.10193841692E+02 -0.15896977942E+02  0.23073142243E+02  0.29816073004E+02  0.51100000000E-03 0.  1.
         12    1    3    3    0    0  0.57998744168E+01 -0.91398413363E+01  0.99185984407E+01  0.14681751869E+02  0.00000000000E+00 0. -1.
</event>
<event>
 7    1  0.4477737E-009  0.4778727E+02  0.7816164E-02  0.1312668E+00
        -11   -1    0    0    0    0  0.00000000000E+00  0.00000000000E+00  0.45593999997E+02  0.45594000000E+02  0.51100000000E-03 0.  1.
         11   -1    0    0    0    0 -0.00000000000E+00 -0.00000000000E+00 -0.45593999997E+02  0.45594000000E+02  0.51100000000E-03 0. -1.
    9900012    2    1    2    0    0  0.79230500419E+00 -0.10414324236E+00  0.43393373054E+02  0.47787269384E+02  0.19999992429E+02 0.  0.
         12    1    1    2    0    0 -0.79230500419E+00  0.10414324236E+00 -0.43393373054E+02  0.43400730616E+02  0.00000000000E+00 0. -1.
         11    1    3    3    0    0 -0.15176158583E+01 -0.24552355114E+00  0.24432520642E+00  0.15566421475E+01  0.51100000000E-03 0. -1.
        -11    1    3    3    0    0  0.13182866588E+01  0.68722801104E+01  0.89470987137E+01  0.11358551373E+02  0.51100000000E-03 0.  1.
        -12    1    3    3    0    0  0.99163420369E+00 -0.67308998016E+01  0.34201949133E+02  0.34872075864E+02  0.00000000000E+00 0.  1.
</event>
<event>
 7    1  0.4477737E-009  0.4778727E+02  0.7816164E-02  0.1312668E+00
        -11   -1    0    0    0    0  0.00000000000E+00  0.00000000000E+00  0.45593999997E+02  0.45594000000E+02  0.51100000000E-03 0.  1.
         11   -1    0    0    0    0 -0.00000000000E+00 -0.00000000000E+00 -0.45593999997E+02  0.45594000000E+02  0.51100000000E-03 0. -1.
    9900012    2    1    2    0    0 -0.14020145546E+02  0.15476317490E+02  0.38046581499E+02  0.47787271343E+02  0.20000001362E+02 0.  0.
         12    1    1    2    0    0  0.14020145546E+02 -0.15476317490E+02 -0.38046581499E+02  0.43400728657E+02  0.00000000000E+00 0. -1.
         11    1    3    3    0    0 -0.15134018506E+02  0.60288360539E+01  0.28516837072E+02  0.32841975841E+02  0.51100000000E-03 0.  1.
        -11    1    3    3    0    0  0.26522744662E+01  0.89988114486E+01  0.94869359906E+01  0.13342230776E+02  0.51100000000E-03 0. -1.
        -12    1    3    3    0    0 -0.15384015065E+01  0.44866998797E+00  0.42808436195E-01  0.16030647259E+01  0.00000000000E+00 0.  1.
</event>
<event>
 7    1  0.4477737E-009  0.4778727E+02  0.7816164E-02  0.1312668E+00
        -11   -1    0    0    0    0  0.00000000000E+00  0.00000000000E+00  0.45593999997E+02  0.45594000000E+02  0.51100000000E-03 0. -1.
         11   -1    0    0    0    0 -0.00000000000E+00 -0.00000000000E+00 -0.45593999997E+02  0.45594000000E+02  0.51100000000E-03 0.  1.
    9900012    2    1    2    0    0  0.56213088370E+01  0.38509881951E+02  0.19209706235E+02  0.47787274953E+02  0.20000017823E+02 0.  0.
         12    1    1    2    0    0 -0.56213088370E+01 -0.38509881951E+02 -0.19209706235E+02  0.43400725047E+02  0.00000000000E+00 0. -1.
         11    1    3    3    0    0  0.96364688142E+01  0.13343509424E+02  0.10200099227E+02  0.19363697980E+02  0.51100000000E-03 0. -1.
        -11    1    3    3    0    0 -0.38267250649E+01  0.24129597891E+02  0.58904502357E+01  0.25131230040E+02  0.51100000000E-03 0.  1.
        -12    1    3    3    0    0 -0.18843491222E+00  0.10367746365E+01  0.31191567714E+01  0.32923469331E+01  0.00000000000E+00 0.  1.
</event>
<event>
 7    1  0.4477737E-009  0.4778727E+02  0.7816164E-02  0.1312668E+00
        -11   -1    0    0    0    0  0.00000000000E+00  0.00000000000E+00  0.45593999997E+02  0.45594000000E+02  0.51100000000E-03 0. -1.
         11   -1    0    0    0    0 -0.00000000000E+00 -0.00000000000E+00 -0.45593999997E+02  0.45594000000E+02  0.51100000000E-03 0.  1.
    9900012    2    1    2    0    0  0.34471625162E+02  0.13125504305E+02 -0.22870323272E+02  0.47787268542E+02  0.19999988589E+02 0.  0.
         12    1    1    2    0    0 -0.34471625162E+02 -0.13125504305E+02  0.22870323272E+02  0.43400731458E+02  0.00000000000E+00 0. -1.
         11    1    3    3    0    0  0.31505963177E+02  0.45201235477E+01 -0.15523500528E+02  0.35412374977E+02  0.51100000000E-03 0. -1.
        -11    1    3    3    0    0  0.38116996568E+01  0.53977872674E+01 -0.53566612068E+01  0.85064082434E+01  0.51100000000E-03 0.  1.
         12    1    3    3    0    0 -0.84603767206E+00  0.32075934894E+01 -0.19901615378E+01  0.38684853215E+01  0.00000000000E+00 0. -1.
</event>
<event>
 7    1  0.4477737E-009  0.4778727E+02  0.7816164E-02  0.1312668E+00
        -11   -1    0    0    0    0  0.00000000000E+00  0.00000000000E+00  0.45593999997E+02  0.45594000000E+02  0.51100000000E-03 0.  1.
         11   -1    0    0    0    0 -0.00000000000E+00 -0.00000000000E+00 -0.45593999997E+02  0.45594000000E+02  0.51100000000E-03 0. -1.
    9900012    2    1    2    0    0 -0.25142776790E+02  0.35258099529E+02  0.28862878708E+01  0.47787268846E+02  0.19999989974E+02 0.  0.
         12    1    1    2    0    0  0.25142776790E+02 -0.35258099529E+02 -0.28862878708E+01  0.43400731154E+02  0.00000000000E+00 0. -1.
         11    1    3    3    0    0 -0.24153558201E+01  0.16855206707E+01 -0.12333898524E+01  0.31931449166E+01  0.51100000000E-03 0. -1.
        -11    1    3    3    0    0 -0.24662490994E+02  0.30685259676E+02  0.71152130260E+01  0.40005623106E+02  0.51100000000E-03 0.  1.
        -12    1    3    3    0    0  0.19350700241E+01  0.28873191818E+01 -0.29955353028E+01  0.45885008233E+01  0.00000000000E+00 0.  1.
</event>
<event>
 7    1  0.4477737E-009  0.4778727E+02  0.7816164E-02  0.1312668E+00
        -11   -1    0    0    0    0  0.00000000000E+00  0.00000000000E+00  0.45593999997E+02  0.45594000000E+02  0.51100000000E-03 0.  1.
         11   -1    0    0    0    0 -0.00000000000E+00 -0.00000000000E+00 -0.45593999997E+02  0.45594000000E+02  0.51100000000E-03 0. -1.
    9900012    2    1    2    0    0  0.22867068452E+02 -0.25164862819E+02  0.26971285818E+02  0.47787269603E+02  0.19999993429E+02 0.  0.
         12    1    1    2    0    0 -0.22867068452E+02  0.25164862819E+02 -0.26971285818E+02  0.43400730397E+02  0.00000000000E+00 0. -1.
         11    1    3    3    0    0 -0.25314118544E+01 -0.33991677205E+00  0.77295343448E+00  0.26685289321E+01  0.51100000000E-03 0. -1.
        -11    1    3    3    0    0  0.21348773507E+02 -0.18014522701E+02  0.24172064970E+02  0.36940247476E+02  0.51100000000E-03 0.  1.
        -12    1    3    3    0    0  0.40497067996E+01 -0.68104233459E+01  0.20262674136E+01  0.81784931953E+01  0.00000000000E+00 0.  1.
</event>
<event>
 7    1  0.4477737E-009  0.4778728E+02  0.7816164E-02  0.1312668E+00
        -11   -1    0    0    0    0  0.00000000000E+00  0.00000000000E+00  0.45593999997E+02  0.45594000000E+02  0.51100000000E-03 0.  1.
         11   -1    0    0    0    0 -0.00000000000E+00 -0.00000000000E+00 -0.45593999997E+02  0.45594000000E+02  0.51100000000E-03 0. -1.
    9900012    2    1    2    0    0 -0.23291381684E+02 -0.87132330794E+01  0.35569844066E+02  0.47787277675E+02  0.20000030231E+02 0.  0.
         12    1    1    2    0    0  0.23291381684E+02  0.87132330794E+01 -0.35569844066E+02  0.43400722325E+02  0.00000000000E+00 0. -1.
         11    1    3    3    0    0 -0.24964879990E+01  0.43352438626E+01  0.12261612060E+02  0.13242881946E+02  0.51100000000E-03 0. -1.
        -11    1    3    3    0    0 -0.24472699777E+01 -0.29634130676E+01  0.70758624727E+01  0.80522529361E+01  0.51100000000E-03 0.  1.
         12    1    3    3    0    0 -0.18347623707E+02 -0.10085063874E+02  0.16232369534E+02  0.26492142792E+02  0.00000000000E+00 0. -1.
</event>
<event>
 7    1  0.4477737E-009  0.4778727E+02  0.7816164E-02  0.1312668E+00
        -11   -1    0    0    0    0  0.00000000000E+00  0.00000000000E+00  0.45593999997E+02  0.45594000000E+02  0.51100000000E-03 0. -1.
         11   -1    0    0    0    0 -0.00000000000E+00 -0.00000000000E+00 -0.45593999997E+02  0.45594000000E+02  0.51100000000E-03 0.  1.
    9900012    2    1    2    0    0  0.16713642776E+01  0.14487422517E+02 -0.40877183812E+02  0.47787273898E+02  0.20000013010E+02 0.  0.
         12    1    1    2    0    0 -0.16713642776E+01 -0.14487422517E+02  0.40877183812E+02  0.43400726102E+02  0.00000000000E+00 0. -1.
         11    1    3    3    0    0  0.68814718251E+01  0.23826457409E+01 -0.85255979431E+01  0.11212380468E+02  0.51100000000E-03 0. -1.
        -11    1    3    3    0    0 -0.34493048995E+01  0.12191886366E+02 -0.32422698403E+02  0.34810503723E+02  0.51100000000E-03 0.  1.
        -12    1    3    3    0    0 -0.17608026480E+01 -0.87109589746E-01  0.71112533753E-01  0.17643897070E+01  0.00000000000E+00 0.  1.
</event>
<event>
 7    1  0.4477737E-009  0.4778727E+02  0.7816164E-02  0.1312668E+00
        -11   -1    0    0    0    0  0.00000000000E+00  0.00000000000E+00  0.45593999997E+02  0.45594000000E+02  0.51100000000E-03 0. -1.
         11   -1    0    0    0    0 -0.00000000000E+00 -0.00000000000E+00 -0.45593999997E+02  0.45594000000E+02  0.51100000000E-03 0.  1.
    9900012    2    1    2    0    0  0.10919199478E+00 -0.84322959160E+01 -0.42573553790E+02  0.47787273973E+02  0.20000013354E+02 0.  0.
         12    1    1    2    0    0 -0.10919199478E+00  0.84322959160E+01  0.42573553790E+02  0.43400726027E+02  0.00000000000E+00 0. -1.
         11    1    3    3    0    0  0.15472008589E+01 -0.25620586797E+01 -0.40542593687E+00  0.30203221066E+01  0.51100000000E-03 0. -1.
        -11    1    3    3    0    0  0.38321191527E+01 -0.22744249793E+00 -0.30717002188E+02  0.30955954047E+02  0.51100000000E-03 0.  1.
        -12    1    3    3    0    0 -0.52701280169E+01 -0.56427947383E+01 -0.11451125666E+02  0.13810997820E+02  0.00000000000E+00 0.  1.
</event>
<event>
 7    1  0.4477737E-009  0.4778727E+02  0.7816164E-02  0.1312668E+00
        -11   -1    0    0    0    0  0.00000000000E+00  0.00000000000E+00  0.45593999997E+02  0.45594000000E+02  0.51100000000E-03 0. -1.
         11   -1    0    0    0    0 -0.00000000000E+00 -0.00000000000E+00 -0.45593999997E+02  0.45594000000E+02  0.51100000000E-03 0.  1.
    9900012    2    1    2    0    0 -0.40580688234E+02  0.52590000976E+01 -0.14462847867E+02  0.47787270651E+02  0.19999998206E+02 0.  0.
         12    1    1    2    0    0  0.40580688234E+02 -0.52590000976E+01  0.14462847867E+02  0.43400729349E+02  0.00000000000E+00 0. -1.
         11    1    3    3    0    0 -0.21071620502E+00 -0.29835043232E+00  0.26628388011E+01  0.26877732496E+01  0.51100000000E-03 0. -1.
        -11    1    3    3    0    0 -0.35328154790E+02  0.78041323865E+01 -0.14358383745E+02  0.38924878770E+02  0.51100000000E-03 0.  1.
        -12    1    3    3    0    0 -0.50418172391E+01 -0.22467818566E+01 -0.27673029225E+01  0.61746186318E+01  0.00000000000E+00 0.  1.
</event>
<event>
 7    1  0.4477737E-009  0.4778728E+02  0.7816164E-02  0.1312668E+00
        -11   -1    0    0    0    0  0.00000000000E+00  0.00000000000E+00  0.45593999997E+02  0.45594000000E+02  0.51100000000E-03 0.  1.
         11   -1    0    0    0    0 -0.00000000000E+00 -0.00000000000E+00 -0.45593999997E+02  0.45594000000E+02  0.51100000000E-03 0. -1.
    9900012    2    1    2    0    0  0.38764193296E+02 -0.18670846811E+02  0.56885560783E+01  0.47787275665E+02  0.20000021068E+02 0.  0.
         12    1    1    2    0    0 -0.38764193296E+02  0.18670846811E+02 -0.56885560783E+01  0.43400724335E+02  0.00000000000E+00 0. -1.
         11    1    3    3    0    0  0.19124874162E+02 -0.14555824450E+02  0.90995033235E+01  0.25698906555E+02  0.51100000000E-03 0. -1.
        -11    1    3    3    0    0  0.74715823554E+01 -0.38265639463E+01  0.22121379159E+01  0.86810534470E+01  0.51100000000E-03 0.  1.
         12    1    3    3    0    0  0.12167736778E+02 -0.28845841527E+00 -0.56230851611E+01  0.13407315663E+02  0.00000000000E+00 0. -1.
</event>
<event>
 7    1  0.4477737E-009  0.4778727E+02  0.7816164E-02  0.1312668E+00
        -11   -1    0    0    0    0  0.00000000000E+00  0.00000000000E+00  0.45593999997E+02  0.45594000000E+02  0.51100000000E-03 0. -1.
         11   -1    0    0    0    0 -0.00000000000E+00 -0.00000000000E+00 -0.45593999997E+02  0.45594000000E+02  0.51100000000E-03 0.  1.
    9900012    2    1    2    0    0 -0.17508978050E+02 -0.33262057949E+02 -0.21695492728E+02  0.47787271710E+02  0.20000003037E+02 0.  0.
         12    1    1    2    0    0  0.17508978050E+02  0.33262057949E+02  0.21695492728E+02  0.43400728290E+02  0.00000000000E+00 0. -1.
         11    1    3    3    0    0 -0.58158684242E+00 -0.48031543801E+00 -0.34749615939E+01  0.35558830852E+01  0.51100000000E-03 0. -1.
        -11    1    3    3    0    0 -0.60261128708E+01 -0.77734186421E+01  0.22918218864E+01  0.10099134693E+02  0.51100000000E-03 0.  1.
        -12    1    3    3    0    0 -0.10901278337E+02 -0.25008323869E+02 -0.20512353020E+02  0.34132253933E+02  0.00000000000E+00 0.  1.
</event>
<event>
 7    1  0.4477737E-009  0.4778727E+02  0.7816164E-02  0.1312668E+00
        -11   -1    0    0    0    0  0.00000000000E+00  0.00000000000E+00  0.45593999997E+02  0.45594000000E+02  0.51100000000E-03 0. -1.
         11   -1    0    0    0    0 -0.00000000000E+00 -0.00000000000E+00 -0.45593999997E+02  0.45594000000E+02  0.51100000000E-03 0.  1.
    9900012    2    1    2    0    0 -0.45409662688E+01  0.24482591893E+02 -0.35547232507E+02  0.47787269368E+02  0.19999992358E+02 0.  0.
         12    1    1    2    0    0  0.45409662688E+01 -0.24482591893E+02  0.35547232507E+02  0.43400730632E+02  0.00000000000E+00 0. -1.
         11    1    3    3    0    0 -0.62867624015E+01 -0.66444150130E-01 -0.80463674348E+01  0.10211357670E+02  0.51100000000E-03 0. -1.
        -11    1    3    3    0    0 -0.19651339346E+01  0.22367025821E+01 -0.35354565881E+01  0.46221254168E+01  0.51100000000E-03 0.  1.
         12    1    3    3    0    0  0.37109300674E+01  0.22312333461E+02 -0.23965408484E+02  0.32953786281E+02  0.00000000000E+00 0. -1.
</event>
<event>
 7    1  0.4477737E-009  0.4778727E+02  0.7816164E-02  0.1312668E+00
        -11   -1    0    0    0    0  0.00000000000E+00  0.00000000000E+00  0.45593999997E+02  0.45594000000E+02  0.51100000000E-03 0.  1.
         11   -1    0    0    0    0 -0.00000000000E+00 -0.00000000000E+00 -0.45593999997E+02  0.45594000000E+02  0.51100000000E-03 0. -1.
    9900012    2    1    2    0    0  0.15309646731E+02  0.10438329648E+02  0.39246390364E+02  0.47787272293E+02  0.20000005692E+02 0.  0.
         12    1    1    2    0    0 -0.15309646731E+02 -0.10438329648E+02 -0.39246390364E+02  0.43400727707E+02  0.00000000000E+00 0. -1.
         11    1    3    3    0    0  0.11870382744E+01  0.19436087162E+01  0.13490096219E+02  0.13680985745E+02  0.51100000000E-03 0. -1.
        -11    1    3    3    0    0  0.18731872400E+00  0.46413544391E+01  0.16008875378E+02  0.16669173659E+02  0.51100000000E-03 0.  1.
         12    1    3    3    0    0  0.13935289733E+02  0.38533664931E+01  0.97474187675E+01  0.17437112889E+02  0.00000000000E+00 0. -1.
</event>
<event>
 7    1  0.4477737E-009  0.4778727E+02  0.7816164E-02  0.1312668E+00
        -11   -1    0    0    0    0  0.00000000000E+00  0.00000000000E+00  0.45593999997E+02  0.45594000000E+02  0.51100000000E-03 0. -1.
         11   -1    0    0    0    0 -0.00000000000E+00 -0.00000000000E+00 -0.45593999997E+02  0.45594000000E+02  0.51100000000E-03 0.  1.
    9900012    2    1    2    0    0 -0.35788328117E+02  0.24412546253E+02 -0.26166018935E+01  0.47787269022E+02  0.19999990779E+02 0.  0.
         12    1    1    2    0    0  0.35788328117E+02 -0.24412546253E+02  0.26166018935E+01  0.43400730978E+02  0.00000000000E+00 0. -1.
         11    1    3    3    0    0 -0.12096853307E+02  0.93078919911E+01 -0.97392674661E+01  0.18105911860E+02  0.51100000000E-03 0. -1.
        -11    1    3    3    0    0 -0.19222209384E+02  0.10617041854E+02  0.30968662566E+01  0.22176688035E+02  0.51100000000E-03 0.  1.
         12    1    3    3    0    0 -0.44692654258E+01  0.44876124083E+01  0.40257993160E+01  0.75046691270E+01  0.00000000000E+00 0. -1.
</event>
<event>
 7    1  0.4477737E-009  0.4778728E+02  0.7816164E-02  0.1312668E+00
        -11   -1    0    0    0    0  0.00000000000E+00  0.00000000000E+00  0.45593999997E+02  0.45594000000E+02  0.51100000000E-03 0.  1.
         11   -1    0    0    0    0 -0.00000000000E+00 -0.00000000000E+00 -0.45593999997E+02  0.45594000000E+02  0.51100000000E-03 0. -1.
    9900012    2    1    2    0    0 -0.75928830093E+01  0.93579295925E+00  0.42721133778E+02  0.47787275903E+02  0.20000022153E+02 0.  0.
         12    1    1    2    0    0  0.75928830093E+01 -0.93579295925E+00 -0.42721133778E+02  0.43400724097E+02  0.00000000000E+00 0. -1.
         11    1    3    3    0    0  0.47504026520E+01  0.68450019007E-01  0.78790871925E+01  0.92005992201E+01  0.51100000000E-03 0. -1.
        -11    1    3    3    0    0 -0.70518481045E+01  0.18730423783E+01  0.31302445035E+02  0.32141560554E+02  0.51100000000E-03 0.  1.
         12    1    3    3    0    0 -0.52914375569E+01 -0.10056994381E+01  0.35396015503E+01  0.64451161287E+01  0.00000000000E+00 0. -1.
</event>
<event>
 7    1  0.4477737E-009  0.4778727E+02  0.7816164E-02  0.1312668E+00
        -11   -1    0    0    0    0  0.00000000000E+00  0.00000000000E+00  0.45593999997E+02  0.45594000000E+02  0.51100000000E-03 0.  1.
         11   -1    0    0    0    0 -0.00000000000E+00 -0.00000000000E+00 -0.45593999997E+02  0.45594000000E+02  0.51100000000E-03 0. -1.
    9900012    2    1    2    0    0 -0.21591447583E+02 -0.19292006106E+02  0.32330345409E+02  0.47787270253E+02  0.19999996390E+02 0.  0.
         12    1    1    2    0    0  0.21591447583E+02  0.19292006106E+02 -0.32330345409E+02  0.43400729747E+02  0.00000000000E+00 0. -1.
         11    1    3    3    0    0 -0.51104119395E+01 -0.13064898613E+02  0.12047651383E+02  0.18491992593E+02  0.51100000000E-03 0.  1.
        -11    1    3    3    0    0 -0.62561947827E+01  0.13318607376E+01  0.14284509975E+01  0.65539529062E+01  0.51100000000E-03 0. -1.
        -12    1    3    3    0    0 -0.10224840861E+02 -0.75589682304E+01  0.18854243029E+02  0.22741324753E+02  0.00000000000E+00 0.  1.
</event>
<event>
 7    1  0.4477737E-009  0.4778727E+02  0.7816164E-02  0.1312668E+00
        -11   -1    0    0    0    0  0.00000000000E+00  0.00000000000E+00  0.45593999997E+02  0.45594000000E+02  0.51100000000E-03 0.  1.
         11   -1    0    0    0    0 -0.00000000000E+00 -0.00000000000E+00 -0.45593999997E+02  0.45594000000E+02  0.51100000000E-03 0. -1.
    9900012    2    1    2    0    0  0.69777598645E+00 -0.10427351207E+02  0.42123713492E+02  0.47787265181E+02  0.19999973264E+02 0.  0.
         12    1    1    2    0    0 -0.69777598645E+00  0.10427351207E+02 -0.42123713492E+02  0.43400734819E+02  0.00000000000E+00 0. -1.
         11    1    3    3    0    0 -0.12981641584E+01 -0.30808535688E+01  0.39509139422E+02  0.39650334009E+02  0.51100000000E-03 0. -1.
        -11    1    3    3    0    0  0.31080015605E+00 -0.30496952855E+01  0.72756543556E+00  0.31506491070E+01  0.51100000000E-03 0.  1.
         12    1    3    3    0    0  0.16851399888E+01 -0.42968023527E+01  0.18870086341E+01  0.49862820643E+01  0.00000000000E+00 0. -1.
</event>
<event>
 7    1  0.4477737E-009  0.4778727E+02  0.7816164E-02  0.1312668E+00
        -11   -1    0    0    0    0  0.00000000000E+00  0.00000000000E+00  0.45593999997E+02  0.45594000000E+02  0.51100000000E-03 0.  1.
         11   -1    0    0    0    0 -0.00000000000E+00 -0.00000000000E+00 -0.45593999997E+02  0.45594000000E+02  0.51100000000E-03 0. -1.
    9900012    2    1    2    0    0 -0.39657512104E+02 -0.17486647243E+02 -0.22632594586E+01  0.47787269113E+02  0.19999991196E+02 0.  0.
         12    1    1    2    0    0  0.39657512104E+02  0.17486647243E+02  0.22632594586E+01  0.43400730887E+02  0.00000000000E+00 0. -1.
         11    1    3    3    0    0 -0.19111645952E+02 -0.62513010604E+01  0.30553333759E+00  0.20110373612E+02  0.51100000000E-03 0.  1.
        -11    1    3    3    0    0 -0.10688178622E+02 -0.37470543385E+01  0.58093279298E+01  0.12728938280E+02  0.51100000000E-03 0. -1.
         12    1    3    3    0    0 -0.98576875300E+01 -0.74882918445E+01 -0.83781207261E+01  0.14947957221E+02  0.00000000000E+00 0. -1.
</event>
<event>
 7    1  0.4477737E-009  0.4778727E+02  0.7816164E-02  0.1312668E+00
        -11   -1    0    0    0    0  0.00000000000E+00  0.00000000000E+00  0.45593999997E+02  0.45594000000E+02  0.51100000000E-03 0.  1.
         11   -1    0    0    0    0 -0.00000000000E+00 -0.00000000000E+00 -0.45593999997E+02  0.45594000000E+02  0.51100000000E-03 0. -1.
    9900012    2    1    2    0    0  0.80316465109E+01  0.42582258474E+02 -0.24221895361E+01  0.47787273225E+02  0.20000009942E+02 0.  0.
         12    1    1    2    0    0 -0.80316465109E+01 -0.42582258474E+02  0.24221895361E+01  0.43400726775E+02  0.00000000000E+00 0. -1.
         11    1    3    3    0    0  0.99793258938E+01  0.21837198702E+02 -0.66262027370E+01  0.24906961987E+02  0.51100000000E-03 0.  1.
        -11    1    3    3    0    0 -0.37082078445E+01  0.16796630077E+02  0.53386948386E+00  0.17209375475E+02  0.51100000000E-03 0. -1.
         12    1    3    3    0    0  0.17605284616E+01  0.39484296951E+01  0.36701437170E+01  0.56709357627E+01  0.00000000000E+00 0. -1.
</event>
<event>
 7    1  0.4477737E-009  0.4778727E+02  0.7816164E-02  0.1312668E+00
        -11   -1    0    0    0    0  0.00000000000E+00  0.00000000000E+00  0.45593999997E+02  0.45594000000E+02  0.51100000000E-03 0.  1.
         11   -1    0    0    0    0 -0.00000000000E+00 -0.00000000000E+00 -0.45593999997E+02  0.45594000000E+02  0.51100000000E-03 0. -1.
    9900012    2    1    2    0    0 -0.92511653384E+01  0.26422492369E+02  0.33164608181E+02  0.47787269604E+02  0.19999993432E+02 0.  0.
         12    1    1    2    0    0  0.92511653384E+01 -0.26422492369E+02 -0.33164608181E+02  0.43400730396E+02  0.00000000000E+00 0. -1.
         11    1    3    3    0    0  0.34558249208E+01  0.11712507902E+02  0.67536568986E+01  0.13954836044E+02  0.51100000000E-03 0. -1.
        -11    1    3    3    0    0 -0.12224098311E+02  0.84579382429E+01  0.18118204585E+02  0.23435755513E+02  0.51100000000E-03 0.  1.
        -12    1    3    3    0    0 -0.48289194865E+00  0.62520462236E+01  0.82927466976E+01  0.10396678047E+02  0.00000000000E+00 0.  1.
</event>
<event>
 7    1  0.4477737E-009  0.4778727E+02  0.7816164E-02  0.1312668E+00
        -11   -1    0    0    0    0  0.00000000000E+00  0.00000000000E+00  0.45593999997E+02  0.45594000000E+02  0.51100000000E-03 0. -1.
         11   -1    0    0    0    0 -0.00000000000E+00 -0.00000000000E+00 -0.45593999997E+02  0.45594000000E+02  0.51100000000E-03 0.  1.
    9900012    2    1    2    0    0  0.97294922820E+01  0.34322037374E+01 -0.42156617323E+02  0.47787269284E+02  0.19999991972E+02 0.  0.
         12    1    1    2    0    0 -0.97294922820E+01 -0.34322037374E+01  0.42156617323E+02  0.43400730716E+02  0.00000000000E+00 0. -1.
         11    1    3    3    0    0 -0.32888081251E+01 -0.68163791101E+00 -0.93926903211E+01  0.99751451546E+01  0.51100000000E-03 0. -1.
        -11    1    3    3    0    0  0.13876576022E+02  0.15347492467E+01 -0.32113812698E+02  0.35017306916E+02  0.51100000000E-03 0.  1.
        -12    1    3    3    0    0 -0.85827561498E+00  0.25790924018E+01 -0.65011430405E+00  0.27948172134E+01  0.00000000000E+00 0.  1.
</event>
<event>
 7    1  0.4477737E-009  0.4778727E+02  0.7816164E-02  0.1312668E+00
        -11   -1    0    0    0    0  0.00000000000E+00  0.00000000000E+00  0.45593999997E+02  0.45594000000E+02  0.51100000000E-03 0.  1.
         11   -1    0    0    0    0 -0.00000000000E+00 -0.00000000000E+00 -0.45593999997E+02  0.45594000000E+02  0.51100000000E-03 0. -1.
    9900012    2    1    2    0    0 -0.34124721940E+02 -0.29474777932E+01  0.26654067631E+02  0.47787267355E+02  0.19999983178E+02 0.  0.
         12    1    1    2    0    0  0.34124721940E+02  0.29474777932E+01 -0.26654067631E+02  0.43400732645E+02  0.00000000000E+00 0. -1.
         11    1    3    3    0    0 -0.57964141521E+01  0.46495356350E+01  0.11017699218E+02  0.13289330117E+02  0.51100000000E-03 0. -1.
        -11    1    3    3    0    0 -0.52899441417E+01  0.11735264709E+01  0.58532382853E+01  0.79762818460E+01  0.51100000000E-03 0.  1.
         12    1    3    3    0    0 -0.23038363647E+02 -0.87705398991E+01  0.97831301276E+01  0.26521655392E+02  0.00000000000E+00 0. -1.
</event>
<event>
 7    1  0.4477737E-009  0.4778728E+02  0.7816164E-02  0.1312668E+00
        -11   -1    0    0    0    0  0.00000000000E+00  0.00000000000E+00  0.45593999997E+02  0.45594000000E+02  0.51100000000E-03 0.  1.
         11   -1    0    0    0    0 -0.00000000000E+00 -0.00000000000E+00 -0.45593999997E+02  0.45594000000E+02  0.51100000000E-03 0. -1.
    9900012    2    1    2    0    0 -0.23708070384E+02 -0.26464047655E+02  0.24923970934E+02  0.47787277118E+02  0.20000027690E+02 0.  0.
         12    1    1    2    0    0  0.23708070384E+02  0.26464047655E+02 -0.24923970934E+02  0.43400722882E+02  0.00000000000E+00 0. -1.
         11    1    3    3    0    0 -0.10965497244E+02 -0.37286563899E+01  0.14611040795E+02  0.18644771966E+02  0.51100000000E-03 0. -1.
        -11    1    3    3    0    0 -0.29089110351E+00 -0.42814632949E+01  0.43175567856E+01  0.60874331567E+01  0.51100000000E-03 0.  1.
         12    1    3    3    0    0 -0.12451682036E+02 -0.18453927970E+02  0.59953733533E+01  0.23055071995E+02  0.00000000000E+00 0. -1.
</event>
<event>
 7    1  0.4477737E-009  0.4778728E+02  0.7816164E-02  0.1312668E+00
        -11   -1    0    0    0    0  0.00000000000E+00  0.00000000000E+00  0.45593999997E+02  0.45594000000E+02  0.51100000000E-03 0.  1.
         11   -1    0    0    0    0 -0.00000000000E+00 -0.00000000000E+00 -0.45593999997E+02  0.45594000000E+02  0.51100000000E-03 0. -1.
    9900012    2    1    2    0    0 -0.19375589658E+02 -0.99799307706E+01  0.37531458779E+02  0.47787275456E+02  0.20000020116E+02 0.  0.
         12    1    1    2    0    0  0.19375589658E+02  0.99799307706E+01 -0.37531458779E+02  0.43400724544E+02  0.00000000000E+00 0. -1.
         11    1    3    3    0    0 -0.53326700788E+01  0.12418548656E-01  0.25839546763E+02  0.26384080457E+02  0.51100000000E-03 0. -1.
        -11    1    3    3    0    0 -0.11458237592E+02 -0.63364284544E+01  0.67371577199E+01  0.14725176694E+02  0.51100000000E-03 0.  1.
         12    1    3    3    0    0 -0.25846819878E+01 -0.36559208649E+01  0.49547542966E+01  0.66780183054E+01  0.00000000000E+00 0. -1.
</event>
<event>
 7    1  0.4477737E-009  0.4778727E+02  0.7816164E-02  0.1312668E+00
        -11   -1    0    0    0    0  0.00000000000E+00  0.00000000000E+00  0.45593999997E+02  0.45594000000E+02  0.51100000000E-03 0. -1.
         11   -1    0    0    0    0 -0.00000000000E+00 -0.00000000000E+00 -0.45593999997E+02  0.45594000000E+02  0.51100000000E-03 0.  1.
    9900012    2    1    2    0    0  0.26891086169E+02  0.34042037736E+02  0.12777172033E+01  0.47787269479E+02  0.19999992861E+02 0.  0.
         12    1    1    2    0    0 -0.26891086169E+02 -0.34042037736E+02 -0.12777172033E+01  0.43400730521E+02  0.00000000000E+00 0. -1.
         11    1    3    3    0    0  0.99545555480E+01  0.25909285454E+01 -0.60302526776E+00  0.10303869497E+02  0.51100000000E-03 0. -1.
        -11    1    3    3    0    0  0.83413188400E+01  0.69764016858E+01  0.36825154814E+01  0.11480797054E+02  0.51100000000E-03 0.  1.
         12    1    3    3    0    0  0.85952117806E+01  0.24474707505E+02 -0.18017730103E+01  0.26002602927E+02  0.00000000000E+00 0. -1.
</event>
<event>
 7    1  0.4477737E-009  0.4778727E+02  0.7816164E-02  0.1312668E+00
        -11   -1    0    0    0    0  0.00000000000E+00  0.00000000000E+00  0.45593999997E+02  0.45594000000E+02  0.51100000000E-03 0.  1.
         11   -1    0    0    0    0 -0.00000000000E+00 -0.00000000000E+00 -0.45593999997E+02  0.45594000000E+02  0.51100000000E-03 0. -1.
    9900012    2    1    2    0    0 -0.24025198910E+02 -0.28370777476E+02  0.22394460909E+02  0.47787273316E+02  0.20000010358E+02 0.  0.
         12    1    1    2    0    0  0.24025198910E+02  0.28370777476E+02 -0.22394460909E+02  0.43400726684E+02  0.00000000000E+00 0. -1.
         11    1    3    3    0    0 -0.14722257191E+01 -0.46902069719E+01  0.93479096616E+01  0.10561671521E+02  0.51100000000E-03 0. -1.
        -11    1    3    3    0    0 -0.12102898695E+02 -0.16037337870E+02  0.19718483385E+01  0.20188227978E+02  0.51100000000E-03 0.  1.
        -12    1    3    3    0    0 -0.10450074496E+02 -0.76432326346E+01  0.11074702909E+02  0.17037373818E+02  0.00000000000E+00 0.  1.
</event>
<event>
 7    1  0.4477737E-009  0.4778727E+02  0.7816164E-02  0.1312668E+00
        -11   -1    0    0    0    0  0.00000000000E+00  0.00000000000E+00  0.45593999997E+02  0.45594000000E+02  0.51100000000E-03 0.  1.
         11   -1    0    0    0    0 -0.00000000000E+00 -0.00000000000E+00 -0.45593999997E+02  0.45594000000E+02  0.51100000000E-03 0. -1.
    9900012    2    1    2    0    0  0.24215287110E+00 -0.42362635580E+02 -0.94324695365E+01  0.47787274052E+02  0.20000013712E+02 0.  0.
         12    1    1    2    0    0 -0.24215287110E+00  0.42362635580E+02  0.94324695365E+01  0.43400725948E+02  0.00000000000E+00 0. -1.
         11    1    3    3    0    0  0.42302087201E+01 -0.13356595313E+02 -0.79838960922E+01  0.16125628708E+02  0.51100000000E-03 0. -1.
        -11    1    3    3    0    0 -0.29083345070E+01 -0.26724075237E+02  0.24755476096E+01  0.26995609701E+02  0.51100000000E-03 0.  1.
         12    1    3    3    0    0 -0.10797213420E+01 -0.22819650298E+01 -0.39241210539E+01  0.46660356427E+01  0.00000000000E+00 0. -1.
</event>
<event>
 7    1  0.4477737E-009  0.4778732E+02  0.7816164E-02  0.1312668E+00
        -11   -1    0    0    0    0  0.00000000000E+00  0.00000000000E+00  0.45593999997E+02  0.45594000000E+02  0.51100000000E-03 0.  1.
         11   -1    0    0    0    0 -0.00000000000E+00 -0.00000000000E+00 -0.45593999997E+02  0.45594000000E+02  0.51100000000E-03 0. -1.
    9900012    2    1    2    0    0 -0.19530526259E+00  0.39156521100E+02  0.18717585680E+02  0.47787316797E+02  0.20000208602E+02 0.  0.
         12    1    1    2    0    0  0.19530526259E+00 -0.39156521100E+02 -0.18717585680E+02  0.43400683203E+02  0.00000000000E+00 0. -1.
         11    1    3    3    0    0  0.25208146004E+01  0.31177900417E+02  0.60583496703E+01  0.31860941318E+02  0.51100000000E-03 0. -1.
        -11    1    3    3    0    0  0.10869678952E+00  0.64443789728E+01  0.86645152496E+01  0.10798873094E+02  0.51100000000E-03 0.  1.
         12    1    3    3    0    0 -0.28248166526E+01  0.15342417098E+01  0.39947207605E+01  0.51275023841E+01  0.00000000000E+00 0. -1.
</event>
<event>
 7    1  0.4477737E-009  0.4778727E+02  0.7816164E-02  0.1312668E+00
        -11   -1    0    0    0    0  0.00000000000E+00  0.00000000000E+00  0.45593999997E+02  0.45594000000E+02  0.51100000000E-03 0.  1.
         11   -1    0    0    0    0 -0.00000000000E+00 -0.00000000000E+00 -0.45593999997E+02  0.45594000000E+02  0.51100000000E-03 0. -1.
    9900012    2    1    2    0    0 -0.20091721398E+02 -0.38092913552E+02  0.53736092947E+01  0.47787274102E+02  0.20000013939E+02 0.  0.
         12    1    1    2    0    0  0.20091721398E+02  0.38092913552E+02 -0.53736092947E+01  0.43400725898E+02  0.00000000000E+00 0. -1.
         11    1    3    3    0    0 -0.66661576910E+01 -0.90358992095E+01  0.48657663277E+01  0.12237680136E+02  0.51100000000E-03 0. -1.
        -11    1    3    3    0    0 -0.65237948914E+01 -0.12693642172E+02 -0.74378477718E+01  0.16093788588E+02  0.51100000000E-03 0.  1.
        -12    1    3    3    0    0 -0.69017688159E+01 -0.16363372170E+02  0.79456907388E+01  0.19455805378E+02  0.00000000000E+00 0.  1.
</event>
<event>
 7    1  0.4477737E-009  0.4778727E+02  0.7816164E-02  0.1312668E+00
        -11   -1    0    0    0    0  0.00000000000E+00  0.00000000000E+00  0.45593999997E+02  0.45594000000E+02  0.51100000000E-03 0.  1.
         11   -1    0    0    0    0 -0.00000000000E+00 -0.00000000000E+00 -0.45593999997E+02  0.45594000000E+02  0.51100000000E-03 0. -1.
    9900012    2    1    2    0    0  0.42947070865E+02 -0.58067909946E+00  0.62317842090E+01  0.47787271682E+02  0.20000002908E+02 0.  0.
         12    1    1    2    0    0 -0.42947070865E+02  0.58067909946E+00 -0.62317842090E+01  0.43400728318E+02  0.00000000000E+00 0. -1.
         11    1    3    3    0    0  0.24988114934E+01  0.38829722711E+01 -0.20167221024E+01  0.50387201586E+01  0.51100000000E-03 0. -1.
        -11    1    3    3    0    0  0.38055178301E+02 -0.60291415688E+01  0.94096044383E+01  0.39662170888E+02  0.51100000000E-03 0.  1.
        -12    1    3    3    0    0  0.23930810705E+01  0.15654901982E+01 -0.11610981269E+01  0.30863806361E+01  0.00000000000E+00 0.  1.
</event>
<event>
 7    1  0.4477737E-009  0.4778727E+02  0.7816164E-02  0.1312668E+00
        -11   -1    0    0    0    0  0.00000000000E+00  0.00000000000E+00  0.45593999997E+02  0.45594000000E+02  0.51100000000E-03 0.  1.
         11   -1    0    0    0    0 -0.00000000000E+00 -0.00000000000E+00 -0.45593999997E+02  0.45594000000E+02  0.51100000000E-03 0. -1.
    9900012    2    1    2    0    0  0.14166143691E+02  0.40591085839E+02 -0.59420275868E+01  0.47787267650E+02  0.19999984523E+02 0.  0.
         12    1    1    2    0    0 -0.14166143691E+02 -0.40591085839E+02  0.59420275868E+01  0.43400732350E+02  0.00000000000E+00 0. -1.
         11    1    3    3    0    0 -0.31662434984E+01  0.86360735688E+01 -0.32986383497E+01  0.97717899998E+01  0.51100000000E-03 0. -1.
        -11    1    3    3    0    0  0.14529116468E+02  0.22438640770E+02 -0.62620558795E+01  0.27455439699E+02  0.51100000000E-03 0.  1.
         12    1    3    3    0    0  0.28032707209E+01  0.95163715003E+01  0.36186666423E+01  0.10560037951E+02  0.00000000000E+00 0. -1.
</event>
<event>
 7    1  0.4477737E-009  0.4778727E+02  0.7816164E-02  0.1312668E+00
        -11   -1    0    0    0    0  0.00000000000E+00  0.00000000000E+00  0.45593999997E+02  0.45594000000E+02  0.51100000000E-03 0. -1.
         11   -1    0    0    0    0 -0.00000000000E+00 -0.00000000000E+00 -0.45593999997E+02  0.45594000000E+02  0.51100000000E-03 0.  1.
    9900012    2    1    2    0    0 -0.13889816022E+02  0.21058085847E+02 -0.35316477727E+02  0.47787267660E+02  0.19999984568E+02 0.  0.
         12    1    1    2    0    0  0.13889816022E+02 -0.21058085847E+02  0.35316477727E+02  0.43400732340E+02  0.00000000000E+00 0. -1.
         11    1    3    3    0    0  0.21552503443E+01 -0.17377319016E+01 -0.33507574199E+01  0.43465379047E+01  0.51100000000E-03 0. -1.
        -11    1    3    3    0    0 -0.13163487939E+02  0.21112685343E+02 -0.23032551779E+02  0.33904591707E+02  0.51100000000E-03 0.  1.
        -12    1    3    3    0    0 -0.28815784268E+01  0.16831324058E+01 -0.89331685276E+01  0.95361380478E+01  0.00000000000E+00 0.  1.
</event>
<event>
 7    1  0.4477737E-009  0.4778727E+02  0.7816164E-02  0.1312668E+00
        -11   -1    0    0    0    0  0.00000000000E+00  0.00000000000E+00  0.45593999997E+02  0.45594000000E+02  0.51100000000E-03 0.  1.
         11   -1    0    0    0    0 -0.00000000000E+00 -0.00000000000E+00 -0.45593999997E+02  0.45594000000E+02  0.51100000000E-03 0. -1.
    9900012    2    1    2    0    0 -0.19782717748E+02  0.14348908101E+02  0.35866089495E+02  0.47787268891E+02  0.19999990181E+02 0.  0.
         12    1    1    2    0    0  0.19782717748E+02 -0.14348908101E+02 -0.35866089495E+02  0.43400731109E+02  0.00000000000E+00 0. -1.
         11    1    3    3    0    0 -0.17773693571E+01  0.10969117986E+02  0.12585718715E+02  0.16789309309E+02  0.51100000000E-03 0. -1.
        -11    1    3    3    0    0 -0.18328560351E+02  0.14533655406E+01  0.21957627423E+02  0.28638886121E+02  0.51100000000E-03 0.  1.
        -12    1    3    3    0    0  0.32321195997E+00  0.19264245735E+01  0.13227433570E+01  0.23590734615E+01  0.00000000000E+00 0.  1.
</event>
<event>
 7    1  0.4477737E-009  0.4778727E+02  0.7816164E-02  0.1312668E+00
        -11   -1    0    0    0    0  0.00000000000E+00  0.00000000000E+00  0.45593999997E+02  0.45594000000E+02  0.51100000000E-03 0.  1.
         11   -1    0    0    0    0 -0.00000000000E+00 -0.00000000000E+00 -0.45593999997E+02  0.45594000000E+02  0.51100000000E-03 0. -1.
    9900012    2    1    2    0    0 -0.87021707237E+00 -0.22226240354E+02  0.37267415489E+02  0.47787270798E+02  0.19999998878E+02 0.  0.
         12    1    1    2    0    0  0.87021707237E+00  0.22226240354E+02 -0.37267415489E+02  0.43400729202E+02  0.00000000000E+00 0. -1.
         11    1    3    3    0    0  0.19218582076E+01 -0.38750459680E+00  0.60358270111E+00  0.20513437354E+01  0.51100000000E-03 0. -1.
        -11    1    3    3    0    0  0.37764816041E+01 -0.12900326709E+02  0.29800928859E+02  0.32692133666E+02  0.51100000000E-03 0.  1.
        -12    1    3    3    0    0 -0.65685568841E+01 -0.89384090484E+01  0.68629039284E+01  0.13043793397E+02  0.00000000000E+00 0.  1.
</event>
<event>
 7    1  0.4477737E-009  0.4778725E+02  0.7816164E-02  0.1312668E+00
        -11   -1    0    0    0    0  0.00000000000E+00  0.00000000000E+00  0.45593999997E+02  0.45594000000E+02  0.51100000000E-03 0. -1.
         11   -1    0    0    0    0 -0.00000000000E+00 -0.00000000000E+00 -0.45593999997E+02  0.45594000000E+02  0.51100000000E-03 0.  1.
    9900012    2    1    2    0    0 -0.31566127886E+02 -0.26744512488E+02 -0.13112430139E+02  0.47787248830E+02  0.19999898717E+02 0.  0.
         12    1    1    2    0    0  0.31566127886E+02  0.26744512488E+02  0.13112430139E+02  0.43400751170E+02  0.00000000000E+00 0. -1.
         11    1    3    3    0    0 -0.14779607476E+02 -0.15067643691E+02  0.17842202326E+01  0.21181457118E+02  0.51100000000E-03 0. -1.
        -11    1    3    3    0    0 -0.14412055632E+02 -0.61034747230E+01 -0.12720897626E+02  0.20168812258E+02  0.51100000000E-03 0.  1.
         12    1    3    3    0    0 -0.23744647783E+01 -0.55733940736E+01 -0.21757527458E+01  0.64369794542E+01  0.00000000000E+00 0. -1.
</event>
<event>
 7    1  0.4477737E-009  0.4778727E+02  0.7816164E-02  0.1312668E+00
        -11   -1    0    0    0    0  0.00000000000E+00  0.00000000000E+00  0.45593999997E+02  0.45594000000E+02  0.51100000000E-03 0.  1.
         11   -1    0    0    0    0 -0.00000000000E+00 -0.00000000000E+00 -0.45593999997E+02  0.45594000000E+02  0.51100000000E-03 0. -1.
    9900012    2    1    2    0    0  0.30434313977E+02  0.14851884882E+02  0.27144008835E+02  0.47787272271E+02  0.20000005592E+02 0.  0.
         12    1    1    2    0    0 -0.30434313977E+02 -0.14851884882E+02 -0.27144008835E+02  0.43400727729E+02  0.00000000000E+00 0. -1.
         11    1    3    3    0    0  0.19804987105E+02  0.16866535369E+02  0.21911866244E+02  0.34012459660E+02  0.51100000000E-03 0. -1.
        -11    1    3    3    0    0  0.51687808927E+01 -0.38020312066E+01  0.47994831191E+01  0.80129130586E+01  0.51100000000E-03 0.  1.
         12    1    3    3    0    0  0.54605459795E+01  0.17873807194E+01  0.43265947136E+00  0.57618995521E+01  0.00000000000E+00 0. -1.
</event>
<event>
 7    1  0.4477737E-009  0.4778727E+02  0.7816164E-02  0.1312668E+00
        -11   -1    0    0    0    0  0.00000000000E+00  0.00000000000E+00  0.45593999997E+02  0.45594000000E+02  0.51100000000E-03 0.  1.
         11   -1    0    0    0    0 -0.00000000000E+00 -0.00000000000E+00 -0.45593999997E+02  0.45594000000E+02  0.51100000000E-03 0. -1.
    9900012    2    1    2    0    0 -0.22745412040E+02  0.10711475965E+02  0.35377021625E+02  0.47787272526E+02  0.20000006753E+02 0.  0.
         12    1    1    2    0    0  0.22745412040E+02 -0.10711475965E+02 -0.35377021625E+02  0.43400727474E+02  0.00000000000E+00 0. -1.
         11    1    3    3    0    0  0.29643894152E+01  0.28540064864E+01  0.41509753407E+01  0.58449597235E+01  0.51100000000E-03 0. -1.
        -11    1    3    3    0    0 -0.18016552972E+02  0.20902235889E+01  0.22982264007E+02  0.29277118622E+02  0.51100000000E-03 0.  1.
         12    1    3    3    0    0 -0.76932484840E+01  0.57672458900E+01  0.82437822774E+01  0.12665194180E+02  0.00000000000E+00 0. -1.
</event>
<event>
 7    1  0.4477737E-009  0.4778727E+02  0.7816164E-02  0.1312668E+00
        -11   -1    0    0    0    0  0.00000000000E+00  0.00000000000E+00  0.45593999997E+02  0.45594000000E+02  0.51100000000E-03 0. -1.
         11   -1    0    0    0    0 -0.00000000000E+00 -0.00000000000E+00 -0.45593999997E+02  0.45594000000E+02  0.51100000000E-03 0.  1.
    9900012    2    1    2    0    0  0.18358709156E+02  0.38713656646E+02 -0.69162255763E+01  0.47787267414E+02  0.19999983447E+02 0.  0.
         12    1    1    2    0    0 -0.18358709156E+02 -0.38713656646E+02  0.69162255763E+01  0.43400732586E+02  0.00000000000E+00 0. -1.
         11    1    3    3    0    0 -0.23861688046E+01  0.14003643830E+02 -0.16428213017E+01  0.14300164480E+02  0.51100000000E-03 0. -1.
        -11    1    3    3    0    0  0.94835536174E+01  0.10985692717E+02 -0.60349414644E+01  0.15717625534E+02  0.51100000000E-03 0.  1.
         12    1    3    3    0    0  0.11261324344E+02  0.13724320100E+02  0.76153718981E+00  0.17769477400E+02  0.00000000000E+00 0. -1.
</event>
<event>
 7    1  0.4477737E-009  0.4778727E+02  0.7816164E-02  0.1312668E+00
        -11   -1    0    0    0    0  0.00000000000E+00  0.00000000000E+00  0.45593999997E+02  0.45594000000E+02  0.51100000000E-03 0.  1.
         11   -1    0    0    0    0 -0.00000000000E+00 -0.00000000000E+00 -0.45593999997E+02  0.45594000000E+02  0.51100000000E-03 0. -1.
    9900012    2    1    2    0    0 -0.13760650958E+02  0.48088909124E+01  0.40879607077E+02  0.47787271650E+02  0.20000002760E+02 0.  0.
         12    1    1    2    0    0  0.13760650958E+02 -0.48088909124E+01 -0.40879607077E+02  0.43400728350E+02  0.00000000000E+00 0. -1.
         11    1    3    3    0    0  0.75133370749E+00 -0.31087642554E+01  0.11769989898E+02  0.12196785642E+02  0.51100000000E-03 0. -1.
        -11    1    3    3    0    0 -0.14337542656E+02  0.41318874295E+01  0.27852822226E+02  0.31597742472E+02  0.51100000000E-03 0.  1.
        -12    1    3    3    0    0 -0.17444200885E+00  0.37857677383E+01  0.12567949527E+01  0.39927435349E+01  0.00000000000E+00 0.  1.
</event>
<event>
 7    1  0.4477737E-009  0.4778727E+02  0.7816164E-02  0.1312668E+00
        -11   -1    0    0    0    0  0.00000000000E+00  0.00000000000E+00  0.45593999997E+02  0.45594000000E+02  0.51100000000E-03 0. -1.
         11   -1    0    0    0    0 -0.00000000000E+00 -0.00000000000E+00 -0.45593999997E+02  0.45594000000E+02  0.51100000000E-03 0.  1.
    9900012    2    1    2    0    0 -0.14015764920E+02 -0.38777853511E+02 -0.13544731251E+02  0.47787270353E+02  0.19999996848E+02 0.  0.
         12    1    1    2    0    0  0.14015764920E+02  0.38777853511E+02  0.13544731251E+02  0.43400729647E+02  0.00000000000E+00 0. -1.
         11    1    3    3    0    0 -0.30005185020E+01 -0.73986588258E+00 -0.69115880477E+01  0.75710344344E+01  0.51100000000E-03 0. -1.
        -11    1    3    3    0    0 -0.47893858379E+01 -0.18351916257E+02 -0.42022519442E+01  0.19426527448E+02  0.51100000000E-03 0.  1.
         12    1    3    3    0    0 -0.62258605804E+01 -0.19686071371E+02 -0.24308912594E+01  0.20789708471E+02  0.00000000000E+00 0. -1.
</event>
<event>
 7    1  0.4477737E-009  0.4778727E+02  0.7816164E-02  0.1312668E+00
        -11   -1    0    0    0    0  0.00000000000E+00  0.00000000000E+00  0.45593999997E+02  0.45594000000E+02  0.51100000000E-03 0.  1.
         11   -1    0    0    0    0 -0.00000000000E+00 -0.00000000000E+00 -0.45593999997E+02  0.45594000000E+02  0.51100000000E-03 0. -1.
    9900012    2    1    2    0    0 -0.31496895384E+02  0.18950756852E+02  0.23074609464E+02  0.47787271826E+02  0.20000003562E+02 0.  0.
         12    1    1    2    0    0  0.31496895384E+02 -0.18950756852E+02 -0.23074609464E+02  0.43400728174E+02  0.00000000000E+00 0. -1.
         11    1    3    3    0    0 -0.27779299235E+02  0.21350652652E+02  0.15890758123E+02  0.38471496314E+02  0.51100000000E-03 0. -1.
        -11    1    3    3    0    0 -0.35790486252E+00 -0.12918176270E+01  0.49581709844E+01  0.51361803360E+01  0.51100000000E-03 0.  1.
         12    1    3    3    0    0 -0.33596912871E+01 -0.11080781731E+01  0.22256803565E+01  0.41795951756E+01  0.00000000000E+00 0. -1.
</event>
<event>
 7    1  0.4477737E-009  0.4778729E+02  0.7816164E-02  0.1312668E+00
        -11   -1    0    0    0    0  0.00000000000E+00  0.00000000000E+00  0.45593999997E+02  0.45594000000E+02  0.51100000000E-03 0.  1.
         11   -1    0    0    0    0 -0.00000000000E+00 -0.00000000000E+00 -0.45593999997E+02  0.45594000000E+02  0.51100000000E-03 0. -1.
    9900012    2    1    2    0    0 -0.52572965910E+01  0.40203387973E+02 -0.15481273776E+02  0.47787292522E+02  0.20000097922E+02 0.  0.
         12    1    1    2    0    0  0.52572965910E+01 -0.40203387973E+02  0.15481273776E+02  0.43400707478E+02  0.00000000000E+00 0. -1.
         11    1    3    3    0    0 -0.51428667171E+01  0.12088585681E+02 -0.92536884378E+01  0.16069030207E+02  0.51100000000E-03 0. -1.
        -11    1    3    3    0    0  0.41540811416E+01  0.15349926430E+02  0.18681850946E+01  0.16011456753E+02  0.51100000000E-03 0.  1.
        -12    1    3    3    0    0 -0.42685110154E+01  0.12764875861E+02 -0.80957704325E+01  0.15706805561E+02  0.00000000000E+00 0.  1.
</event>
<event>
 7    1  0.4477737E-009  0.4778727E+02  0.7816164E-02  0.1312668E+00
        -11   -1    0    0    0    0  0.00000000000E+00  0.00000000000E+00  0.45593999997E+02  0.45594000000E+02  0.51100000000E-03 0.  1.
         11   -1    0    0    0    0 -0.00000000000E+00 -0.00000000000E+00 -0.45593999997E+02  0.45594000000E+02  0.51100000000E-03 0. -1.
    9900012    2    1    2    0    0  0.35004027333E+02  0.71250771737E+01  0.24649029701E+02  0.47787270519E+02  0.19999997605E+02 0.  0.
         12    1    1    2    0    0 -0.35004027333E+02 -0.71250771737E+01 -0.24649029701E+02  0.43400729481E+02  0.00000000000E+00 0. -1.
         11    1    3    3    0    0  0.21827808298E+02  0.10815902887E+02  0.23676118025E+02  0.33970509789E+02  0.51100000000E-03 0. -1.
        -11    1    3    3    0    0  0.69051128056E+01 -0.25268350617E+01 -0.73420232461E-01  0.73532896774E+01  0.51100000000E-03 0.  1.
         12    1    3    3    0    0  0.62711062297E+01 -0.11639906518E+01  0.10463319082E+01  0.64634710523E+01  0.00000000000E+00 0. -1.
</event>
<event>
 7    1  0.4477737E-009  0.4778727E+02  0.7816164E-02  0.1312668E+00
        -11   -1    0    0    0    0  0.00000000000E+00  0.00000000000E+00  0.45593999997E+02  0.45594000000E+02  0.51100000000E-03 0. -1.
         11   -1    0    0    0    0 -0.00000000000E+00 -0.00000000000E+00 -0.45593999997E+02  0.45594000000E+02  0.51100000000E-03 0.  1.
    9900012    2    1    2    0    0  0.40537895957E+01  0.42838795355E+02  0.56592928939E+01  0.47787271969E+02  0.20000004214E+02 0.  0.
         12    1    1    2    0    0 -0.40537895957E+01 -0.42838795355E+02 -0.56592928939E+01  0.43400728031E+02  0.00000000000E+00 0. -1.
         11    1    3    3    0    0  0.36328257635E+01  0.23592018312E+01  0.24431480463E+01  0.49731508066E+01  0.51100000000E-03 0. -1.
        -11    1    3    3    0    0 -0.56115660627E-01  0.41162152113E+02  0.18371297626E+01  0.41203166888E+02  0.51100000000E-03 0.  1.
        -12    1    3    3    0    0  0.47707949284E+00 -0.68255858875E+00  0.13790150851E+01  0.16109542744E+01  0.00000000000E+00 0.  1.
</event>
<event>
 7    1  0.4477737E-009  0.4778727E+02  0.7816164E-02  0.1312668E+00
        -11   -1    0    0    0    0  0.00000000000E+00  0.00000000000E+00  0.45593999997E+02  0.45594000000E+02  0.51100000000E-03 0.  1.
         11   -1    0    0    0    0 -0.00000000000E+00 -0.00000000000E+00 -0.45593999997E+02  0.45594000000E+02  0.51100000000E-03 0. -1.
    9900012    2    1    2    0    0 -0.30296251800E+01 -0.24853382890E+02  0.35450726091E+02  0.47787271318E+02  0.20000001245E+02 0.  0.
         12    1    1    2    0    0  0.30296251800E+01  0.24853382890E+02 -0.35450726091E+02  0.43400728682E+02  0.00000000000E+00 0. -1.
         11    1    3    3    0    0 -0.26708871456E+00  0.21864740927E+01  0.87240973879E+01  0.89978820193E+01  0.51100000000E-03 0. -1.
        -11    1    3    3    0    0 -0.18742280470E+01 -0.23241980801E+01  0.52247746206E+01  0.60177153127E+01  0.51100000000E-03 0.  1.
         12    1    3    3    0    0 -0.88830841844E+00 -0.24715658903E+02  0.21501854082E+02  0.32771673986E+02  0.00000000000E+00 0. -1.
</event>
<event>
 7    1  0.4477737E-009  0.4778727E+02  0.7816164E-02  0.1312668E+00
        -11   -1    0    0    0    0  0.00000000000E+00  0.00000000000E+00  0.45593999997E+02  0.45594000000E+02  0.51100000000E-03 0.  1.
         11   -1    0    0    0    0 -0.00000000000E+00 -0.00000000000E+00 -0.45593999997E+02  0.45594000000E+02  0.51100000000E-03 0. -1.
    9900012    2    1    2    0    0  0.45207744397E+01 -0.26288162628E+02  0.34236213740E+02  0.47787271583E+02  0.20000002457E+02 0.  0.
         12    1    1    2    0    0 -0.45207744397E+01  0.26288162628E+02 -0.34236213740E+02  0.43400728417E+02  0.00000000000E+00 0. -1.
         11    1    3    3    0    0 -0.48397997255E+01 -0.65279056589E+01  0.81619451103E+01  0.11517576217E+02  0.51100000000E-03 0. -1.
        -11    1    3    3    0    0  0.50269594472E+01 -0.18381722142E+01  0.11781015768E+02  0.12939920060E+02  0.51100000000E-03 0.  1.
        -12    1    3    3    0    0  0.43336147181E+01 -0.17922084755E+02  0.14293252861E+02  0.23329775306E+02  0.00000000000E+00 0.  1.
</event>
<event>
 7    1  0.4477737E-009  0.4778727E+02  0.7816164E-02  0.1312668E+00
        -11   -1    0    0    0    0  0.00000000000E+00  0.00000000000E+00  0.45593999997E+02  0.45594000000E+02  0.51100000000E-03 0.  1.
         11   -1    0    0    0    0 -0.00000000000E+00 -0.00000000000E+00 -0.45593999997E+02  0.45594000000E+02  0.51100000000E-03 0. -1.
    9900012    2    1    2    0    0  0.16428999875E+02 -0.25219410093E+02  0.31268078754E+02  0.47787269231E+02  0.19999991731E+02 0.  0.
         12    1    1    2    0    0 -0.16428999875E+02  0.25219410093E+02 -0.31268078754E+02  0.43400730769E+02  0.00000000000E+00 0. -1.
         11    1    3    3    0    0  0.88586320261E+01 -0.65275708676E+01  0.82593067196E+00  0.11034795174E+02  0.51100000000E-03 0. -1.
        -11    1    3    3    0    0  0.69031255006E+01 -0.15680264126E+02  0.22865021912E+02  0.28571542696E+02  0.51100000000E-03 0.  1.
        -12    1    3    3    0    0  0.66724234846E+00 -0.30115750997E+01  0.75771261694E+01  0.81809313602E+01  0.00000000000E+00 0.  1.
</event>
<event>
 7    1  0.4477737E-009  0.4778728E+02  0.7816164E-02  0.1312668E+00
        -11   -1    0    0    0    0  0.00000000000E+00  0.00000000000E+00  0.45593999997E+02  0.45594000000E+02  0.51100000000E-03 0.  1.
         11   -1    0    0    0    0 -0.00000000000E+00 -0.00000000000E+00 -0.45593999997E+02  0.45594000000E+02  0.51100000000E-03 0. -1.
    9900012    2    1    2    0    0  0.35749167705E+02 -0.13002313224E+02  0.20894006467E+02  0.47787278266E+02  0.20000032926E+02 0.  0.
         12    1    1    2    0    0 -0.35749167705E+02  0.13002313224E+02 -0.20894006467E+02  0.43400721734E+02  0.00000000000E+00 0. -1.
         11    1    3    3    0    0  0.24641106621E+02 -0.10101632412E+02  0.42572420060E+01  0.26969449803E+02  0.51100000000E-03 0. -1.
        -11    1    3    3    0    0  0.11211465101E+02 -0.17852684267E+01  0.14612731235E+02  0.18504487226E+02  0.51100000000E-03 0.  1.
        -12    1    3    3    0    0 -0.10340401777E+00 -0.11154123853E+01  0.20240332261E+01  0.23133412374E+01  0.00000000000E+00 0.  1.
</event>
<event>
 7    1  0.4477737E-009  0.4778728E+02  0.7816164E-02  0.1312668E+00
        -11   -1    0    0    0    0  0.00000000000E+00  0.00000000000E+00  0.45593999997E+02  0.45594000000E+02  0.51100000000E-03 0. -1.
         11   -1    0    0    0    0 -0.00000000000E+00 -0.00000000000E+00 -0.45593999997E+02  0.45594000000E+02  0.51100000000E-03 0.  1.
    9900012    2    1    2    0    0 -0.40068393052E+01 -0.31324004635E+02 -0.29772048522E+02  0.47787275343E+02  0.20000019598E+02 0.  0.
         12    1    1    2    0    0  0.40068393052E+01  0.31324004635E+02  0.29772048522E+02  0.43400724657E+02  0.00000000000E+00 0. -1.
         11    1    3    3    0    0  0.38030640654E+01 -0.13578911005E+02 -0.29155371008E+01  0.14399669344E+02  0.51100000000E-03 0. -1.
        -11    1    3    3    0    0 -0.74828706206E+01 -0.12640147440E+02 -0.19076448625E+02  0.24076494189E+02  0.51100000000E-03 0.  1.
         12    1    3    3    0    0 -0.32703274998E+00 -0.51049461891E+01 -0.77800627964E+01  0.93111118095E+01  0.00000000000E+00 0. -1.
</event>
<event>
 7    1  0.5621315E-009  0.4778727E+02  0.7816164E-02  0.1312668E+00
        -11   -1    0    0    0    0  0.00000000000E+00  0.00000000000E+00  0.45593999997E+02  0.45594000000E+02  0.51100000000E-03 0.  1.
         11   -1    0    0    0    0 -0.00000000000E+00 -0.00000000000E+00 -0.45593999997E+02  0.45594000000E+02  0.51100000000E-03 0. -1.
    9900012    2    1    2    0    0 -0.37722741462E+02  0.70868476533E+01  0.20258202908E+02  0.47787269383E+02  0.19999992424E+02 0.  0.
         12    1    1    2    0    0  0.37722741462E+02 -0.70868476533E+01 -0.20258202908E+02  0.43400730617E+02  0.00000000000E+00 0. -1.
         11    1    3    3    0    0  0.57423538691E+00 -0.94253967517E+00 -0.18179315923E+01  0.21267352572E+01  0.51100000000E-03 0. -1.
        -11    1    3    3    0    0 -0.22811608202E+02  0.87737617797E+01  0.14293779724E+02  0.28313609865E+02  0.51100000000E-03 0.  1.
        -12    1    3    3    0    0 -0.15485368647E+02 -0.74437445118E+00  0.77823547763E+01  0.17346924261E+02  0.00000000000E+00 0.  1.
</event>
<event>
 7    1  0.4477737E-009  0.4778727E+02  0.7816164E-02  0.1312668E+00
        -11   -1    0    0    0    0  0.00000000000E+00  0.00000000000E+00  0.45593999997E+02  0.45594000000E+02  0.51100000000E-03 0.  1.
         11   -1    0    0    0    0 -0.00000000000E+00 -0.00000000000E+00 -0.45593999997E+02  0.45594000000E+02  0.51100000000E-03 0. -1.
    9900012    2    1    2    0    0  0.35192131623E+02  0.24159287974E+02  0.78400166807E+01  0.47787272067E+02  0.20000004663E+02 0.  0.
         12    1    1    2    0    0 -0.35192131623E+02 -0.24159287974E+02 -0.78400166807E+01  0.43400727933E+02  0.00000000000E+00 0. -1.
         11    1    3    3    0    0  0.25242092433E+02  0.23762579350E+02  0.90991344626E+00  0.34679263984E+02  0.51100000000E-03 0.  1.
        -11    1    3    3    0    0  0.98576877564E+01 -0.52128754497E+00  0.52242722158E+01  0.11168651174E+02  0.51100000000E-03 0. -1.
         12    1    3    3    0    0  0.92351433175E-01  0.91799616888E+00  0.17058310187E+01  0.19393569083E+01  0.00000000000E+00 0. -1.
</event>
<event>
 7    1  0.4477737E-009  0.4778727E+02  0.7816164E-02  0.1312668E+00
        -11   -1    0    0    0    0  0.00000000000E+00  0.00000000000E+00  0.45593999997E+02  0.45594000000E+02  0.51100000000E-03 0.  1.
         11   -1    0    0    0    0 -0.00000000000E+00 -0.00000000000E+00 -0.45593999997E+02  0.45594000000E+02  0.51100000000E-03 0. -1.
    9900012    2    1    2    0    0 -0.37250192023E+02  0.14258042689E+02  0.17110074804E+02  0.47787271355E+02  0.20000001418E+02 0.  0.
         12    1    1    2    0    0  0.37250192023E+02 -0.14258042689E+02 -0.17110074804E+02  0.43400728645E+02  0.00000000000E+00 0. -1.
         11    1    3    3    0    0 -0.11935925527E+01  0.54541314844E+01  0.10791259297E+01  0.56865390586E+01  0.51100000000E-03 0. -1.
        -11    1    3    3    0    0 -0.33847970435E+02  0.10528211458E+02  0.16753227388E+02  0.39207129036E+02  0.51100000000E-03 0.  1.
        -12    1    3    3    0    0 -0.22086290360E+01 -0.17243002534E+01 -0.72227851390E+00  0.28936032614E+01  0.00000000000E+00 0.  1.
</event>
<event>
 7    1  0.4477737E-009  0.4778728E+02  0.7816164E-02  0.1312668E+00
        -11   -1    0    0    0    0  0.00000000000E+00  0.00000000000E+00  0.45593999997E+02  0.45594000000E+02  0.51100000000E-03 0.  1.
         11   -1    0    0    0    0 -0.00000000000E+00 -0.00000000000E+00 -0.45593999997E+02  0.45594000000E+02  0.51100000000E-03 0. -1.
    9900012    2    1    2    0    0  0.64896893470E-01 -0.35694442058E+02  0.24688565503E+02  0.47787277977E+02  0.20000031610E+02 0.  0.
         12    1    1    2    0    0 -0.64896893470E-01  0.35694442058E+02 -0.24688565503E+02  0.43400722023E+02  0.00000000000E+00 0. -1.
         11    1    3    3    0    0 -0.41228724644E+01 -0.26537345866E+02  0.15681991109E+02  0.31099094012E+02  0.51100000000E-03 0.  1.
        -11    1    3    3    0    0  0.54442148768E+01 -0.82020276372E+01  0.10585567332E+02  0.14455689848E+02  0.51100000000E-03 0. -1.
         12    1    3    3    0    0 -0.12564455189E+01 -0.95506855514E+00 -0.15789929373E+01  0.22324941172E+01  0.00000000000E+00 0. -1.
</event>
<event>
 7    1  0.4477737E-009  0.4778727E+02  0.7816164E-02  0.1312668E+00
        -11   -1    0    0    0    0  0.00000000000E+00  0.00000000000E+00  0.45593999997E+02  0.45594000000E+02  0.51100000000E-03 0.  1.
         11   -1    0    0    0    0 -0.00000000000E+00 -0.00000000000E+00 -0.45593999997E+02  0.45594000000E+02  0.51100000000E-03 0. -1.
    9900012    2    1    2    0    0  0.14598412270E+02 -0.32296813743E+02  0.25048466524E+02  0.47787268509E+02  0.19999988439E+02 0.  0.
         12    1    1    2    0    0 -0.14598412270E+02  0.32296813743E+02 -0.25048466524E+02  0.43400731491E+02  0.00000000000E+00 0. -1.
         11    1    3    3    0    0 -0.33292672751E+01 -0.49514902088E+01  0.66224628351E+01  0.89139379704E+01  0.51100000000E-03 0. -1.
        -11    1    3    3    0    0  0.15084906753E+02 -0.27348422180E+02  0.17846647987E+02  0.35972120484E+02  0.51100000000E-03 0.  1.
        -12    1    3    3    0    0  0.28427727927E+01  0.30986453380E-02  0.57935570157E+00  0.29012100547E+01  0.00000000000E+00 0.  1.
</event>
<event>
 7    1  0.4477737E-009  0.4778727E+02  0.7816164E-02  0.1312668E+00
        -11   -1    0    0    0    0  0.00000000000E+00  0.00000000000E+00  0.45593999997E+02  0.45594000000E+02  0.51100000000E-03 0.  1.
         11   -1    0    0    0    0 -0.00000000000E+00 -0.00000000000E+00 -0.45593999997E+02  0.45594000000E+02  0.51100000000E-03 0. -1.
    9900012    2    1    2    0    0 -0.27509380486E+02 -0.47691311257E+01  0.33228189978E+02  0.47787271484E+02  0.20000002006E+02 0.  0.
         12    1    1    2    0    0  0.27509380486E+02  0.47691311257E+01 -0.33228189978E+02  0.43400728516E+02  0.00000000000E+00 0. -1.
         11    1    3    3    0    0 -0.53450416194E+01 -0.69609187002E+01  0.36797741189E+01  0.95165433268E+01  0.51100000000E-03 0. -1.
        -11    1    3    3    0    0 -0.54348145320E+01 -0.32857274882E+01  0.10979266680E+02  0.12683749888E+02  0.51100000000E-03 0.  1.
         12    1    3    3    0    0 -0.16729524335E+02  0.54775150627E+01  0.18569149180E+02  0.25586978270E+02  0.00000000000E+00 0. -1.
</event>
<event>
 7    1  0.4477737E-009  0.4778727E+02  0.7816164E-02  0.1312668E+00
        -11   -1    0    0    0    0  0.00000000000E+00  0.00000000000E+00  0.45593999997E+02  0.45594000000E+02  0.51100000000E-03 0. -1.
         11   -1    0    0    0    0 -0.00000000000E+00 -0.00000000000E+00 -0.45593999997E+02  0.45594000000E+02  0.51100000000E-03 0.  1.
    9900012    2    1    2    0    0  0.13831764287E+02  0.41051754274E+02 -0.26568533192E+01  0.47787273026E+02  0.20000009036E+02 0.  0.
         12    1    1    2    0    0 -0.13831764287E+02 -0.41051754274E+02  0.26568533192E+01  0.43400726974E+02  0.00000000000E+00 0. -1.
         11    1    3    3    0    0  0.61949149555E+01  0.17765720804E+02 -0.67471880566E+01  0.19988055281E+02  0.51100000000E-03 0. -1.
        -11    1    3    3    0    0 -0.25751009236E+01  0.84445522872E+01  0.42158682851E+01  0.97834121735E+01  0.51100000000E-03 0.  1.
        -12    1    3    3    0    0  0.10211950255E+02  0.14841481183E+02 -0.12553354763E+00  0.18015805572E+02  0.00000000000E+00 0.  1.
</event>
<event>
 7    1  0.4477737E-009  0.4778728E+02  0.7816164E-02  0.1312668E+00
        -11   -1    0    0    0    0  0.00000000000E+00  0.00000000000E+00  0.45593999997E+02  0.45594000000E+02  0.51100000000E-03 0. -1.
         11   -1    0    0    0    0 -0.00000000000E+00 -0.00000000000E+00 -0.45593999997E+02  0.45594000000E+02  0.51100000000E-03 0.  1.
    9900012    2    1    2    0    0 -0.10329320406E+01 -0.20951469881E+02 -0.37994628081E+02  0.47787276483E+02  0.20000024796E+02 0.  0.
         12    1    1    2    0    0  0.10329320406E+01  0.20951469881E+02  0.37994628081E+02  0.43400723517E+02  0.00000000000E+00 0. -1.
         11    1    3    3    0    0  0.59381236412E+01 -0.12566685231E+02 -0.26017171126E+02  0.29497052120E+02  0.51100000000E-03 0. -1.
        -11    1    3    3    0    0 -0.94988761648E+00  0.64143827614E+00 -0.55755572216E+01  0.56921496940E+01  0.51100000000E-03 0.  1.
         12    1    3    3    0    0 -0.60211680653E+01 -0.90262229254E+01 -0.64018997337E+01  0.12598074669E+02  0.00000000000E+00 0. -1.
</event>
<event>
 7    1  0.6245525E-009  0.4778727E+02  0.7816164E-02  0.1312668E+00
        -11   -1    0    0    0    0  0.00000000000E+00  0.00000000000E+00  0.45593999997E+02  0.45594000000E+02  0.51100000000E-03 0. -1.
         11   -1    0    0    0    0 -0.00000000000E+00 -0.00000000000E+00 -0.45593999997E+02  0.45594000000E+02  0.51100000000E-03 0.  1.
    9900012    2    1    2    0    0  0.35458953978E+02 -0.36200029067E+01 -0.24762494996E+02  0.47787274237E+02  0.20000014558E+02 0.  0.
         12    1    1    2    0    0 -0.35458953978E+02  0.36200029067E+01  0.24762494996E+02  0.43400725763E+02  0.00000000000E+00 0. -1.
         11    1    3    3    0    0  0.13667464969E+01  0.11026275597E+01  0.19644371207E+01  0.26349187814E+01  0.51100000000E-03 0. -1.
        -11    1    3    3    0    0  0.32329045014E+02 -0.65988963337E+01 -0.21663061279E+02  0.39471518955E+02  0.51100000000E-03 0.  1.
        -12    1    3    3    0    0  0.17631624671E+01  0.18762658674E+01 -0.50638708376E+01  0.56808365010E+01  0.00000000000E+00 0.  1.
</event>
<event>
 7    1  0.4477737E-009  0.4778721E+02  0.7816164E-02  0.1312668E+00
        -11   -1    0    0    0    0  0.00000000000E+00  0.00000000000E+00  0.45593999997E+02  0.45594000000E+02  0.51100000000E-03 0.  1.
         11   -1    0    0    0    0 -0.00000000000E+00 -0.00000000000E+00 -0.45593999997E+02  0.45594000000E+02  0.51100000000E-03 0. -1.
    9900012    2    1    2    0    0  0.28116556711E+02 -0.31915571577E+02  0.86304091401E+01  0.47787211617E+02  0.19999729043E+02 0.  0.
         12    1    1    2    0    0 -0.28116556711E+02  0.31915571577E+02 -0.86304091401E+01  0.43400788383E+02  0.00000000000E+00 0. -1.
         11    1    3    3    0    0 -0.10858922572E+01 -0.15221167358E+01  0.47261795936E+01  0.50825953177E+01  0.51100000000E-03 0. -1.
        -11    1    3    3    0    0  0.18019056715E+02 -0.21426106980E+02  0.64041707641E+00  0.28003117675E+02  0.51100000000E-03 0.  1.
        -12    1    3    3    0    0  0.11183392253E+02 -0.89673478611E+01  0.32638124700E+01  0.14701498624E+02  0.00000000000E+00 0.  1.
</event>
<event>
 7    1  0.4477737E-009  0.4778727E+02  0.7816164E-02  0.1312668E+00
        -11   -1    0    0    0    0  0.00000000000E+00  0.00000000000E+00  0.45593999997E+02  0.45594000000E+02  0.51100000000E-03 0.  1.
         11   -1    0    0    0    0 -0.00000000000E+00 -0.00000000000E+00 -0.45593999997E+02  0.45594000000E+02  0.51100000000E-03 0. -1.
    9900012    2    1    2    0    0  0.39437245530E+02 -0.77214802574E+01  0.16392243797E+02  0.47787271331E+02  0.20000001304E+02 0.  0.
         12    1    1    2    0    0 -0.39437245530E+02  0.77214802574E+01 -0.16392243797E+02  0.43400728669E+02  0.00000000000E+00 0. -1.
         11    1    3    3    0    0  0.12058067954E+02  0.36035207882E+01  0.12237357719E+02  0.17553782757E+02  0.51100000000E-03 0. -1.
        -11    1    3    3    0    0  0.17360408034E+02 -0.89393854160E+01  0.14238455433E+01  0.19578654579E+02  0.51100000000E-03 0.  1.
         12    1    3    3    0    0  0.10018769542E+02 -0.23856156296E+01  0.27310405347E+01  0.10654833995E+02  0.00000000000E+00 0. -1.
</event>
<event>
 7    1  0.4477737E-009  0.4778727E+02  0.7816164E-02  0.1312668E+00
        -11   -1    0    0    0    0  0.00000000000E+00  0.00000000000E+00  0.45593999997E+02  0.45594000000E+02  0.51100000000E-03 0.  1.
         11   -1    0    0    0    0 -0.00000000000E+00 -0.00000000000E+00 -0.45593999997E+02  0.45594000000E+02  0.51100000000E-03 0. -1.
    9900012    2    1    2    0    0  0.31921996402E+02  0.14967023913E+02  0.25310035227E+02  0.47787267952E+02  0.19999985901E+02 0.  0.
         12    1    1    2    0    0 -0.31921996402E+02 -0.14967023913E+02 -0.25310035227E+02  0.43400732048E+02  0.00000000000E+00 0. -1.
         11    1    3    3    0    0  0.62780942449E+01  0.11125890834E+02  0.36991987472E+01  0.13299773901E+02  0.51100000000E-03 0. -1.
        -11    1    3    3    0    0  0.11339695270E+02 -0.10381656957E+01  0.12175199388E+02  0.16670391634E+02  0.51100000000E-03 0.  1.
        -12    1    3    3    0    0  0.14304206887E+02  0.48792987748E+01  0.94356370922E+01  0.17817102417E+02  0.00000000000E+00 0.  1.
</event>
<event>
 7    1  0.4477737E-009  0.4778727E+02  0.7816164E-02  0.1312668E+00
        -11   -1    0    0    0    0  0.00000000000E+00  0.00000000000E+00  0.45593999997E+02  0.45594000000E+02  0.51100000000E-03 0.  1.
         11   -1    0    0    0    0 -0.00000000000E+00 -0.00000000000E+00 -0.45593999997E+02  0.45594000000E+02  0.51100000000E-03 0. -1.
    9900012    2    1    2    0    0  0.29088227916E+02 -0.15385090698E+02  0.28298363972E+02  0.47787269332E+02  0.19999992190E+02 0.  0.
         12    1    1    2    0    0 -0.29088227916E+02  0.15385090698E+02 -0.28298363972E+02  0.43400730668E+02  0.00000000000E+00 0. -1.
         11    1    3    3    0    0  0.14410177481E+02 -0.60164249802E+01  0.31552018009E+01  0.15931286302E+02  0.51100000000E-03 0. -1.
        -11    1    3    3    0    0  0.77985004859E+01 -0.16494446815E+01  0.16707314716E+02  0.18511392246E+02  0.51100000000E-03 0.  1.
         12    1    3    3    0    0  0.68795499493E+01 -0.77192210367E+01  0.84358474545E+01  0.13344590784E+02  0.00000000000E+00 0. -1.
</event>
<event>
 7    1  0.4477737E-009  0.4778726E+02  0.7816164E-02  0.1312668E+00
        -11   -1    0    0    0    0  0.00000000000E+00  0.00000000000E+00  0.45593999997E+02  0.45594000000E+02  0.51100000000E-03 0.  1.
         11   -1    0    0    0    0 -0.00000000000E+00 -0.00000000000E+00 -0.45593999997E+02  0.45594000000E+02  0.51100000000E-03 0. -1.
    9900012    2    1    2    0    0  0.17917376531E+02  0.39445209928E+02 -0.25820386899E+01  0.47787263925E+02  0.19999967541E+02 0.  0.
         12    1    1    2    0    0 -0.17917376531E+02 -0.39445209928E+02  0.25820386899E+01  0.43400736075E+02  0.00000000000E+00 0. -1.
         11    1    3    3    0    0  0.65723840543E+01  0.18324399823E+02  0.60874638491E+01  0.20396986969E+02  0.51100000000E-03 0. -1.
        -11    1    3    3    0    0  0.84942868849E+01  0.10079379061E+02 -0.19518188955E+00  0.13182749644E+02  0.51100000000E-03 0.  1.
         12    1    3    3    0    0  0.28507055915E+01  0.11041431045E+02 -0.84743206494E+01  0.14207527313E+02  0.00000000000E+00 0. -1.
</event>
<event>
 7    1  0.4477737E-009  0.4778727E+02  0.7816164E-02  0.1312668E+00
        -11   -1    0    0    0    0  0.00000000000E+00  0.00000000000E+00  0.45593999997E+02  0.45594000000E+02  0.51100000000E-03 0.  1.
         11   -1    0    0    0    0 -0.00000000000E+00 -0.00000000000E+00 -0.45593999997E+02  0.45594000000E+02  0.51100000000E-03 0. -1.
    9900012    2    1    2    0    0 -0.19605655516E+02 -0.91098055109E+01  0.37633139506E+02  0.47787268742E+02  0.19999989502E+02 0.  0.
         12    1    1    2    0    0  0.19605655516E+02  0.91098055109E+01 -0.37633139506E+02  0.43400731258E+02  0.00000000000E+00 0. -1.
         11    1    3    3    0    0  0.25341741725E+01 -0.68274106358E+00  0.13226870010E+00  0.26278640312E+01  0.51100000000E-03 0. -1.
        -11    1    3    3    0    0 -0.14986358697E+02 -0.77597486684E+01  0.31750880893E+02  0.35957239662E+02  0.51100000000E-03 0.  1.
         12    1    3    3    0    0 -0.71534709923E+01 -0.66731577892E+00  0.57499899122E+01  0.92021650484E+01  0.00000000000E+00 0. -1.
</event>
<event>
 7    1  0.5119903E-009  0.4778727E+02  0.7816164E-02  0.1312668E+00
        -11   -1    0    0    0    0  0.00000000000E+00  0.00000000000E+00  0.45593999997E+02  0.45594000000E+02  0.51100000000E-03 0.  1.
         11   -1    0    0    0    0 -0.00000000000E+00 -0.00000000000E+00 -0.45593999997E+02  0.45594000000E+02  0.51100000000E-03 0. -1.
    9900012    2    1    2    0    0  0.21738770270E+02 -0.20771551790E+02  0.31298428982E+02  0.47787272433E+02  0.20000006331E+02 0.  0.
         12    1    1    2    0    0 -0.21738770270E+02  0.20771551790E+02 -0.31298428982E+02  0.43400727567E+02  0.00000000000E+00 0. -1.
         11    1    3    3    0    0 -0.15538552638E+01  0.80387668558E+00  0.71720434655E+01  0.73823364621E+01  0.51100000000E-03 0. -1.
        -11    1    3    3    0    0  0.15146202861E+02 -0.10907902376E+02  0.16804669893E+02  0.25115467860E+02  0.51100000000E-03 0.  1.
         12    1    3    3    0    0  0.81464226734E+01 -0.10667526099E+02  0.73217156228E+01  0.15289468111E+02  0.00000000000E+00 0. -1.
</event>
<event>
 7    1  0.4477737E-009  0.4778727E+02  0.7816164E-02  0.1312668E+00
        -11   -1    0    0    0    0  0.00000000000E+00  0.00000000000E+00  0.45593999997E+02  0.45594000000E+02  0.51100000000E-03 0. -1.
         11   -1    0    0    0    0 -0.00000000000E+00 -0.00000000000E+00 -0.45593999997E+02  0.45594000000E+02  0.51100000000E-03 0.  1.
    9900012    2    1    2    0    0 -0.14277723012E+02  0.48965760963E+01 -0.40691441832E+02  0.47787271086E+02  0.20000000191E+02 0.  0.
         12    1    1    2    0    0  0.14277723012E+02 -0.48965760963E+01  0.40691441832E+02  0.43400728914E+02  0.00000000000E+00 0. -1.
         11    1    3    3    0    0 -0.14191703495E+02 -0.11198292305E+01 -0.15977212348E+02  0.21399293920E+02  0.51100000000E-03 0. -1.
        -11    1    3    3    0    0 -0.19449069607E+01  0.63115495572E+01 -0.22655620035E+02  0.23598632170E+02  0.51100000000E-03 0.  1.
         12    1    3    3    0    0  0.18588874432E+01 -0.29514423045E+00 -0.20586094490E+01  0.27893449960E+01  0.00000000000E+00 0. -1.
</event>
<event>
 7    1  0.4477737E-009  0.4778723E+02  0.7816164E-02  0.1312668E+00
        -11   -1    0    0    0    0  0.00000000000E+00  0.00000000000E+00  0.45593999997E+02  0.45594000000E+02  0.51100000000E-03 0. -1.
         11   -1    0    0    0    0 -0.00000000000E+00 -0.00000000000E+00 -0.45593999997E+02  0.45594000000E+02  0.51100000000E-03 0.  1.
    9900012    2    1    2    0    0  0.22074691594E+02 -0.31578373192E+02 -0.19978521139E+02  0.47787228471E+02  0.19999805888E+02 0.  0.
         12    1    1    2    0    0 -0.22074691594E+02  0.31578373192E+02  0.19978521139E+02  0.43400771529E+02  0.00000000000E+00 0. -1.
         11    1    3    3    0    0  0.69920334717E+01 -0.67954549412E+01 -0.13670383417E+02  0.16791251381E+02  0.51100000000E-03 0. -1.
        -11    1    3    3    0    0  0.95628800454E+00 -0.93392384946E+01 -0.25853393343E+01  0.97375480559E+01  0.51100000000E-03 0.  1.
         12    1    3    3    0    0  0.14126370118E+02 -0.15443679756E+02 -0.37227983879E+01  0.21258429033E+02  0.00000000000E+00 0. -1.
</event>
<event>
 7    1  0.4477737E-009  0.4778727E+02  0.7816164E-02  0.1312668E+00
        -11   -1    0    0    0    0  0.00000000000E+00  0.00000000000E+00  0.45593999997E+02  0.45594000000E+02  0.51100000000E-03 0.  1.
         11   -1    0    0    0    0 -0.00000000000E+00 -0.00000000000E+00 -0.45593999997E+02  0.45594000000E+02  0.51100000000E-03 0. -1.
    9900012    2    1    2    0    0 -0.42072337666E+01  0.40305328238E+02  0.15537145164E+02  0.47787272124E+02  0.20000004922E+02 0.  0.
         12    1    1    2    0    0  0.42072337666E+01 -0.40305328238E+02 -0.15537145164E+02  0.43400727876E+02  0.00000000000E+00 0. -1.
         11    1    3    3    0    0  0.68579518002E+01  0.10391429726E+02  0.11114392201E+01  0.12499944481E+02  0.51100000000E-03 0. -1.
        -11    1    3    3    0    0 -0.76571720794E+01  0.25199728005E+02  0.11048073272E+02  0.28560786037E+02  0.51100000000E-03 0.  1.
         12    1    3    3    0    0 -0.34080134874E+01  0.47141705070E+01  0.33776326720E+01  0.67265416052E+01  0.00000000000E+00 0. -1.
</event>
<event>
 7    1  0.4477737E-009  0.4778727E+02  0.7816164E-02  0.1312668E+00
        -11   -1    0    0    0    0  0.00000000000E+00  0.00000000000E+00  0.45593999997E+02  0.45594000000E+02  0.51100000000E-03 0.  1.
         11   -1    0    0    0    0 -0.00000000000E+00 -0.00000000000E+00 -0.45593999997E+02  0.45594000000E+02  0.51100000000E-03 0. -1.
    9900012    2    1    2    0    0 -0.32710370902E+02 -0.13734089991E+02  0.25000592920E+02  0.47787271449E+02  0.20000001844E+02 0.  0.
         12    1    1    2    0    0  0.32710370902E+02  0.13734089991E+02 -0.25000592920E+02  0.43400728551E+02  0.00000000000E+00 0. -1.
         11    1    3    3    0    0 -0.89825988795E+00 -0.30147806995E+01 -0.15521564255E+01  0.35078431155E+01  0.51100000000E-03 0. -1.
        -11    1    3    3    0    0 -0.18607155610E+02 -0.88089956050E+01  0.22124972540E+02  0.30221499857E+02  0.51100000000E-03 0.  1.
         12    1    3    3    0    0 -0.13204955404E+02 -0.19103136866E+01  0.44277768050E+01  0.14057928476E+02  0.00000000000E+00 0. -1.
</event>
<event>
 7    1  0.4477737E-009  0.4778727E+02  0.7816164E-02  0.1312668E+00
        -11   -1    0    0    0    0  0.00000000000E+00  0.00000000000E+00  0.45593999997E+02  0.45594000000E+02  0.51100000000E-03 0. -1.
         11   -1    0    0    0    0 -0.00000000000E+00 -0.00000000000E+00 -0.45593999997E+02  0.45594000000E+02  0.51100000000E-03 0.  1.
    9900012    2    1    2    0    0  0.32966743273E+02  0.17388618080E+01 -0.28174340939E+02  0.47787270862E+02  0.19999999166E+02 0.  0.
         12    1    1    2    0    0 -0.32966743273E+02 -0.17388618080E+01  0.28174340939E+02  0.43400729138E+02  0.00000000000E+00 0. -1.
         11    1    3    3    0    0  0.29352335371E+02  0.68807302212E+01 -0.24057441835E+02  0.38570254705E+02  0.51100000000E-03 0. -1.
        -11    1    3    3    0    0  0.29135894140E+00 -0.44452850719E+01 -0.91029257400E+00  0.45468760963E+01  0.51100000000E-03 0.  1.
         12    1    3    3    0    0  0.33230489598E+01 -0.69658334127E+00 -0.32066065302E+01  0.46701400600E+01  0.00000000000E+00 0. -1.
</event>
<event>
 7    1  0.4477737E-009  0.4778727E+02  0.7816164E-02  0.1312668E+00
        -11   -1    0    0    0    0  0.00000000000E+00  0.00000000000E+00  0.45593999997E+02  0.45594000000E+02  0.51100000000E-03 0.  1.
         11   -1    0    0    0    0 -0.00000000000E+00 -0.00000000000E+00 -0.45593999997E+02  0.45594000000E+02  0.51100000000E-03 0. -1.
    9900012    2    1    2    0    0 -0.30993420729E+01  0.42656051485E+02 -0.73809406037E+01  0.47787274963E+02  0.20000017865E+02 0.  0.
         12    1    1    2    0    0  0.30993420729E+01 -0.42656051485E+02  0.73809406037E+01  0.43400725037E+02  0.00000000000E+00 0. -1.
         11    1    3    3    0    0  0.40094806077E+00  0.16281664832E+01  0.33566573824E+01  0.37521772997E+01  0.51100000000E-03 0. -1.
        -11    1    3    3    0    0 -0.68214079979E+01  0.19319477367E+02 -0.75930260463E+01  0.21850122600E+02  0.51100000000E-03 0.  1.
         12    1    3    3    0    0  0.33211178642E+01  0.21708407634E+02 -0.31445719398E+01  0.22184975063E+02  0.00000000000E+00 0. -1.
</event>
<event>
 7    1  0.4477737E-009  0.4778727E+02  0.7816164E-02  0.1312668E+00
        -11   -1    0    0    0    0  0.00000000000E+00  0.00000000000E+00  0.45593999997E+02  0.45594000000E+02  0.51100000000E-03 0.  1.
         11   -1    0    0    0    0 -0.00000000000E+00 -0.00000000000E+00 -0.45593999997E+02  0.45594000000E+02  0.51100000000E-03 0. -1.
    9900012    2    1    2    0    0  0.13051811368E+02 -0.21361797959E+02  0.35453446189E+02  0.47787273754E+02  0.20000012353E+02 0.  0.
         12    1    1    2    0    0 -0.13051811368E+02  0.21361797959E+02 -0.35453446189E+02  0.43400726246E+02  0.00000000000E+00 0. -1.
         11    1    3    3    0    0 -0.26436081120E+01 -0.22838822346E+01  0.56352215302E+01  0.66302717793E+01  0.51100000000E-03 0. -1.
        -11    1    3    3    0    0  0.17672547534E+02 -0.15166160326E+02  0.27981719535E+02  0.36404779683E+02  0.51100000000E-03 0.  1.
        -12    1    3    3    0    0 -0.19771280543E+01 -0.39117553976E+01  0.18365051239E+01  0.47522222911E+01  0.00000000000E+00 0.  1.
</event>
<event>
 7    1  0.4477737E-009  0.4778728E+02  0.7816164E-02  0.1312668E+00
        -11   -1    0    0    0    0  0.00000000000E+00  0.00000000000E+00  0.45593999997E+02  0.45594000000E+02  0.51100000000E-03 0.  1.
         11   -1    0    0    0    0 -0.00000000000E+00 -0.00000000000E+00 -0.45593999997E+02  0.45594000000E+02  0.51100000000E-03 0. -1.
    9900012    2    1    2    0    0 -0.29098607815E+02 -0.81120122037E+01  0.31162302538E+02  0.47787276293E+02  0.20000023931E+02 0.  0.
         12    1    1    2    0    0  0.29098607815E+02  0.81120122037E+01 -0.31162302538E+02  0.43400723707E+02  0.00000000000E+00 0. -1.
         11    1    3    3    0    0 -0.11129966450E+02 -0.62250360717E+01  0.22942657202E+01  0.12957271423E+02  0.51100000000E-03 0. -1.
        -11    1    3    3    0    0 -0.63710768287E+01  0.39014899758E+00  0.16646870972E+02  0.17828660904E+02  0.51100000000E-03 0.  1.
        -12    1    3    3    0    0 -0.11597564537E+02 -0.22771251296E+01  0.12221165846E+02  0.17001343967E+02  0.00000000000E+00 0.  1.
</event>
<event>
 7    1  0.4477737E-009  0.4778727E+02  0.7816164E-02  0.1312668E+00
        -11   -1    0    0    0    0  0.00000000000E+00  0.00000000000E+00  0.45593999997E+02  0.45594000000E+02  0.51100000000E-03 0. -1.
         11   -1    0    0    0    0 -0.00000000000E+00 -0.00000000000E+00 -0.45593999997E+02  0.45594000000E+02  0.51100000000E-03 0.  1.
    9900012    2    1    2    0    0  0.24565952724E+02 -0.35619500201E+02 -0.33746499823E+01  0.47787273159E+02  0.20000009642E+02 0.  0.
         12    1    1    2    0    0 -0.24565952724E+02  0.35619500201E+02  0.33746499823E+01  0.43400726841E+02  0.00000000000E+00 0. -1.
         11    1    3    3    0    0  0.14538788849E+02 -0.28111408652E+02  0.57418359009E+01  0.32165141961E+02  0.51100000000E-03 0. -1.
        -11    1    3    3    0    0  0.73602708369E+01 -0.65459237516E+01 -0.69936988600E+01  0.12080336442E+02  0.51100000000E-03 0.  1.
         12    1    3    3    0    0  0.26668930379E+01 -0.96216779712E+00 -0.21227870232E+01  0.35417947557E+01  0.00000000000E+00 0. -1.
</event>
<event>
 7    1  0.4477737E-009  0.4778727E+02  0.7816164E-02  0.1312668E+00
        -11   -1    0    0    0    0  0.00000000000E+00  0.00000000000E+00  0.45593999997E+02  0.45594000000E+02  0.51100000000E-03 0. -1.
         11   -1    0    0    0    0 -0.00000000000E+00 -0.00000000000E+00 -0.45593999997E+02  0.45594000000E+02  0.51100000000E-03 0.  1.
    9900012    2    1    2    0    0  0.24591638109E+02 -0.90025753682E+01 -0.34609656336E+02  0.47787270284E+02  0.19999996535E+02 0.  0.
         12    1    1    2    0    0 -0.24591638109E+02  0.90025753682E+01  0.34609656336E+02  0.43400729716E+02  0.00000000000E+00 0. -1.
         11    1    3    3    0    0  0.36556095276E+01 -0.40638990711E+01 -0.74593304129E+01  0.92477222681E+01  0.51100000000E-03 0. -1.
        -11    1    3    3    0    0  0.23037570713E+01 -0.80965772397E+01 -0.74613882937E+01  0.11248741048E+02  0.51100000000E-03 0.  1.
        -12    1    3    3    0    0  0.18632271510E+02  0.31579009425E+01 -0.19688937630E+02  0.27290806968E+02  0.00000000000E+00 0.  1.
</event>
<event>
 7    1  0.4477737E-009  0.4778727E+02  0.7816164E-02  0.1312668E+00
        -11   -1    0    0    0    0  0.00000000000E+00  0.00000000000E+00  0.45593999997E+02  0.45594000000E+02  0.51100000000E-03 0.  1.
         11   -1    0    0    0    0 -0.00000000000E+00 -0.00000000000E+00 -0.45593999997E+02  0.45594000000E+02  0.51100000000E-03 0. -1.
    9900012    2    1    2    0    0 -0.24975011325E+02 -0.32092540012E+02  0.15163800765E+02  0.47787272256E+02  0.20000005523E+02 0.  0.
         12    1    1    2    0    0  0.24975011325E+02  0.32092540012E+02 -0.15163800765E+02  0.43400727744E+02  0.00000000000E+00 0. -1.
         11    1    3    3    0    0 -0.18437110037E+02 -0.83323467336E+01  0.55856193164E+01  0.20989382364E+02  0.51100000000E-03 0. -1.
        -11    1    3    3    0    0  0.79861940057E-01 -0.63308968754E+01  0.16799231232E+01  0.65504790006E+01  0.51100000000E-03 0.  1.
         12    1    3    3    0    0 -0.66177632283E+01 -0.17429296403E+02  0.78982583251E+01  0.20247410892E+02  0.00000000000E+00 0. -1.
</event>
<event>
 7    1  0.4858022E-009  0.4778728E+02  0.7816164E-02  0.1312668E+00
        -11   -1    0    0    0    0  0.00000000000E+00  0.00000000000E+00  0.45593999997E+02  0.45594000000E+02  0.51100000000E-03 0. -1.
         11   -1    0    0    0    0 -0.00000000000E+00 -0.00000000000E+00 -0.45593999997E+02  0.45594000000E+02  0.51100000000E-03 0.  1.
    9900012    2    1    2    0    0 -0.21680442216E+02 -0.28840595375E+02 -0.24120556784E+02  0.47787276782E+02  0.20000026160E+02 0.  0.
         12    1    1    2    0    0  0.21680442216E+02  0.28840595375E+02  0.24120556784E+02  0.43400723218E+02  0.00000000000E+00 0. -1.
         11    1    3    3    0    0 -0.94777123275E+01 -0.39249840704E+01 -0.12484404523E+02  0.16158368960E+02  0.51100000000E-03 0. -1.
        -11    1    3    3    0    0 -0.10032821920E+02 -0.20367082688E+02 -0.13310855742E+02  0.26318329236E+02  0.51100000000E-03 0.  1.
         12    1    3    3    0    0 -0.21699079687E+01 -0.45485286167E+01  0.16747034809E+01  0.53105785861E+01  0.00000000000E+00 0. -1.
</event>
<event>
 7    1  0.5083947E-009  0.4778727E+02  0.7816164E-02  0.1312668E+00
        -11   -1    0    0    0    0  0.00000000000E+00  0.00000000000E+00  0.45593999997E+02  0.45594000000E+02  0.51100000000E-03 0. -1.
         11   -1    0    0    0    0 -0.00000000000E+00 -0.00000000000E+00 -0.45593999997E+02  0.45594000000E+02  0.51100000000E-03 0.  1.
    9900012    2    1    2    0    0 -0.30744951983E+02  0.96673563486E+01 -0.29067396569E+02  0.47787269655E+02  0.19999993664E+02 0.  0.
         12    1    1    2    0    0  0.30744951983E+02 -0.96673563486E+01  0.29067396569E+02  0.43400730345E+02  0.00000000000E+00 0. -1.
         11    1    3    3    0    0 -0.30893646773E+01 -0.50198227979E+00  0.15092603389E+01  0.34747701147E+01  0.51100000000E-03 0. -1.
        -11    1    3    3    0    0 -0.28073992507E+02  0.11109411257E+02 -0.26709741030E+02  0.40311020080E+02  0.51100000000E-03 0.  1.
        -12    1    3    3    0    0  0.41840520096E+00 -0.94007262887E+00 -0.38669158783E+01  0.40014794601E+01  0.00000000000E+00 0.  1.
</event>
<event>
 7    1  0.4477737E-009  0.4778727E+02  0.7816164E-02  0.1312668E+00
        -11   -1    0    0    0    0  0.00000000000E+00  0.00000000000E+00  0.45593999997E+02  0.45594000000E+02  0.51100000000E-03 0.  1.
         11   -1    0    0    0    0 -0.00000000000E+00 -0.00000000000E+00 -0.45593999997E+02  0.45594000000E+02  0.51100000000E-03 0. -1.
    9900012    2    1    2    0    0 -0.34677508890E+02  0.91610854113E+01  0.24437019966E+02  0.47787273583E+02  0.20000011576E+02 0.  0.
         12    1    1    2    0    0  0.34677508890E+02 -0.91610854113E+01 -0.24437019966E+02  0.43400726417E+02  0.00000000000E+00 0. -1.
         11    1    3    3    0    0 -0.45720745656E+01 -0.10904635765E+01 -0.47201082220E+00  0.47239571466E+01  0.51100000000E-03 0. -1.
        -11    1    3    3    0    0 -0.18787725537E+02  0.75080529601E+01  0.23988531090E+02  0.31381509113E+02  0.51100000000E-03 0.  1.
        -12    1    3    3    0    0 -0.11317708787E+02  0.27434960277E+01  0.92049969726E+00  0.11681807324E+02  0.00000000000E+00 0.  1.
</event>
<event>
 7    1  0.4477737E-009  0.4778727E+02  0.7816164E-02  0.1312668E+00
        -11   -1    0    0    0    0  0.00000000000E+00  0.00000000000E+00  0.45593999997E+02  0.45594000000E+02  0.51100000000E-03 0. -1.
         11   -1    0    0    0    0 -0.00000000000E+00 -0.00000000000E+00 -0.45593999997E+02  0.45594000000E+02  0.51100000000E-03 0.  1.
    9900012    2    1    2    0    0  0.27025348065E+02  0.15311876256E+02  0.30311717658E+02  0.47787271667E+02  0.20000002837E+02 0.  0.
         12    1    1    2    0    0 -0.27025348065E+02 -0.15311876256E+02 -0.30311717658E+02  0.43400728333E+02  0.00000000000E+00 0. -1.
         11    1    3    3    0    0  0.43769346883E+01  0.21291980874E+01  0.10659761306E+02  0.11718427928E+02  0.51100000000E-03 0. -1.
        -11    1    3    3    0    0  0.22694487102E+02  0.15445824707E+02  0.16006253054E+02  0.31777560995E+02  0.51100000000E-03 0.  1.
        -12    1    3    3    0    0 -0.46073725679E-01 -0.22631465387E+01  0.36457032983E+01  0.42912827433E+01  0.00000000000E+00 0.  1.
</event>
<event>
 7    1  0.4477737E-009  0.4778727E+02  0.7816164E-02  0.1312668E+00
        -11   -1    0    0    0    0  0.00000000000E+00  0.00000000000E+00  0.45593999997E+02  0.45594000000E+02  0.51100000000E-03 0.  1.
         11   -1    0    0    0    0 -0.00000000000E+00 -0.00000000000E+00 -0.45593999997E+02  0.45594000000E+02  0.51100000000E-03 0. -1.
    9900012    2    1    2    0    0 -0.17644592382E+00 -0.19772341245E+00  0.43399920054E+02  0.47787270877E+02  0.19999999238E+02 0.  0.
         12    1    1    2    0    0  0.17644592382E+00  0.19772341245E+00 -0.43399920054E+02  0.43400729123E+02  0.00000000000E+00 0. -1.
         11    1    3    3    0    0 -0.42810875291E+01 -0.20394678727E+01  0.34640455621E+01  0.58725421712E+01  0.51100000000E-03 0. -1.
        -11    1    3    3    0    0  0.57892892818E+01 -0.32546256705E+01  0.28757520364E+02  0.29514461479E+02  0.51100000000E-03 0.  1.
         12    1    3    3    0    0 -0.16846476766E+01  0.50963701307E+01  0.11178354128E+02  0.12400267227E+02  0.00000000000E+00 0. -1.
</event>
<event>
 7    1  0.4477737E-009  0.4778727E+02  0.7816164E-02  0.1312668E+00
        -11   -1    0    0    0    0  0.00000000000E+00  0.00000000000E+00  0.45593999997E+02  0.45594000000E+02  0.51100000000E-03 0.  1.
         11   -1    0    0    0    0 -0.00000000000E+00 -0.00000000000E+00 -0.45593999997E+02  0.45594000000E+02  0.51100000000E-03 0. -1.
    9900012    2    1    2    0    0 -0.53308074125E+01  0.38821465014E+02 -0.18657430803E+02  0.47787269849E+02  0.19999994550E+02 0.  0.
         12    1    1    2    0    0  0.53308074125E+01 -0.38821465014E+02  0.18657430803E+02  0.43400730151E+02  0.00000000000E+00 0. -1.
         11    1    3    3    0    0 -0.41671052447E+01  0.32446573758E+02 -0.17546590596E+02  0.37121796246E+02  0.51100000000E-03 0.  1.
        -11    1    3    3    0    0  0.18934565344E+01  0.65952047394E+01  0.10136615568E+01  0.69360949543E+01  0.51100000000E-03 0. -1.
         12    1    3    3    0    0 -0.30571587022E+01 -0.22031348364E+00 -0.21245017638E+01  0.37293786488E+01  0.00000000000E+00 0. -1.
</event>
<event>
 7    1  0.4477737E-009  0.4778727E+02  0.7816164E-02  0.1312668E+00
        -11   -1    0    0    0    0  0.00000000000E+00  0.00000000000E+00  0.45593999997E+02  0.45594000000E+02  0.51100000000E-03 0.  1.
         11   -1    0    0    0    0 -0.00000000000E+00 -0.00000000000E+00 -0.45593999997E+02  0.45594000000E+02  0.51100000000E-03 0. -1.
    9900012    2    1    2    0    0  0.13263977537E+02  0.39690696991E+02  0.11503844657E+02  0.47787274550E+02  0.20000015981E+02 0.  0.
         12    1    1    2    0    0 -0.13263977537E+02 -0.39690696991E+02 -0.11503844657E+02  0.43400725450E+02  0.00000000000E+00 0. -1.
         11    1    3    3    0    0  0.70791390252E+01  0.99997212717E+01  0.11572803969E+02  0.16853439614E+02  0.51100000000E-03 0. -1.
        -11    1    3    3    0    0  0.21207877353E+01  0.10524511416E+02  0.28920118284E+01  0.11118759546E+02  0.51100000000E-03 0.  1.
         12    1    3    3    0    0  0.40640507767E+01  0.19166464303E+02 -0.29609711407E+01  0.19815075390E+02  0.00000000000E+00 0. -1.
</event>
<event>
 7    1  0.4477737E-009  0.4778727E+02  0.7816164E-02  0.1312668E+00
        -11   -1    0    0    0    0  0.00000000000E+00  0.00000000000E+00  0.45593999997E+02  0.45594000000E+02  0.51100000000E-03 0.  1.
         11   -1    0    0    0    0 -0.00000000000E+00 -0.00000000000E+00 -0.45593999997E+02  0.45594000000E+02  0.51100000000E-03 0. -1.
    9900012    2    1    2    0    0  0.14341789667E+02 -0.37164383058E+02  0.17226285222E+02  0.47787271879E+02  0.20000003804E+02 0.  0.
         12    1    1    2    0    0 -0.14341789667E+02  0.37164383058E+02 -0.17226285222E+02  0.43400728121E+02  0.00000000000E+00 0. -1.
         11    1    3    3    0    0  0.87044927543E+01 -0.10244818597E+02  0.56455232137E+01  0.14580687049E+02  0.51100000000E-03 0. -1.
        -11    1    3    3    0    0  0.11468453769E+01 -0.26541980905E+02  0.92334881137E+01  0.28125598797E+02  0.51100000000E-03 0.  1.
        -12    1    3    3    0    0  0.44904515356E+01 -0.37758355582E+00  0.23472738948E+01  0.50809860335E+01  0.00000000000E+00 0.  1.
</event>
<event>
 7    1  0.4477737E-009  0.4778727E+02  0.7816164E-02  0.1312668E+00
        -11   -1    0    0    0    0  0.00000000000E+00  0.00000000000E+00  0.45593999997E+02  0.45594000000E+02  0.51100000000E-03 0.  1.
         11   -1    0    0    0    0 -0.00000000000E+00 -0.00000000000E+00 -0.45593999997E+02  0.45594000000E+02  0.51100000000E-03 0. -1.
    9900012    2    1    2    0    0 -0.11102401898E+01 -0.11938140048E+02  0.41711768693E+02  0.47787268801E+02  0.19999989772E+02 0.  0.
         12    1    1    2    0    0  0.11102401898E+01  0.11938140048E+02 -0.41711768693E+02  0.43400731199E+02  0.00000000000E+00 0. -1.
         11    1    3    3    0    0  0.45828635156E+01 -0.24137179633E+01  0.99835220888E+01  0.11247194582E+02  0.51100000000E-03 0. -1.
        -11    1    3    3    0    0 -0.10118505696E+02 -0.77333237517E+01  0.26835343382E+02  0.29703940959E+02  0.51100000000E-03 0.  1.
        -12    1    3    3    0    0  0.44254019904E+01 -0.17910983334E+01  0.48929032217E+01  0.68361332604E+01  0.00000000000E+00 0.  1.
</event>
<event>
 7    1  0.4477737E-009  0.4778727E+02  0.7816164E-02  0.1312668E+00
        -11   -1    0    0    0    0  0.00000000000E+00  0.00000000000E+00  0.45593999997E+02  0.45594000000E+02  0.51100000000E-03 0. -1.
         11   -1    0    0    0    0 -0.00000000000E+00 -0.00000000000E+00 -0.45593999997E+02  0.45594000000E+02  0.51100000000E-03 0.  1.
    9900012    2    1    2    0    0  0.16009259596E+02  0.46357820589E+01 -0.40072890486E+02  0.47787269361E+02  0.19999992325E+02 0.  0.
         12    1    1    2    0    0 -0.16009259596E+02 -0.46357820589E+01  0.40072890486E+02  0.43400730639E+02  0.00000000000E+00 0. -1.
         11    1    3    3    0    0  0.11666796452E+00  0.20830754069E+01  0.81566342976E+00  0.22401164382E+01  0.51100000000E-03 0. -1.
        -11    1    3    3    0    0  0.12393221570E+02 -0.35626304769E+01 -0.23931656694E+02  0.27184710210E+02  0.51100000000E-03 0.  1.
         12    1    3    3    0    0  0.34993700616E+01  0.61153371289E+01 -0.16956897221E+02  0.18362442713E+02  0.00000000000E+00 0. -1.
</event>
<event>
 7    1  0.4477737E-009  0.4778729E+02  0.7816164E-02  0.1312668E+00
        -11   -1    0    0    0    0  0.00000000000E+00  0.00000000000E+00  0.45593999997E+02  0.45594000000E+02  0.51100000000E-03 0.  1.
         11   -1    0    0    0    0 -0.00000000000E+00 -0.00000000000E+00 -0.45593999997E+02  0.45594000000E+02  0.51100000000E-03 0. -1.
    9900012    2    1    2    0    0  0.30750621401E+02  0.30626929734E+02  0.10976538907E+00  0.47787290445E+02  0.20000088454E+02 0.  0.
         12    1    1    2    0    0 -0.30750621401E+02 -0.30626929734E+02 -0.10976538907E+00  0.43400709555E+02  0.00000000000E+00 0. -1.
         11    1    3    3    0    0  0.21367452620E+02  0.28744005142E+02 -0.28871483212E+01  0.35932179015E+02  0.51100000000E-03 0. -1.
        -11    1    3    3    0    0  0.76529123383E+01  0.64967641914E+00  0.48096716441E+01  0.90621238290E+01  0.51100000000E-03 0.  1.
         12    1    3    3    0    0  0.17302564426E+01  0.12332481725E+01 -0.18127579338E+01  0.27929876009E+01  0.00000000000E+00 0. -1.
</event>
<event>
 7    1  0.4477737E-009  0.4778727E+02  0.7816164E-02  0.1312668E+00
        -11   -1    0    0    0    0  0.00000000000E+00  0.00000000000E+00  0.45593999997E+02  0.45594000000E+02  0.51100000000E-03 0.  1.
         11   -1    0    0    0    0 -0.00000000000E+00 -0.00000000000E+00 -0.45593999997E+02  0.45594000000E+02  0.51100000000E-03 0. -1.
    9900012    2    1    2    0    0 -0.23522439441E+02  0.31067773159E+02  0.19107885632E+02  0.47787274434E+02  0.20000015455E+02 0.  0.
         12    1    1    2    0    0  0.23522439441E+02 -0.31067773159E+02 -0.19107885632E+02  0.43400725566E+02  0.00000000000E+00 0. -1.
         11    1    3    3    0    0  0.23758897388E+01  0.20024881228E+01  0.12898047902E+01  0.33642840829E+01  0.51100000000E-03 0. -1.
        -11    1    3    3    0    0 -0.26210431147E+02  0.24357375136E+02  0.17076288137E+02  0.39646791058E+02  0.51100000000E-03 0.  1.
        -12    1    3    3    0    0  0.31210196718E+00  0.47079099007E+01  0.74179270451E+00  0.47761992931E+01  0.00000000000E+00 0.  1.
</event>
<event>
 7    1  0.4477737E-009  0.4778727E+02  0.7816164E-02  0.1312668E+00
        -11   -1    0    0    0    0  0.00000000000E+00  0.00000000000E+00  0.45593999997E+02  0.45594000000E+02  0.51100000000E-03 0. -1.
         11   -1    0    0    0    0 -0.00000000000E+00 -0.00000000000E+00 -0.45593999997E+02  0.45594000000E+02  0.51100000000E-03 0.  1.
    9900012    2    1    2    0    0 -0.42558726069E+02 -0.31804206031E+01 -0.78906763239E+01  0.47787274054E+02  0.20000013722E+02 0.  0.
         12    1    1    2    0    0  0.42558726069E+02  0.31804206031E+01  0.78906763239E+01  0.43400725946E+02  0.00000000000E+00 0. -1.
         11    1    3    3    0    0  0.71682454344E+00 -0.41138335852E+00 -0.17375666779E+01  0.19241132802E+01  0.51100000000E-03 0. -1.
        -11    1    3    3    0    0 -0.35195138099E+02 -0.15086412523E+01  0.63760659359E+00  0.35233227026E+02  0.51100000000E-03 0.  1.
        -12    1    3    3    0    0 -0.80804125130E+01 -0.12603959923E+01 -0.67907162396E+01  0.10629933748E+02  0.00000000000E+00 0.  1.
</event>
<event>
 7    1  0.4477737E-009  0.4778728E+02  0.7816164E-02  0.1312668E+00
        -11   -1    0    0    0    0  0.00000000000E+00  0.00000000000E+00  0.45593999997E+02  0.45594000000E+02  0.51100000000E-03 0.  1.
         11   -1    0    0    0    0 -0.00000000000E+00 -0.00000000000E+00 -0.45593999997E+02  0.45594000000E+02  0.51100000000E-03 0. -1.
    9900012    2    1    2    0    0 -0.21298667832E+02  0.56714008640E+01  0.37387490416E+02  0.47787280204E+02  0.20000041762E+02 0.  0.
         12    1    1    2    0    0  0.21298667832E+02 -0.56714008640E+01 -0.37387490416E+02  0.43400719796E+02  0.00000000000E+00 0. -1.
         11    1    3    3    0    0  0.30676934261E+01 -0.12585258555E+00  0.64028237480E+01  0.71008967067E+01  0.51100000000E-03 0. -1.
        -11    1    3    3    0    0 -0.23887431202E+02  0.69299460803E+01  0.27963265586E+02  0.37424293509E+02  0.51100000000E-03 0.  1.
        -12    1    3    3    0    0 -0.47893005553E+00 -0.11326926307E+01  0.30214010824E+01  0.32620899887E+01  0.00000000000E+00 0.  1.
</event>
<event>
 7    1  0.4477737E-009  0.4778728E+02  0.7816164E-02  0.1312668E+00
        -11   -1    0    0    0    0  0.00000000000E+00  0.00000000000E+00  0.45593999997E+02  0.45594000000E+02  0.51100000000E-03 0.  1.
         11   -1    0    0    0    0 -0.00000000000E+00 -0.00000000000E+00 -0.45593999997E+02  0.45594000000E+02  0.51100000000E-03 0. -1.
    9900012    2    1    2    0    0  0.11403357233E+02  0.70033932223E+01  0.41286055146E+02  0.47787280855E+02  0.20000044728E+02 0.  0.
         12    1    1    2    0    0 -0.11403357233E+02 -0.70033932223E+01 -0.41286055146E+02  0.43400719145E+02  0.00000000000E+00 0. -1.
         11    1    3    3    0    0  0.23938309615E+01 -0.10479758376E+01  0.30762973233E+01  0.40363703386E+01  0.51100000000E-03 0.  1.
        -11    1    3    3    0    0  0.27807109400E+01 -0.48139636928E+01  0.45572201788E+01  0.71885225037E+01  0.51100000000E-03 0. -1.
        -12    1    3    3    0    0  0.62288153317E+01  0.12865332753E+02  0.33652537644E+02  0.36562388012E+02  0.00000000000E+00 0.  1.
</event>
<event>
 7    1  0.4477737E-009  0.4778725E+02  0.7816164E-02  0.1312668E+00
        -11   -1    0    0    0    0  0.00000000000E+00  0.00000000000E+00  0.45593999997E+02  0.45594000000E+02  0.51100000000E-03 0.  1.
         11   -1    0    0    0    0 -0.00000000000E+00 -0.00000000000E+00 -0.45593999997E+02  0.45594000000E+02  0.51100000000E-03 0. -1.
    9900012    2    1    2    0    0  0.28889260583E+02 -0.18303403329E+02  0.26721175383E+02  0.47787249265E+02  0.19999900700E+02 0.  0.
         12    1    1    2    0    0 -0.28889260583E+02  0.18303403329E+02 -0.26721175383E+02  0.43400750735E+02  0.00000000000E+00 0. -1.
         11    1    3    3    0    0  0.14498862337E+01  0.27409957741E-01 -0.29089732815E+01  0.32503918548E+01  0.51100000000E-03 0. -1.
        -11    1    3    3    0    0  0.90927245645E+01 -0.39776108131E+01  0.97526692632E+01  0.13914509902E+02  0.51100000000E-03 0.  1.
         12    1    3    3    0    0  0.18346649785E+02 -0.14353202474E+02  0.19877479402E+02  0.30622347509E+02  0.00000000000E+00 0. -1.
</event>
<event>
 7    1  0.4477737E-009  0.4778729E+02  0.7816164E-02  0.1312668E+00
        -11   -1    0    0    0    0  0.00000000000E+00  0.00000000000E+00  0.45593999997E+02  0.45594000000E+02  0.51100000000E-03 0.  1.
         11   -1    0    0    0    0 -0.00000000000E+00 -0.00000000000E+00 -0.45593999997E+02  0.45594000000E+02  0.51100000000E-03 0. -1.
    9900012    2    1    2    0    0  0.10352638840E+02 -0.90994703314E+01  0.41153908796E+02  0.47787289171E+02  0.20000082648E+02 0.  0.
         12    1    1    2    0    0 -0.10352638840E+02  0.90994703314E+01 -0.41153908796E+02  0.43400710829E+02  0.00000000000E+00 0. -1.
         11    1    3    3    0    0  0.49348025966E+01  0.28266893147E+01  0.92491207995E+01  0.10857655593E+02  0.51100000000E-03 0. -1.
        -11    1    3    3    0    0  0.39123599870E+01 -0.11696347885E+02  0.32882850398E+02  0.35119694832E+02  0.51100000000E-03 0.  1.
         12    1    3    3    0    0  0.15054762567E+01 -0.22981176151E+00 -0.97806240197E+00  0.18099387469E+01  0.00000000000E+00 0. -1.
</event>
<event>
 7    1  0.4477737E-009  0.4778727E+02  0.7816164E-02  0.1312668E+00
        -11   -1    0    0    0    0  0.00000000000E+00  0.00000000000E+00  0.45593999997E+02  0.45594000000E+02  0.51100000000E-03 0. -1.
         11   -1    0    0    0    0 -0.00000000000E+00 -0.00000000000E+00 -0.45593999997E+02  0.45594000000E+02  0.51100000000E-03 0.  1.
    9900012    2    1    2    0    0 -0.41500987544E+02 -0.10102403407E+02 -0.76962768303E+01  0.47787271910E+02  0.20000003946E+02 0.  0.
         12    1    1    2    0    0  0.41500987544E+02  0.10102403407E+02  0.76962768303E+01  0.43400728090E+02  0.00000000000E+00 0. -1.
         11    1    3    3    0    0 -0.28220718646E+02 -0.10067949679E+02 -0.27806440229E+01  0.30091602701E+02  0.51100000000E-03 0. -1.
        -11    1    3    3    0    0 -0.54379487047E+01  0.52191688836E+01 -0.26353020979E+01  0.79847246264E+01  0.51100000000E-03 0.  1.
         12    1    3    3    0    0 -0.78423201929E+01 -0.52536226113E+01 -0.22803307095E+01  0.97109445831E+01  0.00000000000E+00 0. -1.
</event>
<event>
 7    1  0.4477737E-009  0.4778727E+02  0.7816164E-02  0.1312668E+00
        -11   -1    0    0    0    0  0.00000000000E+00  0.00000000000E+00  0.45593999997E+02  0.45594000000E+02  0.51100000000E-03 0. -1.
         11   -1    0    0    0    0 -0.00000000000E+00 -0.00000000000E+00 -0.45593999997E+02  0.45594000000E+02  0.51100000000E-03 0.  1.
    9900012    2    1    2    0    0  0.93730733917E+01 -0.30423806810E+02 -0.29498485313E+02  0.47787272340E+02  0.20000005909E+02 0.  0.
         12    1    1    2    0    0 -0.93730733917E+01  0.30423806810E+02  0.29498485313E+02  0.43400727660E+02  0.00000000000E+00 0. -1.
         11    1    3    3    0    0  0.50772383474E+01 -0.84587226003E+01 -0.33197567292E+01  0.10409088446E+02  0.51100000000E-03 0. -1.
        -11    1    3    3    0    0  0.64583055678E+01 -0.96949444774E+01 -0.47288461464E+01  0.12572336512E+02  0.51100000000E-03 0.  1.
         12    1    3    3    0    0 -0.21624705235E+01 -0.12270139733E+02 -0.21449882437E+02  0.24805847383E+02  0.00000000000E+00 0. -1.
</event>
<event>
 7    1  0.4477737E-009  0.4778727E+02  0.7816164E-02  0.1312668E+00
        -11   -1    0    0    0    0  0.00000000000E+00  0.00000000000E+00  0.45593999997E+02  0.45594000000E+02  0.51100000000E-03 0. -1.
         11   -1    0    0    0    0 -0.00000000000E+00 -0.00000000000E+00 -0.45593999997E+02  0.45594000000E+02  0.51100000000E-03 0.  1.
    9900012    2    1    2    0    0  0.23424595139E+02 -0.16575039507E+02 -0.32560399013E+02  0.47787272172E+02  0.20000005142E+02 0.  0.
         12    1    1    2    0    0 -0.23424595139E+02  0.16575039507E+02  0.32560399013E+02  0.43400727828E+02  0.00000000000E+00 0. -1.
         11    1    3    3    0    0  0.64948323605E+01 -0.71911453019E+01 -0.15352929113E+01  0.98108380238E+01  0.51100000000E-03 0. -1.
        -11    1    3    3    0    0  0.11518928013E+02 -0.23257180146E+01 -0.23704526741E+02  0.26457499033E+02  0.51100000000E-03 0.  1.
        -12    1    3    3    0    0  0.54108347657E+01 -0.70581761908E+01 -0.73205793612E+01  0.11518935115E+02  0.00000000000E+00 0.  1.
</event>
<event>
 7    1  0.4477737E-009  0.4778727E+02  0.7816164E-02  0.1312668E+00
        -11   -1    0    0    0    0  0.00000000000E+00  0.00000000000E+00  0.45593999997E+02  0.45594000000E+02  0.51100000000E-03 0.  1.
         11   -1    0    0    0    0 -0.00000000000E+00 -0.00000000000E+00 -0.45593999997E+02  0.45594000000E+02  0.51100000000E-03 0. -1.
    9900012    2    1    2    0    0 -0.26970648616E+02  0.58751387002E+01  0.33491643009E+02  0.47787270824E+02  0.19999998995E+02 0.  0.
         12    1    1    2    0    0  0.26970648616E+02 -0.58751387002E+01 -0.33491643009E+02  0.43400729176E+02  0.00000000000E+00 0. -1.
         11    1    3    3    0    0 -0.52370285606E+01  0.24203145169E+01  0.17097532376E+02  0.18044666916E+02  0.51100000000E-03 0. -1.
        -11    1    3    3    0    0 -0.22996230524E+02  0.40013209223E+01  0.14806515215E+02  0.27641817605E+02  0.51100000000E-03 0.  1.
        -12    1    3    3    0    0  0.12626104679E+01 -0.54649673896E+00  0.15875954177E+01  0.21007863027E+01  0.00000000000E+00 0.  1.
</event>
<event>
 7    1  0.4477737E-009  0.4778727E+02  0.7816164E-02  0.1312668E+00
        -11   -1    0    0    0    0  0.00000000000E+00  0.00000000000E+00  0.45593999997E+02  0.45594000000E+02  0.51100000000E-03 0.  1.
         11   -1    0    0    0    0 -0.00000000000E+00 -0.00000000000E+00 -0.45593999997E+02  0.45594000000E+02  0.51100000000E-03 0. -1.
    9900012    2    1    2    0    0  0.13501481803E+02  0.41225636789E+02  0.13342416916E+01  0.47787270278E+02  0.19999996507E+02 0.  0.
         12    1    1    2    0    0 -0.13501481803E+02 -0.41225636789E+02 -0.13342416916E+01  0.43400729722E+02  0.00000000000E+00 0. -1.
         11    1    3    3    0    0  0.18512607599E+01  0.32438726280E+00 -0.73620977863E+00  0.20185139576E+01  0.51100000000E-03 0. -1.
        -11    1    3    3    0    0 -0.19427762641E+01  0.68254469644E+01 -0.46322128636E+01  0.84745797625E+01  0.51100000000E-03 0.  1.
        -12    1    3    3    0    0  0.13592997307E+02  0.34075802561E+02  0.67026643339E+01  0.37294176558E+02  0.00000000000E+00 0.  1.
</event>
<event>
 7    1  0.4477737E-009  0.4778727E+02  0.7816164E-02  0.1312668E+00
        -11   -1    0    0    0    0  0.00000000000E+00  0.00000000000E+00  0.45593999997E+02  0.45594000000E+02  0.51100000000E-03 0. -1.
         11   -1    0    0    0    0 -0.00000000000E+00 -0.00000000000E+00 -0.45593999997E+02  0.45594000000E+02  0.51100000000E-03 0.  1.
    9900012    2    1    2    0    0  0.22189386300E+01  0.33451467156E+01 -0.43214691890E+02  0.47787270855E+02  0.19999999135E+02 0.  0.
         12    1    1    2    0    0 -0.22189386300E+01 -0.33451467156E+01  0.43214691890E+02  0.43400729145E+02  0.00000000000E+00 0. -1.
         11    1    3    3    0    0 -0.71376581531E+01  0.37010468542E+01 -0.11493897805E+02  0.14026888420E+02  0.51100000000E-03 0. -1.
        -11    1    3    3    0    0  0.59732475573E+01 -0.32568601491E+01 -0.22717757208E+02  0.23714622435E+02  0.51100000000E-03 0.  1.
         12    1    3    3    0    0  0.33833492257E+01  0.29009600105E+01 -0.90030368775E+01  0.10045760000E+02  0.00000000000E+00 0. -1.
</event>
<event>
 7    1  0.4477737E-009  0.4778727E+02  0.7816164E-02  0.1312668E+00
        -11   -1    0    0    0    0  0.00000000000E+00  0.00000000000E+00  0.45593999997E+02  0.45594000000E+02  0.51100000000E-03 0.  1.
         11   -1    0    0    0    0 -0.00000000000E+00 -0.00000000000E+00 -0.45593999997E+02  0.45594000000E+02  0.51100000000E-03 0. -1.
    9900012    2    1    2    0    0  0.20104578020E+02  0.19834384796E+01  0.38412174492E+02  0.47787271495E+02  0.20000002053E+02 0.  0.
         12    1    1    2    0    0 -0.20104578020E+02 -0.19834384796E+01 -0.38412174492E+02  0.43400728505E+02  0.00000000000E+00 0. -1.
         11    1    3    3    0    0  0.64946106480E+01  0.96482133458E+01  0.12533282641E+02  0.17098279512E+02  0.51100000000E-03 0. -1.
        -11    1    3    3    0    0  0.99086958253E+01 -0.28330433264E+01  0.17884884700E+02  0.20641644519E+02  0.51100000000E-03 0.  1.
         12    1    3    3    0    0  0.37012715470E+01 -0.48317315399E+01  0.79940071510E+01  0.10047347464E+02  0.00000000000E+00 0. -1.
</event>
<event>
 7    1  0.4477737E-009  0.4778727E+02  0.7816164E-02  0.1312668E+00
        -11   -1    0    0    0    0  0.00000000000E+00  0.00000000000E+00  0.45593999997E+02  0.45594000000E+02  0.51100000000E-03 0.  1.
         11   -1    0    0    0    0 -0.00000000000E+00 -0.00000000000E+00 -0.45593999997E+02  0.45594000000E+02  0.51100000000E-03 0. -1.
    9900012    2    1    2    0    0  0.61150706354E+01  0.23588600823E+01  0.42902970602E+02  0.47787271939E+02  0.20000004079E+02 0.  0.
         12    1    1    2    0    0 -0.61150706354E+01 -0.23588600823E+01 -0.42902970602E+02  0.43400728061E+02  0.00000000000E+00 0. -1.
         11    1    3    3    0    0  0.11756502653E+01  0.86636433591E+01  0.13273712409E+02  0.15894411319E+02  0.51100000000E-03 0. -1.
        -11    1    3    3    0    0  0.51865343733E+01 -0.33698066312E+01  0.27675938172E+02  0.28358654578E+02  0.51100000000E-03 0.  1.
        -12    1    3    3    0    0 -0.24711400316E+00 -0.29349766456E+01  0.19533200206E+01  0.35342060415E+01  0.00000000000E+00 0.  1.
</event>
<event>
 7    1  0.4477737E-009  0.4778727E+02  0.7816164E-02  0.1312668E+00
        -11   -1    0    0    0    0  0.00000000000E+00  0.00000000000E+00  0.45593999997E+02  0.45594000000E+02  0.51100000000E-03 0.  1.
         11   -1    0    0    0    0 -0.00000000000E+00 -0.00000000000E+00 -0.45593999997E+02  0.45594000000E+02  0.51100000000E-03 0. -1.
    9900012    2    1    2    0    0  0.69596883697E+01  0.29299644219E+01  0.42738757346E+02  0.47787270361E+02  0.19999996884E+02 0.  0.
         12    1    1    2    0    0 -0.69596883697E+01 -0.29299644219E+01 -0.42738757346E+02  0.43400729639E+02  0.00000000000E+00 0. -1.
         11    1    3    3    0    0  0.34614401263E+01  0.80093428998E+01  0.87426723865E+01  0.12351739236E+02  0.51100000000E-03 0. -1.
        -11    1    3    3    0    0 -0.13178629454E+01  0.12119815351E+01  0.10175504832E+02  0.10331822726E+02  0.51100000000E-03 0.  1.
         12    1    3    3    0    0  0.48161111888E+01 -0.62913600130E+01  0.23820580127E+02  0.25103708399E+02  0.00000000000E+00 0. -1.
</event>
<event>
 7    1  0.4477737E-009  0.4778727E+02  0.7816164E-02  0.1312668E+00
        -11   -1    0    0    0    0  0.00000000000E+00  0.00000000000E+00  0.45593999997E+02  0.45594000000E+02  0.51100000000E-03 0. -1.
         11   -1    0    0    0    0 -0.00000000000E+00 -0.00000000000E+00 -0.45593999997E+02  0.45594000000E+02  0.51100000000E-03 0.  1.
    9900012    2    1    2    0    0 -0.23598611368E+02 -0.27168164254E+02  0.24261484651E+02  0.47787271378E+02  0.20000001521E+02 0.  0.
         12    1    1    2    0    0  0.23598611368E+02  0.27168164254E+02 -0.24261484651E+02  0.43400728622E+02  0.00000000000E+00 0. -1.
         11    1    3    3    0    0 -0.13377879669E+02 -0.16960922162E+02  0.20700056044E+02  0.29918771123E+02  0.51100000000E-03 0. -1.
        -11    1    3    3    0    0 -0.73572196959E+01 -0.47053923184E+01 -0.26139648229E+01  0.91160414041E+01  0.51100000000E-03 0.  1.
        -12    1    3    3    0    0 -0.28635120035E+01 -0.55018497739E+01  0.61753934293E+01  0.87524588508E+01  0.00000000000E+00 0.  1.
</event>
<event>
 7    1  0.4477737E-009  0.4778727E+02  0.7816164E-02  0.1312668E+00
        -11   -1    0    0    0    0  0.00000000000E+00  0.00000000000E+00  0.45593999997E+02  0.45594000000E+02  0.51100000000E-03 0. -1.
         11   -1    0    0    0    0 -0.00000000000E+00 -0.00000000000E+00 -0.45593999997E+02  0.45594000000E+02  0.51100000000E-03 0.  1.
    9900012    2    1    2    0    0  0.19428103381E+02 -0.36102530707E+02 -0.14240053913E+02  0.47787273510E+02  0.20000011240E+02 0.  0.
         12    1    1    2    0    0 -0.19428103381E+02  0.36102530707E+02  0.14240053913E+02  0.43400726490E+02  0.00000000000E+00 0. -1.
         11    1    3    3    0    0 -0.28217423537E+01 -0.37191884574E+01  0.72642391575E+00  0.47246465115E+01  0.51100000000E-03 0. -1.
        -11    1    3    3    0    0  0.38577942180E+01 -0.52728194875E+01 -0.65214803717E+01  0.92311921265E+01  0.51100000000E-03 0.  1.
         12    1    3    3    0    0  0.18392051517E+02 -0.27110522762E+02 -0.84449974569E+01  0.33831434872E+02  0.00000000000E+00 0. -1.
</event>
<event>
 7    1  0.4477737E-009  0.4778727E+02  0.7816164E-02  0.1312668E+00
        -11   -1    0    0    0    0  0.00000000000E+00  0.00000000000E+00  0.45593999997E+02  0.45594000000E+02  0.51100000000E-03 0.  1.
         11   -1    0    0    0    0 -0.00000000000E+00 -0.00000000000E+00 -0.45593999997E+02  0.45594000000E+02  0.51100000000E-03 0. -1.
    9900012    2    1    2    0    0 -0.15149540955E+01 -0.29029430373E+02  0.32227634641E+02  0.47787270187E+02  0.19999996093E+02 0.  0.
         12    1    1    2    0    0  0.15149540955E+01  0.29029430373E+02 -0.32227634641E+02  0.43400729813E+02  0.00000000000E+00 0. -1.
         11    1    3    3    0    0 -0.63486547606E+01 -0.99215120110E+01  0.18303816461E+02  0.21766293096E+02  0.51100000000E-03 0. -1.
        -11    1    3    3    0    0  0.12708078005E+01 -0.16415117889E+02  0.72479222008E+01  0.17988980635E+02  0.51100000000E-03 0.  1.
        -12    1    3    3    0    0  0.35628928647E+01 -0.26928004729E+01  0.66758959792E+01  0.80319964565E+01  0.00000000000E+00 0.  1.
</event>
<event>
 7    1  0.4477737E-009  0.4778727E+02  0.7816164E-02  0.1312668E+00
        -11   -1    0    0    0    0  0.00000000000E+00  0.00000000000E+00  0.45593999997E+02  0.45594000000E+02  0.51100000000E-03 0.  1.
         11   -1    0    0    0    0 -0.00000000000E+00 -0.00000000000E+00 -0.45593999997E+02  0.45594000000E+02  0.51100000000E-03 0. -1.
    9900012    2    1    2    0    0 -0.29532419695E+01  0.14772625924E+02  0.40702227273E+02  0.47787269363E+02  0.19999992335E+02 0.  0.
         12    1    1    2    0    0  0.29532419695E+01 -0.14772625924E+02 -0.40702227273E+02  0.43400730637E+02  0.00000000000E+00 0. -1.
         11    1    3    3    0    0 -0.80918963166E+01  0.55072279525E+01  0.64490120459E+01  0.11721693664E+02  0.51100000000E-03 0. -1.
        -11    1    3    3    0    0  0.28723906067E+01  0.45553490620E+01  0.23502002367E+02  0.24111116698E+02  0.51100000000E-03 0.  1.
         12    1    3    3    0    0  0.22662637405E+01  0.47100489100E+01  0.10751212859E+02  0.11954459002E+02  0.00000000000E+00 0. -1.
</event>
<event>
 7    1  0.4477737E-009  0.4778728E+02  0.7816164E-02  0.1312668E+00
        -11   -1    0    0    0    0  0.00000000000E+00  0.00000000000E+00  0.45593999997E+02  0.45594000000E+02  0.51100000000E-03 0.  1.
         11   -1    0    0    0    0 -0.00000000000E+00 -0.00000000000E+00 -0.45593999997E+02  0.45594000000E+02  0.51100000000E-03 0. -1.
    9900012    2    1    2    0    0 -0.11286077571E+02 -0.12749010294E+01  0.41888207258E+02  0.47787276195E+02  0.20000023482E+02 0.  0.
         12    1    1    2    0    0  0.11286077571E+02  0.12749010294E+01 -0.41888207258E+02  0.43400723805E+02  0.00000000000E+00 0. -1.
         11    1    3    3    0    0 -0.47394639107E+01  0.97390299161E+00  0.37122723418E+02  0.37436714592E+02  0.51100000000E-03 0. -1.
        -11    1    3    3    0    0 -0.12750786317E+01  0.15550420920E+01  0.30049203970E+01  0.36157334357E+01  0.51100000000E-03 0.  1.
         12    1    3    3    0    0 -0.52715350285E+01 -0.38038461130E+01  0.17605634428E+01  0.67348281674E+01  0.00000000000E+00 0. -1.
</event>
<event>
 7    1  0.4477737E-009  0.4778727E+02  0.7816164E-02  0.1312668E+00
        -11   -1    0    0    0    0  0.00000000000E+00  0.00000000000E+00  0.45593999997E+02  0.45594000000E+02  0.51100000000E-03 0.  1.
         11   -1    0    0    0    0 -0.00000000000E+00 -0.00000000000E+00 -0.45593999997E+02  0.45594000000E+02  0.51100000000E-03 0. -1.
    9900012    2    1    2    0    0  0.33456365953E+02 -0.18227030688E+02 -0.20786294592E+02  0.47787272894E+02  0.20000008432E+02 0.  0.
         12    1    1    2    0    0 -0.33456365953E+02  0.18227030688E+02  0.20786294592E+02  0.43400727106E+02  0.00000000000E+00 0. -1.
         11    1    3    3    0    0  0.12131620536E+02 -0.64011783111E+01 -0.17668566823E+02  0.22368047622E+02  0.51100000000E-03 0. -1.
        -11    1    3    3    0    0  0.12709359841E+02 -0.10482017395E+02 -0.14143173415E+01  0.16534836257E+02  0.51100000000E-03 0.  1.
         12    1    3    3    0    0  0.86153855760E+01 -0.13438349822E+01 -0.17034104284E+01  0.88843890151E+01  0.00000000000E+00 0. -1.
</event>
<event>
 7    1  0.4477737E-009  0.4778727E+02  0.7816164E-02  0.1312668E+00
        -11   -1    0    0    0    0  0.00000000000E+00  0.00000000000E+00  0.45593999997E+02  0.45594000000E+02  0.51100000000E-03 0. -1.
         11   -1    0    0    0    0 -0.00000000000E+00 -0.00000000000E+00 -0.45593999997E+02  0.45594000000E+02  0.51100000000E-03 0.  1.
    9900012    2    1    2    0    0  0.93383700697E+01 -0.41710720310E+02  0.75255537087E+01  0.47787270709E+02  0.19999998472E+02 0.  0.
         12    1    1    2    0    0 -0.93383700697E+01  0.41710720310E+02 -0.75255537087E+01  0.43400729291E+02  0.00000000000E+00 0. -1.
         11    1    3    3    0    0  0.50296511526E+01 -0.21676324728E+02  0.12695819494E+02  0.25619216953E+02  0.51100000000E-03 0. -1.
        -11    1    3    3    0    0  0.30092943036E+01 -0.35557723029E+01 -0.28895281008E+01  0.54816732648E+01  0.51100000000E-03 0.  1.
         12    1    3    3    0    0  0.12994246135E+01 -0.16478623280E+02 -0.22807376842E+01  0.16686380491E+02  0.00000000000E+00 0. -1.
</event>
<event>
 7    1  0.4477737E-009  0.4778727E+02  0.7816164E-02  0.1312668E+00
        -11   -1    0    0    0    0  0.00000000000E+00  0.00000000000E+00  0.45593999997E+02  0.45594000000E+02  0.51100000000E-03 0.  1.
         11   -1    0    0    0    0 -0.00000000000E+00 -0.00000000000E+00 -0.45593999997E+02  0.45594000000E+02  0.51100000000E-03 0. -1.
    9900012    2    1    2    0    0  0.10805650944E+02  0.24324217881E+02  0.34281096352E+02  0.47787271493E+02  0.20000002044E+02 0.  0.
         12    1    1    2    0    0 -0.10805650944E+02 -0.24324217881E+02 -0.34281096352E+02  0.43400728507E+02  0.00000000000E+00 0. -1.
         11    1    3    3    0    0  0.39543207465E+01  0.85727620123E+01  0.13413908915E+02  0.16403105003E+02  0.51100000000E-03 0.  1.
        -11    1    3    3    0    0  0.91500885554E+01  0.65622107608E+01  0.38349588850E+01  0.11895109943E+02  0.51100000000E-03 0. -1.
        -12    1    3    3    0    0 -0.22987583580E+01  0.91892451079E+01  0.17032228552E+02  0.19489056547E+02  0.00000000000E+00 0.  1.
</event>
<event>
 7    1  0.4477737E-009  0.4778727E+02  0.7816164E-02  0.1312668E+00
        -11   -1    0    0    0    0  0.00000000000E+00  0.00000000000E+00  0.45593999997E+02  0.45594000000E+02  0.51100000000E-03 0. -1.
         11   -1    0    0    0    0 -0.00000000000E+00 -0.00000000000E+00 -0.45593999997E+02  0.45594000000E+02  0.51100000000E-03 0.  1.
    9900012    2    1    2    0    0 -0.14015269906E+02 -0.40594989035E+02  0.62643696447E+01  0.47787271293E+02  0.20000001131E+02 0.  0.
         12    1    1    2    0    0  0.14015269906E+02  0.40594989035E+02 -0.62643696447E+01  0.43400728707E+02  0.00000000000E+00 0. -1.
         11    1    3    3    0    0  0.13956037613E+01 -0.84954794829E+00  0.25236632273E+00  0.16532182544E+01  0.51100000000E-03 0. -1.
        -11    1    3    3    0    0 -0.11142219398E+02 -0.11168335660E+02 -0.25888545282E+01  0.15986961643E+02  0.51100000000E-03 0.  1.
        -12    1    3    3    0    0 -0.42686542684E+01 -0.28577105427E+02  0.86008578502E+01  0.30147091395E+02  0.00000000000E+00 0.  1.
</event>
<event>
 7    1  0.4477737E-009  0.4778727E+02  0.7816164E-02  0.1312668E+00
        -11   -1    0    0    0    0  0.00000000000E+00  0.00000000000E+00  0.45593999997E+02  0.45594000000E+02  0.51100000000E-03 0.  1.
         11   -1    0    0    0    0 -0.00000000000E+00 -0.00000000000E+00 -0.45593999997E+02  0.45594000000E+02  0.51100000000E-03 0. -1.
    9900012    2    1    2    0    0 -0.32479773168E+02 -0.22273300793E+02  0.18236980476E+02  0.47787273622E+02  0.20000011752E+02 0.  0.
         12    1    1    2    0    0  0.32479773168E+02  0.22273300793E+02 -0.18236980476E+02  0.43400726378E+02  0.00000000000E+00 0. -1.
         11    1    3    3    0    0 -0.15043702668E+02 -0.20415882058E+02  0.73889204383E+01  0.26414340341E+02  0.51100000000E-03 0. -1.
        -11    1    3    3    0    0 -0.11924149029E+02 -0.23468015600E+01  0.45188986217E+01  0.12965849476E+02  0.51100000000E-03 0.  1.
         12    1    3    3    0    0 -0.55119214716E+01  0.48938282544E+00  0.63291614160E+01  0.84070838041E+01  0.00000000000E+00 0. -1.
</event>
<event>
 7    1  0.4477737E-009  0.4778727E+02  0.7816164E-02  0.1312668E+00
        -11   -1    0    0    0    0  0.00000000000E+00  0.00000000000E+00  0.45593999997E+02  0.45594000000E+02  0.51100000000E-03 0.  1.
         11   -1    0    0    0    0 -0.00000000000E+00 -0.00000000000E+00 -0.45593999997E+02  0.45594000000E+02  0.51100000000E-03 0. -1.
    9900012    2    1    2    0    0  0.36894691653E+02 -0.22806822020E+02  0.15012722617E+01  0.47787271651E+02  0.20000002765E+02 0.  0.
         12    1    1    2    0    0 -0.36894691653E+02  0.22806822020E+02 -0.15012722617E+01  0.43400728349E+02  0.00000000000E+00 0. -1.
         11    1    3    3    0    0  0.18868590115E+02 -0.16430619352E+02  0.44095037189E+01  0.25405366924E+02  0.51100000000E-03 0. -1.
        -11    1    3    3    0    0  0.18164002049E+02 -0.26415100703E+01 -0.16097662219E+01  0.18425522881E+02  0.51100000000E-03 0.  1.
         12    1    3    3    0    0 -0.13790051043E+00 -0.37346925977E+01 -0.12984652353E+01  0.39563818467E+01  0.00000000000E+00 0. -1.
</event>
<event>
 7    1  0.4477737E-009  0.4778726E+02  0.7816164E-02  0.1312668E+00
        -11   -1    0    0    0    0  0.00000000000E+00  0.00000000000E+00  0.45593999997E+02  0.45594000000E+02  0.51100000000E-03 0.  1.
         11   -1    0    0    0    0 -0.00000000000E+00 -0.00000000000E+00 -0.45593999997E+02  0.45594000000E+02  0.51100000000E-03 0. -1.
    9900012    2    1    2    0    0  0.64124878004E+01  0.42536612331E+02  0.57568062927E+01  0.47787260293E+02  0.19999950980E+02 0.  0.
         12    1    1    2    0    0 -0.64124878004E+01 -0.42536612331E+02 -0.57568062927E+01  0.43400739707E+02  0.00000000000E+00 0. -1.
         11    1    3    3    0    0  0.10595758385E+01  0.67475215395E+00  0.51640976767E+01  0.53146868677E+01  0.51100000000E-03 0. -1.
        -11    1    3    3    0    0  0.58509787390E+01  0.29749617720E+02  0.11001369758E+01  0.30339479368E+02  0.51100000000E-03 0.  1.
         12    1    3    3    0    0 -0.49806677713E+00  0.12112242457E+02 -0.50742835975E+00  0.12133094057E+02  0.00000000000E+00 0. -1.
</event>
<event>
 7    1  0.4477737E-009  0.4778727E+02  0.7816164E-02  0.1312668E+00
        -11   -1    0    0    0    0  0.00000000000E+00  0.00000000000E+00  0.45593999997E+02  0.45594000000E+02  0.51100000000E-03 0.  1.
         11   -1    0    0    0    0 -0.00000000000E+00 -0.00000000000E+00 -0.45593999997E+02  0.45594000000E+02  0.51100000000E-03 0. -1.
    9900012    2    1    2    0    0  0.99341633080E+00 -0.35973454515E+01  0.43239974456E+02  0.47787272342E+02  0.20000005914E+02 0.  0.
         12    1    1    2    0    0 -0.99341633080E+00  0.35973454515E+01 -0.43239974456E+02  0.43400727658E+02  0.00000000000E+00 0. -1.
         11    1    3    3    0    0 -0.87235889969E+00 -0.86092118923E+00 -0.12507783006E+01  0.17511830180E+01  0.51100000000E-03 0. -1.
        -11    1    3    3    0    0  0.21539508361E+00  0.11472688404E+01  0.39428172760E+02  0.39445448765E+02  0.51100000000E-03 0.  1.
        -12    1    3    3    0    0  0.16503801469E+01 -0.38836931027E+01  0.50625799969E+01  0.65906405584E+01  0.00000000000E+00 0.  1.
</event>
<event>
 7    1  0.4477737E-009  0.4778727E+02  0.7816164E-02  0.1312668E+00
        -11   -1    0    0    0    0  0.00000000000E+00  0.00000000000E+00  0.45593999997E+02  0.45594000000E+02  0.51100000000E-03 0. -1.
         11   -1    0    0    0    0 -0.00000000000E+00 -0.00000000000E+00 -0.45593999997E+02  0.45594000000E+02  0.51100000000E-03 0.  1.
    9900012    2    1    2    0    0  0.58215610433E+01  0.39769023306E+02 -0.16375517071E+02  0.47787270202E+02  0.19999996157E+02 0.  0.
         12    1    1    2    0    0 -0.58215610433E+01 -0.39769023306E+02  0.16375517071E+02  0.43400729798E+02  0.00000000000E+00 0. -1.
         11    1    3    3    0    0  0.56856456154E+01  0.61886568188E+01 -0.93007011875E+01  0.12535113965E+02  0.51100000000E-03 0. -1.
        -11    1    3    3    0    0 -0.21614833599E+01  0.31006611140E+02 -0.62256413678E+01  0.31699220108E+02  0.51100000000E-03 0.  1.
        -12    1    3    3    0    0  0.22973987878E+01  0.25737553469E+01 -0.84917451562E+00  0.35529361286E+01  0.00000000000E+00 0.  1.
</event>
<event>
 7    1  0.4477737E-009  0.4778726E+02  0.7816164E-02  0.1312668E+00
        -11   -1    0    0    0    0  0.00000000000E+00  0.00000000000E+00  0.45593999997E+02  0.45594000000E+02  0.51100000000E-03 0.  1.
         11   -1    0    0    0    0 -0.00000000000E+00 -0.00000000000E+00 -0.45593999997E+02  0.45594000000E+02  0.51100000000E-03 0. -1.
    9900012    2    1    2    0    0 -0.14733569557E+02 -0.11470821510E+02  0.39178644634E+02  0.47787262525E+02  0.19999961157E+02 0.  0.
         12    1    1    2    0    0  0.14733569557E+02  0.11470821510E+02 -0.39178644634E+02  0.43400737475E+02  0.00000000000E+00 0. -1.
         11    1    3    3    0    0 -0.50179747556E+01 -0.84979327822E+01  0.11156180296E+02  0.14894807527E+02  0.51100000000E-03 0. -1.
        -11    1    3    3    0    0 -0.19032853029E+01  0.40936638880E+01  0.22372281108E+01  0.50384292049E+01  0.51100000000E-03 0.  1.
        -12    1    3    3    0    0 -0.78123094986E+01 -0.70665526155E+01  0.25785236227E+02  0.27854025793E+02  0.00000000000E+00 0.  1.
</event>
<event>
 7    1  0.4477737E-009  0.4778727E+02  0.7816164E-02  0.1312668E+00
        -11   -1    0    0    0    0  0.00000000000E+00  0.00000000000E+00  0.45593999997E+02  0.45594000000E+02  0.51100000000E-03 0. -1.
         11   -1    0    0    0    0 -0.00000000000E+00 -0.00000000000E+00 -0.45593999997E+02  0.45594000000E+02  0.51100000000E-03 0.  1.
    9900012    2    1    2    0    0 -0.48295501198E+00  0.38154822448E+02 -0.20678488833E+02  0.47787267034E+02  0.19999981714E+02 0.  0.
         12    1    1    2    0    0  0.48295501198E+00 -0.38154822448E+02  0.20678488833E+02  0.43400732966E+02  0.00000000000E+00 0. -1.
         11    1    3    3    0    0 -0.55932863220E+01  0.10389636614E+02  0.14313669952E+01  0.11886051177E+02  0.51100000000E-03 0. -1.
        -11    1    3    3    0    0  0.44366421325E+01  0.20313193723E+02 -0.16691399939E+02  0.26662941788E+02  0.51100000000E-03 0.  1.
         12    1    3    3    0    0  0.67368917752E+00  0.74519921114E+01 -0.54184558897E+01  0.92382740684E+01  0.00000000000E+00 0. -1.
</event>
<event>
 7    1  0.4477737E-009  0.4778727E+02  0.7816164E-02  0.1312668E+00
        -11   -1    0    0    0    0  0.00000000000E+00  0.00000000000E+00  0.45593999997E+02  0.45594000000E+02  0.51100000000E-03 0. -1.
         11   -1    0    0    0    0 -0.00000000000E+00 -0.00000000000E+00 -0.45593999997E+02  0.45594000000E+02  0.51100000000E-03 0.  1.
    9900012    2    1    2    0    0 -0.15542273794E+02 -0.34559534071E+02  0.21158911654E+02  0.47787271754E+02  0.20000003237E+02 0.  0.
         12    1    1    2    0    0  0.15542273794E+02  0.34559534071E+02 -0.21158911654E+02  0.43400728246E+02  0.00000000000E+00 0. -1.
         11    1    3    3    0    0  0.20234962613E+01 -0.13341990352E+01  0.25309625307E+01  0.35043395637E+01  0.51100000000E-03 0. -1.
        -11    1    3    3    0    0 -0.17759448864E+02 -0.26006355771E+02  0.19451232384E+02  0.37014578290E+02  0.51100000000E-03 0.  1.
        -12    1    3    3    0    0  0.19367880851E+00 -0.72189792643E+01 -0.82328326088E+00  0.72683539008E+01  0.00000000000E+00 0.  1.
</event>
<event>
 7    1  0.4477737E-009  0.4778728E+02  0.7816164E-02  0.1312668E+00
        -11   -1    0    0    0    0  0.00000000000E+00  0.00000000000E+00  0.45593999997E+02  0.45594000000E+02  0.51100000000E-03 0.  1.
         11   -1    0    0    0    0 -0.00000000000E+00 -0.00000000000E+00 -0.45593999997E+02  0.45594000000E+02  0.51100000000E-03 0. -1.
    9900012    2    1    2    0    0  0.40559078614E+02  0.13480508411E+02  0.75405495786E+01  0.47787275894E+02  0.20000022109E+02 0.  0.
         12    1    1    2    0    0 -0.40559078614E+02 -0.13480508411E+02 -0.75405495786E+01  0.43400724106E+02  0.00000000000E+00 0. -1.
         11    1    3    3    0    0  0.58515178315E+01 -0.27184552987E+00  0.66630885699E+01  0.88719169560E+01  0.51100000000E-03 0. -1.
        -11    1    3    3    0    0  0.17760222619E+02  0.41730557545E+01  0.52070331054E+01  0.18972429887E+02  0.51100000000E-03 0.  1.
         12    1    3    3    0    0  0.16947338163E+02  0.95792981865E+01 -0.43295720966E+01  0.19942929050E+02  0.00000000000E+00 0. -1.
</event>
<event>
 7    1  0.4477737E-009  0.4778727E+02  0.7816164E-02  0.1312668E+00
        -11   -1    0    0    0    0  0.00000000000E+00  0.00000000000E+00  0.45593999997E+02  0.45594000000E+02  0.51100000000E-03 0.  1.
         11   -1    0    0    0    0 -0.00000000000E+00 -0.00000000000E+00 -0.45593999997E+02  0.45594000000E+02  0.51100000000E-03 0. -1.
    9900012    2    1    2    0    0 -0.28037731335E+01  0.12695843186E+02  0.41407457048E+02  0.47787273311E+02  0.20000010334E+02 0.  0.
         12    1    1    2    0    0  0.28037731335E+01 -0.12695843186E+02 -0.41407457048E+02  0.43400726689E+02  0.00000000000E+00 0. -1.
         11    1    3    3    0    0 -0.19208581891E+01  0.41961127164E+01  0.54639285126E+01  0.71520327994E+01  0.51100000000E-03 0. -1.
        -11    1    3    3    0    0 -0.44854557304E+00 -0.93481855801E+00 -0.16085097177E+01  0.19137352588E+01  0.51100000000E-03 0.  1.
        -12    1    3    3    0    0 -0.43436937140E+00  0.94345490272E+01  0.37552038253E+02  0.38721505253E+02  0.00000000000E+00 0.  1.
</event>
<event>
 7    1  0.4477737E-009  0.4778727E+02  0.7816164E-02  0.1312668E+00
        -11   -1    0    0    0    0  0.00000000000E+00  0.00000000000E+00  0.45593999997E+02  0.45594000000E+02  0.51100000000E-03 0.  1.
         11   -1    0    0    0    0 -0.00000000000E+00 -0.00000000000E+00 -0.45593999997E+02  0.45594000000E+02  0.51100000000E-03 0. -1.
    9900012    2    1    2    0    0 -0.23446991645E+02  0.33282262880E+02  0.15038380999E+02  0.47787270252E+02  0.19999996387E+02 0.  0.
         12    1    1    2    0    0  0.23446991645E+02 -0.33282262880E+02 -0.15038380999E+02  0.43400729748E+02  0.00000000000E+00 0. -1.
         11    1    3    3    0    0 -0.79521869215E+01  0.67088269326E+01 -0.38367263777E+01  0.11089008306E+02  0.51100000000E-03 0. -1.
        -11    1    3    3    0    0 -0.65514778561E+01  0.62229056512E+01  0.35985475774E+01  0.97260455361E+01  0.51100000000E-03 0.  1.
         12    1    3    3    0    0 -0.89433268672E+01  0.20350530296E+02  0.15276559799E+02  0.26972216410E+02  0.00000000000E+00 0. -1.
</event>
<event>
 7    1  0.4477737E-009  0.4778727E+02  0.7816164E-02  0.1312668E+00
        -11   -1    0    0    0    0  0.00000000000E+00  0.00000000000E+00  0.45593999997E+02  0.45594000000E+02  0.51100000000E-03 0. -1.
         11   -1    0    0    0    0 -0.00000000000E+00 -0.00000000000E+00 -0.45593999997E+02  0.45594000000E+02  0.51100000000E-03 0.  1.
    9900012    2    1    2    0    0 -0.33880126687E+02  0.77684363508E+01 -0.25988691520E+02  0.47787266428E+02  0.19999978952E+02 0.  0.
         12    1    1    2    0    0  0.33880126687E+02 -0.77684363508E+01  0.25988691520E+02  0.43400733572E+02  0.00000000000E+00 0. -1.
         11    1    3    3    0    0 -0.22233422209E+01  0.55289847304E+01 -0.46872211034E-01  0.59594563549E+01  0.51100000000E-03 0. -1.
        -11    1    3    3    0    0 -0.26832096952E+02  0.48217834269E+01 -0.22636446979E+02  0.35434725261E+02  0.51100000000E-03 0.  1.
        -12    1    3    3    0    0 -0.48246875143E+01 -0.25823318066E+01 -0.33053723302E+01  0.63930848119E+01  0.00000000000E+00 0.  1.
</event>
<event>
 7    1  0.4477737E-009  0.4778726E+02  0.7816164E-02  0.1312668E+00
        -11   -1    0    0    0    0  0.00000000000E+00  0.00000000000E+00  0.45593999997E+02  0.45594000000E+02  0.51100000000E-03 0. -1.
         11   -1    0    0    0    0 -0.00000000000E+00 -0.00000000000E+00 -0.45593999997E+02  0.45594000000E+02  0.51100000000E-03 0.  1.
    9900012    2    1    2    0    0 -0.26586738730E+02  0.24657527812E+01 -0.34215339389E+02  0.47787261958E+02  0.19999958571E+02 0.  0.
         12    1    1    2    0    0  0.26586738730E+02 -0.24657527812E+01  0.34215339389E+02  0.43400738042E+02  0.00000000000E+00 0. -1.
         11    1    3    3    0    0 -0.33162958625E+01  0.95230878883E+00  0.66359392759E+00  0.35135548151E+01  0.51100000000E-03 0. -1.
        -11    1    3    3    0    0 -0.19043878105E+01 -0.15716636059E+01  0.77991786359E+00  0.25894191545E+01  0.51100000000E-03 0.  1.
        -12    1    3    3    0    0 -0.21366055057E+02  0.30851075983E+01 -0.35658851180E+02  0.41684287988E+02  0.00000000000E+00 0.  1.
</event>
<event>
 7    1  0.4622520E-009  0.4778727E+02  0.7816164E-02  0.1312668E+00
        -11   -1    0    0    0    0  0.00000000000E+00  0.00000000000E+00  0.45593999997E+02  0.45594000000E+02  0.51100000000E-03 0. -1.
         11   -1    0    0    0    0 -0.00000000000E+00 -0.00000000000E+00 -0.45593999997E+02  0.45594000000E+02  0.51100000000E-03 0.  1.
    9900012    2    1    2    0    0  0.32059029927E+02  0.22773258868E+02 -0.18363571610E+02  0.47787268651E+02  0.19999989089E+02 0.  0.
         12    1    1    2    0    0 -0.32059029927E+02 -0.22773258868E+02  0.18363571610E+02  0.43400731349E+02  0.00000000000E+00 0. -1.
         11    1    3    3    0    0  0.27405997787E+01 -0.26666661280E+01 -0.26627116136E+01  0.46596168065E+01  0.51100000000E-03 0. -1.
        -11    1    3    3    0    0  0.20680302010E+02  0.21450519346E+02 -0.15554558964E+02  0.33611664289E+02  0.51100000000E-03 0.  1.
        -12    1    3    3    0    0  0.86381281384E+01  0.39894056495E+01 -0.14630103261E+00  0.95159875559E+01  0.00000000000E+00 0.  1.
</event>
<event>
 7    1  0.4477737E-009  0.4778727E+02  0.7816164E-02  0.1312668E+00
        -11   -1    0    0    0    0  0.00000000000E+00  0.00000000000E+00  0.45593999997E+02  0.45594000000E+02  0.51100000000E-03 0.  1.
         11   -1    0    0    0    0 -0.00000000000E+00 -0.00000000000E+00 -0.45593999997E+02  0.45594000000E+02  0.51100000000E-03 0. -1.
    9900012    2    1    2    0    0 -0.28502197931E+02  0.16336275317E+02  0.28361490403E+02  0.47787270559E+02  0.19999997789E+02 0.  0.
         12    1    1    2    0    0  0.28502197931E+02 -0.16336275317E+02 -0.28361490403E+02  0.43400729441E+02  0.00000000000E+00 0. -1.
         11    1    3    3    0    0  0.13826985779E+01  0.19677859725E+01  0.19149301605E+00  0.24126141066E+01  0.51100000000E-03 0. -1.
        -11    1    3    3    0    0 -0.27926239425E+02  0.12492054695E+02  0.29369658007E+02  0.42408761955E+02  0.51100000000E-03 0.  1.
         12    1    3    3    0    0 -0.19586570837E+01  0.18764346497E+01 -0.11996606201E+01  0.29658944974E+01  0.00000000000E+00 0. -1.
</event>
<event>
 7    1  0.4477737E-009  0.4778727E+02  0.7816164E-02  0.1312668E+00
        -11   -1    0    0    0    0  0.00000000000E+00  0.00000000000E+00  0.45593999997E+02  0.45594000000E+02  0.51100000000E-03 0.  1.
         11   -1    0    0    0    0 -0.00000000000E+00 -0.00000000000E+00 -0.45593999997E+02  0.45594000000E+02  0.51100000000E-03 0. -1.
    9900012    2    1    2    0    0 -0.63528572073E+01 -0.28107636922E+00  0.42932337339E+02  0.47787269729E+02  0.19999994003E+02 0.  0.
         12    1    1    2    0    0  0.63528572073E+01  0.28107636922E+00 -0.42932337339E+02  0.43400730271E+02  0.00000000000E+00 0. -1.
         11    1    3    3    0    0 -0.16697155677E+01 -0.17157822535E+00 -0.25656943911E+00  0.16980039171E+01  0.51100000000E-03 0. -1.
        -11    1    3    3    0    0  0.37684608681E+01  0.49652663178E+01  0.16785021588E+02  0.17905086342E+02  0.51100000000E-03 0.  1.
        -12    1    3    3    0    0 -0.84516025077E+01 -0.50747644617E+01  0.26403885190E+02  0.28184179471E+02  0.00000000000E+00 0.  1.
</event>
<event>
 7    1  0.4477737E-009  0.4778727E+02  0.7816164E-02  0.1312668E+00
        -11   -1    0    0    0    0  0.00000000000E+00  0.00000000000E+00  0.45593999997E+02  0.45594000000E+02  0.51100000000E-03 0.  1.
         11   -1    0    0    0    0 -0.00000000000E+00 -0.00000000000E+00 -0.45593999997E+02  0.45594000000E+02  0.51100000000E-03 0. -1.
    9900012    2    1    2    0    0 -0.69603636411E+01  0.34180878364E+02  0.25823324053E+02  0.47787272207E+02  0.20000005302E+02 0.  0.
         12    1    1    2    0    0  0.69603636411E+01 -0.34180878364E+02 -0.25823324053E+02  0.43400727793E+02  0.00000000000E+00 0. -1.
         11    1    3    3    0    0 -0.96204908979E+01  0.70851860370E+01  0.68898887780E+01  0.13792181623E+02  0.51100000000E-03 0. -1.
        -11    1    3    3    0    0  0.71797517198E+00  0.20850525768E+02  0.17656263622E+02  0.27331365837E+02  0.51100000000E-03 0.  1.
         12    1    3    3    0    0  0.19421520849E+01  0.62451665589E+01  0.12771716529E+01  0.66637247467E+01  0.00000000000E+00 0. -1.
</event>
<event>
 7    1  0.4477737E-009  0.4778727E+02  0.7816164E-02  0.1312668E+00
        -11   -1    0    0    0    0  0.00000000000E+00  0.00000000000E+00  0.45593999997E+02  0.45594000000E+02  0.51100000000E-03 0.  1.
         11   -1    0    0    0    0 -0.00000000000E+00 -0.00000000000E+00 -0.45593999997E+02  0.45594000000E+02  0.51100000000E-03 0. -1.
    9900012    2    1    2    0    0 -0.39043469194E+02  0.18930301701E+02  0.93496354284E+00  0.47787274591E+02  0.20000016170E+02 0.  0.
         12    1    1    2    0    0  0.39043469194E+02 -0.18930301701E+02 -0.93496354284E+00  0.43400725409E+02  0.00000000000E+00 0. -1.
         11    1    3    3    0    0 -0.78970138319E+01  0.95992567858E+01 -0.56862335087E+00  0.12443146350E+02  0.51100000000E-03 0. -1.
        -11    1    3    3    0    0 -0.22348939837E+02 -0.18052164945E+00  0.12695233538E+01  0.22385696096E+02  0.51100000000E-03 0.  1.
        -12    1    3    3    0    0 -0.87975155256E+01  0.95115665643E+01  0.23406353992E+00  0.12958432146E+02  0.00000000000E+00 0.  1.
</event>
<event>
 7    1  0.4477737E-009  0.4778727E+02  0.7816164E-02  0.1312668E+00
        -11   -1    0    0    0    0  0.00000000000E+00  0.00000000000E+00  0.45593999997E+02  0.45594000000E+02  0.51100000000E-03 0.  1.
         11   -1    0    0    0    0 -0.00000000000E+00 -0.00000000000E+00 -0.45593999997E+02  0.45594000000E+02  0.51100000000E-03 0. -1.
    9900012    2    1    2    0    0 -0.43137971467E+01  0.23259834589E+02  0.36386735860E+02  0.47787270772E+02  0.19999998758E+02 0.  0.
         12    1    1    2    0    0  0.43137971467E+01 -0.23259834589E+02 -0.36386735860E+02  0.43400729228E+02  0.00000000000E+00 0. -1.
         11    1    3    3    0    0  0.18107004931E+01  0.36757503840E+01  0.21660241121E+02  0.22044405704E+02  0.51100000000E-03 0. -1.
        -11    1    3    3    0    0 -0.90206894159E+00  0.46731410620E+00  0.18471542103E+01  0.21081009907E+01  0.51100000000E-03 0.  1.
         12    1    3    3    0    0 -0.52224286982E+01  0.19116770099E+02  0.12879340529E+02  0.23634764077E+02  0.00000000000E+00 0. -1.
</event>
<event>
 7    1  0.4477737E-009  0.4778727E+02  0.7816164E-02  0.1312668E+00
        -11   -1    0    0    0    0  0.00000000000E+00  0.00000000000E+00  0.45593999997E+02  0.45594000000E+02  0.51100000000E-03 0. -1.
         11   -1    0    0    0    0 -0.00000000000E+00 -0.00000000000E+00 -0.45593999997E+02  0.45594000000E+02  0.51100000000E-03 0.  1.
    9900012    2    1    2    0    0  0.21203174851E+02  0.37414505597E+02 -0.58483837009E+01  0.47787269076E+02  0.19999991026E+02 0.  0.
         12    1    1    2    0    0 -0.21203174851E+02 -0.37414505597E+02  0.58483837009E+01  0.43400730924E+02  0.00000000000E+00 0. -1.
         11    1    3    3    0    0  0.12660984086E+02  0.22344775741E+02 -0.12220760083E+02  0.28441808983E+02  0.51100000000E-03 0. -1.
        -11    1    3    3    0    0  0.10666754073E+00  0.54668579570E+01  0.22842155671E+01  0.59258379074E+01  0.51100000000E-03 0.  1.
         12    1    3    3    0    0  0.84355232245E+01  0.96028718986E+01  0.40881608146E+01  0.13419622186E+02  0.00000000000E+00 0. -1.
</event>
<event>
 7    1  0.4477737E-009  0.4778726E+02  0.7816164E-02  0.1312668E+00
        -11   -1    0    0    0    0  0.00000000000E+00  0.00000000000E+00  0.45593999997E+02  0.45594000000E+02  0.51100000000E-03 0.  1.
         11   -1    0    0    0    0 -0.00000000000E+00 -0.00000000000E+00 -0.45593999997E+02  0.45594000000E+02  0.51100000000E-03 0. -1.
    9900012    2    1    2    0    0 -0.42855738744E+01  0.21046389352E+02  0.37713493950E+02  0.47787259521E+02  0.19999947462E+02 0.  0.
         12    1    1    2    0    0  0.42855738744E+01 -0.21046389352E+02 -0.37713493950E+02  0.43400740479E+02  0.00000000000E+00 0. -1.
         11    1    3    3    0    0 -0.30224398490E+01  0.40298266795E+01 -0.77727298413E-01  0.50379249202E+01  0.51100000000E-03 0. -1.
        -11    1    3    3    0    0  0.36163757157E+01  0.68295954395E+01  0.22124579738E+02  0.23435412863E+02  0.51100000000E-03 0.  1.
        -12    1    3    3    0    0 -0.48795097412E+01  0.10186967233E+02  0.15666641510E+02  0.19313921739E+02  0.00000000000E+00 0.  1.
</event>
<event>
 7    1  0.4477737E-009  0.4778727E+02  0.7816164E-02  0.1312668E+00
        -11   -1    0    0    0    0  0.00000000000E+00  0.00000000000E+00  0.45593999997E+02  0.45594000000E+02  0.51100000000E-03 0. -1.
         11   -1    0    0    0    0 -0.00000000000E+00 -0.00000000000E+00 -0.45593999997E+02  0.45594000000E+02  0.51100000000E-03 0.  1.
    9900012    2    1    2    0    0 -0.28512301102E+02  0.11218567766E+02 -0.30737852483E+02  0.47787272447E+02  0.20000006396E+02 0.  0.
         12    1    1    2    0    0  0.28512301102E+02 -0.11218567766E+02  0.30737852483E+02  0.43400727553E+02  0.00000000000E+00 0. -1.
         11    1    3    3    0    0 -0.84437299559E+00  0.77427210388E+01 -0.65900251067E+01  0.10202505869E+02  0.51100000000E-03 0. -1.
        -11    1    3    3    0    0 -0.27871240427E+02  0.40612580629E+01 -0.23796521465E+02  0.36872405591E+02  0.51100000000E-03 0.  1.
        -12    1    3    3    0    0  0.20331232071E+00 -0.58541133625E+00 -0.35130591120E+00  0.71236098687E+00  0.00000000000E+00 0.  1.
</event>
<event>
 7    1  0.4477737E-009  0.4778727E+02  0.7816164E-02  0.1312668E+00
        -11   -1    0    0    0    0  0.00000000000E+00  0.00000000000E+00  0.45593999997E+02  0.45594000000E+02  0.51100000000E-03 0.  1.
         11   -1    0    0    0    0 -0.00000000000E+00 -0.00000000000E+00 -0.45593999997E+02  0.45594000000E+02  0.51100000000E-03 0. -1.
    9900012    2    1    2    0    0  0.29858732577E+02 -0.68155406981E+01  0.30751060833E+02  0.47787271337E+02  0.20000001335E+02 0.  0.
         12    1    1    2    0    0 -0.29858732577E+02  0.68155406981E+01 -0.30751060833E+02  0.43400728663E+02  0.00000000000E+00 0. -1.
         11    1    3    3    0    0  0.16334835813E+02  0.15083640843E+00  0.55921987663E+01  0.17266218462E+02  0.51100000000E-03 0. -1.
        -11    1    3    3    0    0  0.11147081162E+02 -0.51562902063E+01  0.24580364822E+02  0.27477974491E+02  0.51100000000E-03 0.  1.
        -12    1    3    3    0    0  0.23768156012E+01 -0.18100869002E+01  0.57849724525E+00  0.30430783840E+01  0.00000000000E+00 0.  1.
</event>
<event>
 7    1  0.4477737E-009  0.4778727E+02  0.7816164E-02  0.1312668E+00
        -11   -1    0    0    0    0  0.00000000000E+00  0.00000000000E+00  0.45593999997E+02  0.45594000000E+02  0.51100000000E-03 0. -1.
         11   -1    0    0    0    0 -0.00000000000E+00 -0.00000000000E+00 -0.45593999997E+02  0.45594000000E+02  0.51100000000E-03 0.  1.
    9900012    2    1    2    0    0  0.21216602098E+02  0.14032960327E+02 -0.35164685718E+02  0.47787270723E+02  0.19999998534E+02 0.  0.
         12    1    1    2    0    0 -0.21216602098E+02 -0.14032960327E+02  0.35164685718E+02  0.43400729277E+02  0.00000000000E+00 0. -1.
         11    1    3    3    0    0  0.53803606949E+01 -0.21077794210E+01 -0.93468922777E+01  0.10988876685E+02  0.51100000000E-03 0. -1.
        -11    1    3    3    0    0  0.71545818077E+01  0.93503560967E+01 -0.41413018641E+01  0.12480688337E+02  0.51100000000E-03 0.  1.
        -12    1    3    3    0    0  0.86816595955E+01  0.67903836515E+01 -0.21676491576E+02  0.24317705700E+02  0.00000000000E+00 0.  1.
</event>
<event>
 7    1  0.4477737E-009  0.4778727E+02  0.7816164E-02  0.1312668E+00
        -11   -1    0    0    0    0  0.00000000000E+00  0.00000000000E+00  0.45593999997E+02  0.45594000000E+02  0.51100000000E-03 0. -1.
         11   -1    0    0    0    0 -0.00000000000E+00 -0.00000000000E+00 -0.45593999997E+02  0.45594000000E+02  0.51100000000E-03 0.  1.
    9900012    2    1    2    0    0 -0.29427519174E+02  0.26207285659E+02 -0.18188526787E+02  0.47787271746E+02  0.20000003197E+02 0.  0.
         12    1    1    2    0    0  0.29427519174E+02 -0.26207285659E+02  0.18188526787E+02  0.43400728254E+02  0.00000000000E+00 0. -1.
         11    1    3    3    0    0 -0.37683558314E+01  0.11995158878E+02 -0.94292334416E+01  0.15716067757E+02  0.51100000000E-03 0. -1.
        -11    1    3    3    0    0 -0.19596726598E+02  0.10445419153E+02 -0.10735218146E+02  0.24665428915E+02  0.51100000000E-03 0.  1.
         12    1    3    3    0    0 -0.60624367442E+01  0.37667076277E+01  0.19759248003E+01  0.74057750740E+01  0.00000000000E+00 0. -1.
</event>
<event>
 7    1  0.4477737E-009  0.4778727E+02  0.7816164E-02  0.1312668E+00
        -11   -1    0    0    0    0  0.00000000000E+00  0.00000000000E+00  0.45593999997E+02  0.45594000000E+02  0.51100000000E-03 0. -1.
         11   -1    0    0    0    0 -0.00000000000E+00 -0.00000000000E+00 -0.45593999997E+02  0.45594000000E+02  0.51100000000E-03 0.  1.
    9900012    2    1    2    0    0  0.23651056352E+02 -0.88879512849E+01 -0.35288170372E+02  0.47787272900E+02  0.20000008461E+02 0.  0.
         12    1    1    2    0    0 -0.23651056352E+02  0.88879512849E+01  0.35288170372E+02  0.43400727100E+02  0.00000000000E+00 0. -1.
         11    1    3    3    0    0 -0.21759912035E+01  0.20012359466E+00 -0.68709994124E+01  0.72101054331E+01  0.51100000000E-03 0. -1.
        -11    1    3    3    0    0  0.19572097847E+02 -0.82758678754E+01 -0.26534641326E+02  0.33994767153E+02  0.51100000000E-03 0.  1.
         12    1    3    3    0    0  0.62549497083E+01 -0.81220700417E+00 -0.18825296332E+01  0.65824003138E+01  0.00000000000E+00 0. -1.
</event>
<event>
 7    1  0.4477737E-009  0.4778727E+02  0.7816164E-02  0.1312668E+00
        -11   -1    0    0    0    0  0.00000000000E+00  0.00000000000E+00  0.45593999997E+02  0.45594000000E+02  0.51100000000E-03 0. -1.
         11   -1    0    0    0    0 -0.00000000000E+00 -0.00000000000E+00 -0.45593999997E+02  0.45594000000E+02  0.51100000000E-03 0.  1.
    9900012    2    1    2    0    0 -0.86288348110E+01 -0.41081035622E+02  0.11023383442E+02  0.47787271199E+02  0.20000000704E+02 0.  0.
         12    1    1    2    0    0  0.86288348110E+01  0.41081035622E+02 -0.11023383442E+02  0.43400728801E+02  0.00000000000E+00 0. -1.
         11    1    3    3    0    0  0.53219739025E+01 -0.22410825044E+02  0.60194520187E+01  0.23807609881E+02  0.51100000000E-03 0. -1.
        -11    1    3    3    0    0 -0.76601950871E+01 -0.11554605862E+02  0.19290012585E+01  0.13996733601E+02  0.51100000000E-03 0.  1.
         12    1    3    3    0    0 -0.62906136264E+01 -0.71156047158E+01  0.30749301650E+01  0.99829277162E+01  0.00000000000E+00 0. -1.
</event>
<event>
 7    1  0.4477737E-009  0.4778729E+02  0.7816164E-02  0.1312668E+00
        -11   -1    0    0    0    0  0.00000000000E+00  0.00000000000E+00  0.45593999997E+02  0.45594000000E+02  0.51100000000E-03 0.  1.
         11   -1    0    0    0    0 -0.00000000000E+00 -0.00000000000E+00 -0.45593999997E+02  0.45594000000E+02  0.51100000000E-03 0. -1.
    9900012    2    1    2    0    0 -0.17663249577E+02 -0.35448802130E+02 -0.17748612859E+02  0.47787294747E+02  0.20000108068E+02 0.  0.
         12    1    1    2    0    0  0.17663249577E+02  0.35448802130E+02  0.17748612859E+02  0.43400705253E+02  0.00000000000E+00 0. -1.
         11    1    3    3    0    0  0.48027155072E+00  0.10024984805E+01  0.42963897151E+00  0.11917440467E+01  0.51100000000E-03 0. -1.
        -11    1    3    3    0    0 -0.17583163875E+02 -0.33387391411E+02 -0.11865123518E+02  0.39555868256E+02  0.51100000000E-03 0.  1.
        -12    1    3    3    0    0 -0.56035725276E+00 -0.30639091995E+01 -0.63131283122E+01  0.70396824445E+01  0.00000000000E+00 0.  1.
</event>
<event>
 7    1  0.4477737E-009  0.4778726E+02  0.7816164E-02  0.1312668E+00
        -11   -1    0    0    0    0  0.00000000000E+00  0.00000000000E+00  0.45593999997E+02  0.45594000000E+02  0.51100000000E-03 0.  1.
         11   -1    0    0    0    0 -0.00000000000E+00 -0.00000000000E+00 -0.45593999997E+02  0.45594000000E+02  0.51100000000E-03 0. -1.
    9900012    2    1    2    0    0 -0.62865109703E+00  0.22271437849E+02  0.37245296206E+02  0.47787259965E+02  0.19999949486E+02 0.  0.
         12    1    1    2    0    0  0.62865109703E+00 -0.22271437849E+02 -0.37245296206E+02  0.43400740035E+02  0.00000000000E+00 0. -1.
         11    1    3    3    0    0 -0.25566096775E+01  0.14381843302E+02  0.10221893510E+02  0.17828650454E+02  0.51100000000E-03 0. -1.
        -11    1    3    3    0    0 -0.25432212368E+01  0.55160583508E+01  0.68293144082E+01  0.91397160534E+01  0.51100000000E-03 0.  1.
         12    1    3    3    0    0  0.44711798172E+01  0.23735361960E+01  0.20194088288E+02  0.20818893458E+02  0.00000000000E+00 0. -1.
</event>
<event>
 7    1  0.4477737E-009  0.4778727E+02  0.7816164E-02  0.1312668E+00
        -11   -1    0    0    0    0  0.00000000000E+00  0.00000000000E+00  0.45593999997E+02  0.45594000000E+02  0.51100000000E-03 0.  1.
         11   -1    0    0    0    0 -0.00000000000E+00 -0.00000000000E+00 -0.45593999997E+02  0.45594000000E+02  0.51100000000E-03 0. -1.
    9900012    2    1    2    0    0 -0.16913065337E+02  0.26222030765E+02  0.30165818351E+02  0.47787271051E+02  0.20000000030E+02 0.  0.
         12    1    1    2    0    0  0.16913065337E+02 -0.26222030765E+02 -0.30165818351E+02  0.43400728949E+02  0.00000000000E+00 0. -1.
         11    1    3    3    0    0 -0.60031694786E+01  0.61146844056E+01  0.71727708446E+01  0.11174795346E+02  0.51100000000E-03 0.  1.
        -11    1    3    3    0    0 -0.70464453013E+01  0.17254759226E+02  0.69923001324E+01  0.19906565970E+02  0.51100000000E-03 0. -1.
        -12    1    3    3    0    0 -0.38634505572E+01  0.28525871336E+01  0.16000747374E+02  0.16705909735E+02  0.00000000000E+00 0.  1.
</event>
<event>
 7    1  0.4477737E-009  0.4778727E+02  0.7816164E-02  0.1312668E+00
        -11   -1    0    0    0    0  0.00000000000E+00  0.00000000000E+00  0.45593999997E+02  0.45594000000E+02  0.51100000000E-03 0.  1.
         11   -1    0    0    0    0 -0.00000000000E+00 -0.00000000000E+00 -0.45593999997E+02  0.45594000000E+02  0.51100000000E-03 0. -1.
    9900012    2    1    2    0    0 -0.47594083631E+01  0.32445985696E+02  0.28429374467E+02  0.47787270878E+02  0.19999999243E+02 0.  0.
         12    1    1    2    0    0  0.47594083631E+01 -0.32445985696E+02 -0.28429374467E+02  0.43400729122E+02  0.00000000000E+00 0. -1.
         11    1    3    3    0    0  0.57071422423E+01  0.40265614153E+01  0.33745063404E+01  0.77570588955E+01  0.51100000000E-03 0. -1.
        -11    1    3    3    0    0 -0.26925670839E+01  0.11991534978E+02  0.59261662156E+01  0.13644276269E+02  0.51100000000E-03 0.  1.
         12    1    3    3    0    0 -0.77739835216E+01  0.16427889303E+02  0.19128701911E+02  0.26385935714E+02  0.00000000000E+00 0. -1.
</event>
<event>
 7    1  0.4954983E-009  0.4778727E+02  0.7816164E-02  0.1312668E+00
        -11   -1    0    0    0    0  0.00000000000E+00  0.00000000000E+00  0.45593999997E+02  0.45594000000E+02  0.51100000000E-03 0. -1.
         11   -1    0    0    0    0 -0.00000000000E+00 -0.00000000000E+00 -0.45593999997E+02  0.45594000000E+02  0.51100000000E-03 0.  1.
    9900012    2    1    2    0    0  0.13567119579E+02  0.40483340158E+02 -0.77881972614E+01  0.47787267511E+02  0.19999983890E+02 0.  0.
         12    1    1    2    0    0 -0.13567119579E+02 -0.40483340158E+02  0.77881972614E+01  0.43400732489E+02  0.00000000000E+00 0. -1.
         11    1    3    3    0    0 -0.40437897615E+01  0.42129371434E+01 -0.33787308306E+01  0.67466211763E+01  0.51100000000E-03 0. -1.
        -11    1    3    3    0    0  0.86996346651E+01  0.24749235029E+02 -0.31121736427E+01  0.26417681633E+02  0.51100000000E-03 0.  1.
         12    1    3    3    0    0  0.89112746753E+01  0.11521167985E+02 -0.12972927882E+01  0.14622964701E+02  0.00000000000E+00 0. -1.
</event>
<event>
 7    1  0.4477737E-009  0.4778727E+02  0.7816164E-02  0.1312668E+00
        -11   -1    0    0    0    0  0.00000000000E+00  0.00000000000E+00  0.45593999997E+02  0.45594000000E+02  0.51100000000E-03 0.  1.
         11   -1    0    0    0    0 -0.00000000000E+00 -0.00000000000E+00 -0.45593999997E+02  0.45594000000E+02  0.51100000000E-03 0. -1.
    9900012    2    1    2    0    0  0.27566299004E+02 -0.22701527156E+02  0.24665014424E+02  0.47787272903E+02  0.20000008476E+02 0.  0.
         12    1    1    2    0    0 -0.27566299004E+02  0.22701527156E+02 -0.24665014424E+02  0.43400727097E+02  0.00000000000E+00 0. -1.
         11    1    3    3    0    0  0.11723514253E+02 -0.14185998137E+01  0.11149074747E+02  0.16240538164E+02  0.51100000000E-03 0. -1.
        -11    1    3    3    0    0  0.74387705222E+01 -0.17894282671E+02  0.10185716461E+02  0.21892680952E+02  0.51100000000E-03 0.  1.
         12    1    3    3    0    0  0.84040142282E+01 -0.33886446717E+01  0.33302232151E+01  0.96540537869E+01  0.00000000000E+00 0. -1.
</event>
<event>
 7    1  0.4477737E-009  0.4778727E+02  0.7816164E-02  0.1312668E+00
        -11   -1    0    0    0    0  0.00000000000E+00  0.00000000000E+00  0.45593999997E+02  0.45594000000E+02  0.51100000000E-03 0.  1.
         11   -1    0    0    0    0 -0.00000000000E+00 -0.00000000000E+00 -0.45593999997E+02  0.45594000000E+02  0.51100000000E-03 0. -1.
    9900012    2    1    2    0    0 -0.32923667720E+02 -0.26997461892E+02  0.84138223187E+01  0.47787271311E+02  0.20000001215E+02 0.  0.
         12    1    1    2    0    0  0.32923667720E+02  0.26997461892E+02 -0.84138223187E+01  0.43400728689E+02  0.00000000000E+00 0. -1.
         11    1    3    3    0    0 -0.56439468501E+01 -0.33988173260E+01 -0.58191775982E+01  0.87902743667E+01  0.51100000000E-03 0. -1.
        -11    1    3    3    0    0 -0.25361757537E+02 -0.20609856796E+02  0.12063649685E+02  0.34835564966E+02  0.51100000000E-03 0.  1.
         12    1    3    3    0    0 -0.19179633320E+01 -0.29887877701E+01  0.21693502322E+01  0.41614319780E+01  0.00000000000E+00 0. -1.
</event>
<event>
 7    1  0.4477737E-009  0.4778726E+02  0.7816164E-02  0.1312668E+00
        -11   -1    0    0    0    0  0.00000000000E+00  0.00000000000E+00  0.45593999997E+02  0.45594000000E+02  0.51100000000E-03 0.  1.
         11   -1    0    0    0    0 -0.00000000000E+00 -0.00000000000E+00 -0.45593999997E+02  0.45594000000E+02  0.51100000000E-03 0. -1.
    9900012    2    1    2    0    0  0.18951120075E+02  0.29990150401E+02  0.25001396130E+02  0.47787264043E+02  0.19999968076E+02 0.  0.
         12    1    1    2    0    0 -0.18951120075E+02 -0.29990150401E+02 -0.25001396130E+02  0.43400735957E+02  0.00000000000E+00 0. -1.
         11    1    3    3    0    0  0.13858556392E+01  0.14514109739E+01 -0.17240378508E+00  0.20141779947E+01  0.51100000000E-03 0. -1.
        -11    1    3    3    0    0  0.18712887551E+01 -0.26644361395E+01  0.15465759267E+01  0.36045580734E+01  0.51100000000E-03 0.  1.
        -12    1    3    3    0    0  0.15693975680E+02  0.31203175567E+02  0.23627223989E+02  0.42168527974E+02  0.00000000000E+00 0.  1.
</event>
<event>
 7    1  0.4477737E-009  0.4778727E+02  0.7816164E-02  0.1312668E+00
        -11   -1    0    0    0    0  0.00000000000E+00  0.00000000000E+00  0.45593999997E+02  0.45594000000E+02  0.51100000000E-03 0. -1.
         11   -1    0    0    0    0 -0.00000000000E+00 -0.00000000000E+00 -0.45593999997E+02  0.45594000000E+02  0.51100000000E-03 0.  1.
    9900012    2    1    2    0    0  0.76505616931E+01 -0.31200101572E+01 -0.42607020010E+02  0.47787266001E+02  0.19999977003E+02 0.  0.
         12    1    1    2    0    0 -0.76505616931E+01  0.31200101572E+01  0.42607020010E+02  0.43400733999E+02  0.00000000000E+00 0. -1.
         11    1    3    3    0    0 -0.15833279884E+01 -0.97900110065E+01 -0.18496328095E+02  0.20987267481E+02  0.51100000000E-03 0. -1.
        -11    1    3    3    0    0  0.78683832733E+00  0.13463602056E+01 -0.50092642691E+01  0.52463824808E+01  0.51100000000E-03 0.  1.
         12    1    3    3    0    0  0.84470513542E+01  0.53236406437E+01 -0.19101427645E+02  0.21553616039E+02  0.00000000000E+00 0. -1.
</event>
<event>
 7    1  0.4477737E-009  0.4778727E+02  0.7816164E-02  0.1312668E+00
        -11   -1    0    0    0    0  0.00000000000E+00  0.00000000000E+00  0.45593999997E+02  0.45594000000E+02  0.51100000000E-03 0. -1.
         11   -1    0    0    0    0 -0.00000000000E+00 -0.00000000000E+00 -0.45593999997E+02  0.45594000000E+02  0.51100000000E-03 0.  1.
    9900012    2    1    2    0    0  0.27255450501E+02 -0.29875600101E+02 -0.15754752310E+02  0.47787270930E+02  0.19999999480E+02 0.  0.
         12    1    1    2    0    0 -0.27255450501E+02  0.29875600101E+02  0.15754752310E+02  0.43400729070E+02  0.00000000000E+00 0. -1.
         11    1    3    3    0    0 -0.69349927381E+00  0.14017858048E+01  0.69980722556E+00  0.17133811892E+01  0.51100000000E-03 0. -1.
        -11    1    3    3    0    0  0.81723830130E+01 -0.16062190327E+02 -0.56890940510E+01  0.18898348965E+02  0.51100000000E-03 0.  1.
         12    1    3    3    0    0  0.19776566762E+02 -0.15215195579E+02 -0.10765465484E+02  0.27175540776E+02  0.00000000000E+00 0. -1.
</event>
<event>
 7    1  0.4477737E-009  0.4778727E+02  0.7816164E-02  0.1312668E+00
        -11   -1    0    0    0    0  0.00000000000E+00  0.00000000000E+00  0.45593999997E+02  0.45594000000E+02  0.51100000000E-03 0. -1.
         11   -1    0    0    0    0 -0.00000000000E+00 -0.00000000000E+00 -0.45593999997E+02  0.45594000000E+02  0.51100000000E-03 0.  1.
    9900012    2    1    2    0    0 -0.31494288933E+02 -0.77501608022E+01 -0.28838657334E+02  0.47787269768E+02  0.19999994179E+02 0.  0.
         12    1    1    2    0    0  0.31494288933E+02  0.77501608022E+01  0.28838657334E+02  0.43400730232E+02  0.00000000000E+00 0. -1.
         11    1    3    3    0    0 -0.19261358382E+02  0.45063680871E+01 -0.13022807449E+02  0.23683344236E+02  0.51100000000E-03 0. -1.
        -11    1    3    3    0    0 -0.15900762463E+01 -0.50714118163E+01 -0.53071284753E+01  0.75108703353E+01  0.51100000000E-03 0.  1.
         12    1    3    3    0    0 -0.10642854304E+02 -0.71851170731E+01 -0.10508721410E+02  0.16593055197E+02  0.00000000000E+00 0. -1.
</event>
<event>
 7    1  0.4477737E-009  0.4778727E+02  0.7816164E-02  0.1312668E+00
        -11   -1    0    0    0    0  0.00000000000E+00  0.00000000000E+00  0.45593999997E+02  0.45594000000E+02  0.51100000000E-03 0.  1.
         11   -1    0    0    0    0 -0.00000000000E+00 -0.00000000000E+00 -0.45593999997E+02  0.45594000000E+02  0.51100000000E-03 0. -1.
    9900012    2    1    2    0    0 -0.38339517766E+02 -0.62876495886E+01  0.19343474943E+02  0.47787272095E+02  0.20000004788E+02 0.  0.
         12    1    1    2    0    0  0.38339517766E+02  0.62876495886E+01 -0.19343474943E+02  0.43400727905E+02  0.00000000000E+00 0. -1.
         11    1    3    3    0    0 -0.55046193621E+01  0.20014968139E+01  0.85945234370E+01  0.10400608501E+02  0.51100000000E-03 0. -1.
        -11    1    3    3    0    0 -0.22793851251E+02 -0.11120136416E+02  0.71408236325E+01  0.26347835797E+02  0.51100000000E-03 0.  1.
        -12    1    3    3    0    0 -0.10041047153E+02  0.28309900138E+01  0.36081278734E+01  0.11038827797E+02  0.00000000000E+00 0.  1.
</event>
<event>
 7    1  0.4477737E-009  0.4778727E+02  0.7816164E-02  0.1312668E+00
        -11   -1    0    0    0    0  0.00000000000E+00  0.00000000000E+00  0.45593999997E+02  0.45594000000E+02  0.51100000000E-03 0.  1.
         11   -1    0    0    0    0 -0.00000000000E+00 -0.00000000000E+00 -0.45593999997E+02  0.45594000000E+02  0.51100000000E-03 0. -1.
    9900012    2    1    2    0    0 -0.24510030370E+02 -0.83401418500E+01  0.34832797815E+02  0.47787270070E+02  0.19999995556E+02 0.  0.
         12    1    1    2    0    0  0.24510030370E+02  0.83401418500E+01 -0.34832797815E+02  0.43400729930E+02  0.00000000000E+00 0. -1.
         11    1    3    3    0    0  0.21697422342E+01 -0.20600944285E+01  0.29339596027E+01  0.41904521986E+01  0.51100000000E-03 0. -1.
        -11    1    3    3    0    0 -0.23224701729E+02 -0.66682207721E+01  0.32024686826E+02  0.40117733051E+02  0.51100000000E-03 0.  1.
        -12    1    3    3    0    0 -0.34550708762E+01  0.38817335055E+00 -0.12584861316E+00  0.34790848197E+01  0.00000000000E+00 0.  1.
</event>
<event>
 7    1  0.4477737E-009  0.4778722E+02  0.7816164E-02  0.1312668E+00
        -11   -1    0    0    0    0  0.00000000000E+00  0.00000000000E+00  0.45593999997E+02  0.45594000000E+02  0.51100000000E-03 0. -1.
         11   -1    0    0    0    0 -0.00000000000E+00 -0.00000000000E+00 -0.45593999997E+02  0.45594000000E+02  0.51100000000E-03 0.  1.
    9900012    2    1    2    0    0  0.17676349789E+02 -0.39636934006E+02  0.29660369827E+00  0.47787218290E+02  0.19999759470E+02 0.  0.
         12    1    1    2    0    0 -0.17676349789E+02  0.39636934006E+02 -0.29660369827E+00  0.43400781710E+02  0.00000000000E+00 0. -1.
         11    1    3    3    0    0  0.10904023499E+01  0.19601203368E+01 -0.13707580484E+01  0.26286930037E+01  0.51100000000E-03 0. -1.
        -11    1    3    3    0    0  0.16021646874E+02 -0.41315822462E+02  0.11265544221E+01  0.44327863466E+02  0.51100000000E-03 0.  1.
         12    1    3    3    0    0  0.56430056462E+00 -0.28123188071E+00  0.54080732459E+00  0.83066182065E+00  0.00000000000E+00 0. -1.
</event>
<event>
 7    1  0.4477737E-009  0.4778727E+02  0.7816164E-02  0.1312668E+00
        -11   -1    0    0    0    0  0.00000000000E+00  0.00000000000E+00  0.45593999997E+02  0.45594000000E+02  0.51100000000E-03 0. -1.
         11   -1    0    0    0    0 -0.00000000000E+00 -0.00000000000E+00 -0.45593999997E+02  0.45594000000E+02  0.51100000000E-03 0.  1.
    9900012    2    1    2    0    0  0.20664175002E+02  0.16171792403E+02 -0.34570050207E+02  0.47787269945E+02  0.19999994985E+02 0.  0.
         12    1    1    2    0    0 -0.20664175002E+02 -0.16171792403E+02  0.34570050207E+02  0.43400730055E+02  0.00000000000E+00 0. -1.
         11    1    3    3    0    0  0.50135978178E+01  0.81766683499E+01 -0.22070766994E+01  0.98420148446E+01  0.51100000000E-03 0. -1.
        -11    1    3    3    0    0  0.78180928645E+01  0.74284601440E+01 -0.24796572804E+02  0.27040240739E+02  0.51100000000E-03 0.  1.
         12    1    3    3    0    0  0.78324843199E+01  0.56666390895E+00 -0.75664007037E+01  0.10905014361E+02  0.00000000000E+00 0. -1.
</event>
<event>
 7    1  0.4477737E-009  0.4778727E+02  0.7816164E-02  0.1312668E+00
        -11   -1    0    0    0    0  0.00000000000E+00  0.00000000000E+00  0.45593999997E+02  0.45594000000E+02  0.51100000000E-03 0.  1.
         11   -1    0    0    0    0 -0.00000000000E+00 -0.00000000000E+00 -0.45593999997E+02  0.45594000000E+02  0.51100000000E-03 0. -1.
    9900012    2    1    2    0    0 -0.10973907015E+01 -0.42824635962E+02  0.69619914269E+01  0.47787273782E+02  0.20000012480E+02 0.  0.
         12    1    1    2    0    0  0.10973907015E+01  0.42824635962E+02 -0.69619914269E+01  0.43400726218E+02  0.00000000000E+00 0. -1.
         11    1    3    3    0    0 -0.57201389970E+01 -0.76506167825E+01 -0.43535284412E+01  0.10497863471E+02  0.51100000000E-03 0. -1.
        -11    1    3    3    0    0 -0.13986290964E+00 -0.16880035471E+01  0.76965702819E+00  0.18604541947E+01  0.51100000000E-03 0.  1.
         12    1    3    3    0    0  0.47626112052E+01 -0.33486015633E+02  0.10545862840E+02  0.35428956116E+02  0.00000000000E+00 0. -1.
</event>
<event>
 7    1  0.4477737E-009  0.4778727E+02  0.7816164E-02  0.1312668E+00
        -11   -1    0    0    0    0  0.00000000000E+00  0.00000000000E+00  0.45593999997E+02  0.45594000000E+02  0.51100000000E-03 0. -1.
         11   -1    0    0    0    0 -0.00000000000E+00 -0.00000000000E+00 -0.45593999997E+02  0.45594000000E+02  0.51100000000E-03 0.  1.
    9900012    2    1    2    0    0 -0.23222386312E+02  0.28386279439E+02 -0.23206967059E+02  0.47787269517E+02  0.19999993034E+02 0.  0.
         12    1    1    2    0    0  0.23222386312E+02 -0.28386279439E+02  0.23206967059E+02  0.43400730483E+02  0.00000000000E+00 0. -1.
         11    1    3    3    0    0  0.30735755164E+00  0.72992408171E+01 -0.42027316269E+00  0.73177875730E+01  0.51100000000E-03 0. -1.
        -11    1    3    3    0    0 -0.16995108888E+02  0.10189236411E+02 -0.91367669311E+01  0.21820512711E+02  0.51100000000E-03 0.  1.
         12    1    3    3    0    0 -0.65346349760E+01  0.10897802211E+02 -0.13649926965E+02  0.18648969233E+02  0.00000000000E+00 0. -1.
</event>
<event>
 7    1  0.4477737E-009  0.4778727E+02  0.7816164E-02  0.1312668E+00
        -11   -1    0    0    0    0  0.00000000000E+00  0.00000000000E+00  0.45593999997E+02  0.45594000000E+02  0.51100000000E-03 0. -1.
         11   -1    0    0    0    0 -0.00000000000E+00 -0.00000000000E+00 -0.45593999997E+02  0.45594000000E+02  0.51100000000E-03 0.  1.
    9900012    2    1    2    0    0 -0.19206898411E+02  0.27583691517E+02  0.27456478240E+02  0.47787272108E+02  0.20000004848E+02 0.  0.
         12    1    1    2    0    0  0.19206898411E+02 -0.27583691517E+02 -0.27456478240E+02  0.43400727892E+02  0.00000000000E+00 0. -1.
         11    1    3    3    0    0 -0.11876924890E+02  0.18222110998E+02  0.79564506856E+01  0.23160565232E+02  0.51100000000E-03 0. -1.
        -11    1    3    3    0    0 -0.14624283359E+01 -0.15485607220E+01  0.97773708751E+00  0.23436524957E+01  0.51100000000E-03 0.  1.
         12    1    3    3    0    0 -0.58675451851E+01  0.10910141240E+02  0.18522290467E+02  0.22283054380E+02  0.00000000000E+00 0. -1.
</event>
<event>
 7    1  0.4477737E-009  0.4778727E+02  0.7816164E-02  0.1312668E+00
        -11   -1    0    0    0    0  0.00000000000E+00  0.00000000000E+00  0.45593999997E+02  0.45594000000E+02  0.51100000000E-03 0.  1.
         11   -1    0    0    0    0 -0.00000000000E+00 -0.00000000000E+00 -0.45593999997E+02  0.45594000000E+02  0.51100000000E-03 0. -1.
    9900012    2    1    2    0    0  0.24554648367E+02 -0.88143165991E+01  0.34684295666E+02  0.47787270751E+02  0.19999998661E+02 0.  0.
         12    1    1    2    0    0 -0.24554648367E+02  0.88143165991E+01 -0.34684295666E+02  0.43400729249E+02  0.00000000000E+00 0. -1.
         11    1    3    3    0    0  0.11384809039E+02 -0.54913717192E+01  0.10956945582E+02  0.16727931640E+02  0.51100000000E-03 0. -1.
        -11    1    3    3    0    0  0.53996229689E+01 -0.59978481364E+01  0.20841742926E+02  0.22349683643E+02  0.51100000000E-03 0.  1.
        -12    1    3    3    0    0  0.77702163588E+01  0.26749032566E+01  0.28856071576E+01  0.87096554675E+01  0.00000000000E+00 0.  1.
</event>
<event>
 7    1  0.4477737E-009  0.4778726E+02  0.7816164E-02  0.1312668E+00
        -11   -1    0    0    0    0  0.00000000000E+00  0.00000000000E+00  0.45593999997E+02  0.45594000000E+02  0.51100000000E-03 0.  1.
         11   -1    0    0    0    0 -0.00000000000E+00 -0.00000000000E+00 -0.45593999997E+02  0.45594000000E+02  0.51100000000E-03 0. -1.
    9900012    2    1    2    0    0 -0.85921735954E+01 -0.11137946771E+02  0.41057821100E+02  0.47787262923E+02  0.19999962970E+02 0.  0.
         12    1    1    2    0    0  0.85921735954E+01  0.11137946771E+02 -0.41057821100E+02  0.43400737077E+02  0.00000000000E+00 0. -1.
         11    1    3    3    0    0  0.30684647778E+01 -0.72380140881E+01  0.10235692572E+02  0.12906344437E+02  0.51100000000E-03 0.  1.
        -11    1    3    3    0    0 -0.10744414581E+02  0.14363594625E+01  0.18924374840E+02  0.21809115905E+02  0.51100000000E-03 0. -1.
         12    1    3    3    0    0 -0.91622379223E+00 -0.53362921458E+01  0.11897753688E+02  0.13071802581E+02  0.00000000000E+00 0. -1.
</event>
<event>
 7    1  0.4477737E-009  0.4778727E+02  0.7816164E-02  0.1312668E+00
        -11   -1    0    0    0    0  0.00000000000E+00  0.00000000000E+00  0.45593999997E+02  0.45594000000E+02  0.51100000000E-03 0. -1.
         11   -1    0    0    0    0 -0.00000000000E+00 -0.00000000000E+00 -0.45593999997E+02  0.45594000000E+02  0.51100000000E-03 0.  1.
    9900012    2    1    2    0    0  0.51124359629E+00 -0.30041259083E+02 -0.31319073120E+02  0.47787274679E+02  0.20000016571E+02 0.  0.
         12    1    1    2    0    0 -0.51124359629E+00  0.30041259083E+02  0.31319073120E+02  0.43400725321E+02  0.00000000000E+00 0. -1.
         11    1    3    3    0    0  0.20176183145E+01 -0.10291812936E+02 -0.11032982432E+02  0.15222315815E+02  0.51100000000E-03 0.  1.
        -11    1    3    3    0    0  0.13248920137E+01 -0.18930390273E+02 -0.91914257693E+01  0.21085476581E+02  0.51100000000E-03 0. -1.
        -12    1    3    3    0    0 -0.28312667319E+01 -0.81905587508E+00 -0.11094664918E+02  0.11479482283E+02  0.00000000000E+00 0.  1.
</event>
<event>
 7    1  0.4477737E-009  0.4778727E+02  0.7816164E-02  0.1312668E+00
        -11   -1    0    0    0    0  0.00000000000E+00  0.00000000000E+00  0.45593999997E+02  0.45594000000E+02  0.51100000000E-03 0. -1.
         11   -1    0    0    0    0 -0.00000000000E+00 -0.00000000000E+00 -0.45593999997E+02  0.45594000000E+02  0.51100000000E-03 0.  1.
    9900012    2    1    2    0    0  0.17061317035E+02 -0.38402841774E+02 -0.10851560185E+02  0.47787272429E+02  0.20000006312E+02 0.  0.
         12    1    1    2    0    0 -0.17061317035E+02  0.38402841774E+02  0.10851560185E+02  0.43400727571E+02  0.00000000000E+00 0. -1.
         11    1    3    3    0    0  0.12312874580E+02 -0.22940855832E+02 -0.13743893874E+02  0.29441201840E+02  0.51100000000E-03 0. -1.
        -11    1    3    3    0    0  0.26404106111E+01 -0.12641279521E+02  0.54262320697E+01  0.14007773230E+02  0.51100000000E-03 0.  1.
        -12    1    3    3    0    0  0.21080318434E+01 -0.28207064204E+01 -0.25338983812E+01  0.43382973583E+01  0.00000000000E+00 0.  1.
</event>
<event>
 7    1  0.4477737E-009  0.4778727E+02  0.7816164E-02  0.1312668E+00
        -11   -1    0    0    0    0  0.00000000000E+00  0.00000000000E+00  0.45593999997E+02  0.45594000000E+02  0.51100000000E-03 0.  1.
         11   -1    0    0    0    0 -0.00000000000E+00 -0.00000000000E+00 -0.45593999997E+02  0.45594000000E+02  0.51100000000E-03 0. -1.
    9900012    2    1    2    0    0 -0.16043521697E+02 -0.23460965136E+01  0.40258221275E+02  0.47787272616E+02  0.20000007163E+02 0.  0.
         12    1    1    2    0    0  0.16043521697E+02  0.23460965136E+01 -0.40258221275E+02  0.43400727384E+02  0.00000000000E+00 0. -1.
         11    1    3    3    0    0 -0.18037625992E+01  0.63890428343E+01  0.74153218994E+01  0.99529104781E+01  0.51100000000E-03 0. -1.
        -11    1    3    3    0    0 -0.12610031770E+02 -0.65841336278E+01  0.31979816372E+02  0.35001033875E+02  0.51100000000E-03 0.  1.
         12    1    3    3    0    0 -0.16297273283E+01 -0.21510057200E+01  0.86308300321E+00  0.28333282624E+01  0.00000000000E+00 0. -1.
</event>
<event>
 7    1  0.4477737E-009  0.4778727E+02  0.7816164E-02  0.1312668E+00
        -11   -1    0    0    0    0  0.00000000000E+00  0.00000000000E+00  0.45593999997E+02  0.45594000000E+02  0.51100000000E-03 0.  1.
         11   -1    0    0    0    0 -0.00000000000E+00 -0.00000000000E+00 -0.45593999997E+02  0.45594000000E+02  0.51100000000E-03 0. -1.
    9900012    2    1    2    0    0  0.42758843307E+02  0.72405054755E+01 -0.16970157918E+01  0.47787268864E+02  0.19999990061E+02 0.  0.
         12    1    1    2    0    0 -0.42758843307E+02 -0.72405054755E+01  0.16970157918E+01  0.43400731136E+02  0.00000000000E+00 0. -1.
         11    1    3    3    0    0  0.12176872924E+02 -0.11493975366E+01  0.32978653259E+01  0.12667804264E+02  0.51100000000E-03 0. -1.
        -11    1    3    3    0    0  0.26775846186E+02  0.11146830684E+02 -0.72660915287E+01  0.29899730093E+02  0.51100000000E-03 0.  1.
        -12    1    3    3    0    0  0.38061241974E+01 -0.27569276723E+01  0.22712104110E+01  0.52197345073E+01  0.00000000000E+00 0.  1.
</event>
<event>
 7    1  0.4477737E-009  0.4778727E+02  0.7816164E-02  0.1312668E+00
        -11   -1    0    0    0    0  0.00000000000E+00  0.00000000000E+00  0.45593999997E+02  0.45594000000E+02  0.51100000000E-03 0. -1.
         11   -1    0    0    0    0 -0.00000000000E+00 -0.00000000000E+00 -0.45593999997E+02  0.45594000000E+02  0.51100000000E-03 0.  1.
    9900012    2    1    2    0    0  0.36154321159E+02 -0.13439375242E+02  0.19896530084E+02  0.47787266656E+02  0.19999979993E+02 0.  0.
         12    1    1    2    0    0 -0.36154321159E+02  0.13439375242E+02 -0.19896530084E+02  0.43400733344E+02  0.00000000000E+00 0. -1.
         11    1    3    3    0    0  0.39238369345E+00 -0.14883201544E+01 -0.30078223377E+01  0.33787656505E+01  0.51100000000E-03 0. -1.
        -11    1    3    3    0    0  0.26079848007E+02 -0.10900202365E+02  0.16122435639E+02  0.32540833039E+02  0.51100000000E-03 0.  1.
         12    1    3    3    0    0  0.96820894589E+01 -0.10508527226E+01  0.67819167828E+01  0.11867667967E+02  0.00000000000E+00 0. -1.
</event>
<event>
 7    1  0.4477737E-009  0.4778727E+02  0.7816164E-02  0.1312668E+00
        -11   -1    0    0    0    0  0.00000000000E+00  0.00000000000E+00  0.45593999997E+02  0.45594000000E+02  0.51100000000E-03 0.  1.
         11   -1    0    0    0    0 -0.00000000000E+00 -0.00000000000E+00 -0.45593999997E+02  0.45594000000E+02  0.51100000000E-03 0. -1.
    9900012    2    1    2    0    0 -0.32524062699E+02  0.25789103487E+02  0.12677963986E+02  0.47787270928E+02  0.19999999470E+02 0.  0.
         12    1    1    2    0    0  0.32524062699E+02 -0.25789103487E+02 -0.12677963986E+02  0.43400729072E+02  0.00000000000E+00 0. -1.
         11    1    3    3    0    0 -0.11786044736E+02  0.12891225813E+02  0.92722427196E+01  0.19775465577E+02  0.51100000000E-03 0. -1.
        -11    1    3    3    0    0 -0.14077551279E+02  0.11946301415E+02 -0.30195140712E+01  0.18708528349E+02  0.51100000000E-03 0.  1.
        -12    1    3    3    0    0 -0.66604666844E+01  0.95157625939E+00  0.64252353373E+01  0.93032770018E+01  0.00000000000E+00 0.  1.
</event>
<event>
 7    1  0.4477737E-009  0.4778727E+02  0.7816164E-02  0.1312668E+00
        -11   -1    0    0    0    0  0.00000000000E+00  0.00000000000E+00  0.45593999997E+02  0.45594000000E+02  0.51100000000E-03 0. -1.
         11   -1    0    0    0    0 -0.00000000000E+00 -0.00000000000E+00 -0.45593999997E+02  0.45594000000E+02  0.51100000000E-03 0.  1.
    9900012    2    1    2    0    0  0.22913513555E+02 -0.81792624864E+01 -0.35940141270E+02  0.47787271979E+02  0.20000004260E+02 0.  0.
         12    1    1    2    0    0 -0.22913513555E+02  0.81792624864E+01  0.35940141270E+02  0.43400728021E+02  0.00000000000E+00 0. -1.
         11    1    3    3    0    0  0.10607465565E+01 -0.16665704478E+01 -0.19553384979E+02  0.19652926111E+02  0.51100000000E-03 0. -1.
        -11    1    3    3    0    0  0.12625573102E+02 -0.35509942586E+01 -0.10450519324E+02  0.16769854226E+02  0.51100000000E-03 0.  1.
         12    1    3    3    0    0  0.92271938969E+01 -0.29616977800E+01 -0.59362369669E+01  0.11364491642E+02  0.00000000000E+00 0. -1.
</event>
<event>
 7    1  0.4477737E-009  0.4778727E+02  0.7816164E-02  0.1312668E+00
        -11   -1    0    0    0    0  0.00000000000E+00  0.00000000000E+00  0.45593999997E+02  0.45594000000E+02  0.51100000000E-03 0.  1.
         11   -1    0    0    0    0 -0.00000000000E+00 -0.00000000000E+00 -0.45593999997E+02  0.45594000000E+02  0.51100000000E-03 0. -1.
    9900012    2    1    2    0    0 -0.38342916326E+01  0.32910859827E+02  0.28032075240E+02  0.47787265799E+02  0.19999976085E+02 0.  0.
         12    1    1    2    0    0  0.38342916326E+01 -0.32910859827E+02 -0.28032075240E+02  0.43400734201E+02  0.00000000000E+00 0. -1.
         11    1    3    3    0    0 -0.46067598991E+01  0.17709283111E+02  0.79011063096E+01  0.19931593671E+02  0.51100000000E-03 0. -1.
        -11    1    3    3    0    0  0.58021394975E+01  0.10863899748E+02  0.15308041749E+02  0.19647526128E+02  0.51100000000E-03 0.  1.
         12    1    3    3    0    0 -0.50296712310E+01  0.43376769679E+01  0.48229271814E+01  0.82081460006E+01  0.00000000000E+00 0. -1.
</event>
<event>
 7    1  0.4477737E-009  0.4778727E+02  0.7816164E-02  0.1312668E+00
        -11   -1    0    0    0    0  0.00000000000E+00  0.00000000000E+00  0.45593999997E+02  0.45594000000E+02  0.51100000000E-03 0. -1.
         11   -1    0    0    0    0 -0.00000000000E+00 -0.00000000000E+00 -0.45593999997E+02  0.45594000000E+02  0.51100000000E-03 0.  1.
    9900012    2    1    2    0    0 -0.35979984791E+02 -0.24270583641E+02 -0.52211111279E-01  0.47787271183E+02  0.20000000633E+02 0.  0.
         12    1    1    2    0    0  0.35979984791E+02  0.24270583641E+02  0.52211111279E-01  0.43400728817E+02  0.00000000000E+00 0. -1.
         11    1    3    3    0    0 -0.27535238695E+02 -0.16265621432E+02  0.21263018962E+01  0.32051224167E+02  0.51100000000E-03 0. -1.
        -11    1    3    3    0    0 -0.44640862646E+01 -0.58374316780E+01 -0.62471713873E+01  0.96452488499E+01  0.51100000000E-03 0.  1.
         12    1    3    3    0    0 -0.39806598313E+01 -0.21675305305E+01  0.40686583798E+01  0.60907981665E+01  0.00000000000E+00 0. -1.
</event>
<event>
 7    1  0.4477737E-009  0.4778729E+02  0.7816164E-02  0.1312668E+00
        -11   -1    0    0    0    0  0.00000000000E+00  0.00000000000E+00  0.45593999997E+02  0.45594000000E+02  0.51100000000E-03 0.  1.
         11   -1    0    0    0    0 -0.00000000000E+00 -0.00000000000E+00 -0.45593999997E+02  0.45594000000E+02  0.51100000000E-03 0. -1.
    9900012    2    1    2    0    0 -0.94217312471E+01 -0.20968156619E+02  0.36812894713E+02  0.47787287693E+02  0.20000075905E+02 0.  0.
         12    1    1    2    0    0  0.94217312471E+01  0.20968156619E+02 -0.36812894713E+02  0.43400712307E+02  0.00000000000E+00 0. -1.
         11    1    3    3    0    0 -0.48216550936E+00 -0.14935659411E+02  0.10865687486E+02  0.18476189283E+02  0.51100000000E-03 0. -1.
        -11    1    3    3    0    0 -0.34339653655E+01  0.13377417293E+01  0.12396038130E+02  0.12932263246E+02  0.51100000000E-03 0.  1.
         12    1    3    3    0    0 -0.55056003723E+01 -0.73702389372E+01  0.13551169097E+02  0.16378835164E+02  0.00000000000E+00 0. -1.
</event>
<event>
 7    1  0.5884705E-009  0.4778727E+02  0.7816164E-02  0.1312668E+00
        -11   -1    0    0    0    0  0.00000000000E+00  0.00000000000E+00  0.45593999997E+02  0.45594000000E+02  0.51100000000E-03 0.  1.
         11   -1    0    0    0    0 -0.00000000000E+00 -0.00000000000E+00 -0.45593999997E+02  0.45594000000E+02  0.51100000000E-03 0. -1.
    9900012    2    1    2    0    0 -0.19812322586E+02 -0.20426002383E+02  0.32770006357E+02  0.47787274012E+02  0.20000013532E+02 0.  0.
         12    1    1    2    0    0  0.19812322586E+02  0.20426002383E+02 -0.32770006357E+02  0.43400725988E+02  0.00000000000E+00 0. -1.
         11    1    3    3    0    0 -0.27902735622E+01  0.10748231205E+01  0.10747432206E+00  0.29920598729E+01  0.51100000000E-03 0. -1.
        -11    1    3    3    0    0 -0.66863137982E+01 -0.17487935792E+02  0.15226625785E+02  0.24132650570E+02  0.51100000000E-03 0.  1.
        -12    1    3    3    0    0 -0.10335735226E+02 -0.40128897113E+01  0.17435906250E+02  0.20662563570E+02  0.00000000000E+00 0.  1.
</event>
<event>
 7    1  0.4477737E-009  0.4778727E+02  0.7816164E-02  0.1312668E+00
        -11   -1    0    0    0    0  0.00000000000E+00  0.00000000000E+00  0.45593999997E+02  0.45594000000E+02  0.51100000000E-03 0.  1.
         11   -1    0    0    0    0 -0.00000000000E+00 -0.00000000000E+00 -0.45593999997E+02  0.45594000000E+02  0.51100000000E-03 0. -1.
    9900012    2    1    2    0    0  0.35810264579E+02  0.24311348526E+02 -0.31947611729E+01  0.47787271719E+02  0.20000003077E+02 0.  0.
         12    1    1    2    0    0 -0.35810264579E+02 -0.24311348526E+02  0.31947611729E+01  0.43400728281E+02  0.00000000000E+00 0. -1.
         11    1    3    3    0    0  0.13956618518E+02  0.25030286800E+01 -0.42217524623E+01  0.14794443117E+02  0.51100000000E-03 0. -1.
        -11    1    3    3    0    0  0.17320814194E+02  0.21886071505E+02  0.29542580594E+01  0.28066677239E+02  0.51100000000E-03 0.  1.
        -12    1    3    3    0    0  0.45328318661E+01 -0.77751659636E-01 -0.19272667700E+01  0.49261513629E+01  0.00000000000E+00 0.  1.
</event>
<event>
 7    1  0.4477737E-009  0.4778733E+02  0.7816164E-02  0.1312668E+00
        -11   -1    0    0    0    0  0.00000000000E+00  0.00000000000E+00  0.45593999997E+02  0.45594000000E+02  0.51100000000E-03 0.  1.
         11   -1    0    0    0    0 -0.00000000000E+00 -0.00000000000E+00 -0.45593999997E+02  0.45594000000E+02  0.51100000000E-03 0. -1.
    9900012    2    1    2    0    0 -0.17641522490E+02 -0.33285099230E+01  0.39513494810E+02  0.47787325280E+02  0.20000247279E+02 0.  0.
         12    1    1    2    0    0  0.17641522490E+02  0.33285099230E+01 -0.39513494810E+02  0.43400674720E+02  0.00000000000E+00 0. -1.
         11    1    3    3    0    0 -0.14332927144E+02  0.29024309786E+01  0.12047743932E+02  0.18947428327E+02  0.51100000000E-03 0. -1.
        -11    1    3    3    0    0 -0.47170084335E+01 -0.41490161691E+01  0.19477536461E+02  0.20465554735E+02  0.51100000000E-03 0.  1.
         12    1    3    3    0    0  0.14084130874E+01 -0.20819247326E+01  0.79882144165E+01  0.83743422178E+01  0.00000000000E+00 0. -1.
</event>
<event>
 7    1  0.4477737E-009  0.4778728E+02  0.7816164E-02  0.1312668E+00
        -11   -1    0    0    0    0  0.00000000000E+00  0.00000000000E+00  0.45593999997E+02  0.45594000000E+02  0.51100000000E-03 0.  1.
         11   -1    0    0    0    0 -0.00000000000E+00 -0.00000000000E+00 -0.45593999997E+02  0.45594000000E+02  0.51100000000E-03 0. -1.
    9900012    2    1    2    0    0 -0.25338003095E+02 -0.94632646883E+01  0.33941937270E+02  0.47787275524E+02  0.20000020425E+02 0.  0.
         12    1    1    2    0    0  0.25338003095E+02  0.94632646883E+01 -0.33941937270E+02  0.43400724476E+02  0.00000000000E+00 0. -1.
         11    1    3    3    0    0 -0.65691821363E+01  0.27014615480E+01  0.17611653632E+01  0.73180429168E+01  0.51100000000E-03 0. -1.
        -11    1    3    3    0    0 -0.69433109255E+01 -0.51525651324E+01  0.21128995672E+02  0.22829650729E+02  0.51100000000E-03 0.  1.
        -12    1    3    3    0    0 -0.11825510033E+02 -0.70121611040E+01  0.11051776234E+02  0.17639581878E+02  0.00000000000E+00 0.  1.
</event>
<event>
 7    1  0.4477737E-009  0.4778727E+02  0.7816164E-02  0.1312668E+00
        -11   -1    0    0    0    0  0.00000000000E+00  0.00000000000E+00  0.45593999997E+02  0.45594000000E+02  0.51100000000E-03 0. -1.
         11   -1    0    0    0    0 -0.00000000000E+00 -0.00000000000E+00 -0.45593999997E+02  0.45594000000E+02  0.51100000000E-03 0.  1.
    9900012    2    1    2    0    0 -0.19290634292E+02  0.14082589808E+01 -0.38852435969E+02  0.47787267915E+02  0.19999985733E+02 0.  0.
         12    1    1    2    0    0  0.19290634292E+02 -0.14082589808E+01  0.38852435969E+02  0.43400732085E+02  0.00000000000E+00 0. -1.
         11    1    3    3    0    0 -0.45514689620E+01  0.78893595465E+01 -0.75050561755E+01  0.11801852915E+02  0.51100000000E-03 0. -1.
        -11    1    3    3    0    0 -0.68359851816E+01 -0.60415373524E+01 -0.21468905567E+02  0.23326910929E+02  0.51100000000E-03 0.  1.
         12    1    3    3    0    0 -0.79031801484E+01 -0.43956321336E+00 -0.98784742263E+01  0.12658504071E+02  0.00000000000E+00 0. -1.
</event>
<event>
 7    1  0.4477737E-009  0.4778727E+02  0.7816164E-02  0.1312668E+00
        -11   -1    0    0    0    0  0.00000000000E+00  0.00000000000E+00  0.45593999997E+02  0.45594000000E+02  0.51100000000E-03 0.  1.
         11   -1    0    0    0    0 -0.00000000000E+00 -0.00000000000E+00 -0.45593999997E+02  0.45594000000E+02  0.51100000000E-03 0. -1.
    9900012    2    1    2    0    0 -0.34089415018E+01  0.22882829269E+02  0.36720275409E+02  0.47787269780E+02  0.19999994234E+02 0.  0.
         12    1    1    2    0    0  0.34089415018E+01 -0.22882829269E+02 -0.36720275409E+02  0.43400730220E+02  0.00000000000E+00 0. -1.
         11    1    3    3    0    0 -0.16453905247E+01  0.21658705249E+02  0.17284509277E+02  0.27758982046E+02  0.51100000000E-03 0. -1.
        -11    1    3    3    0    0  0.54541945623E+00  0.18495192328E+00  0.14207395116E+02  0.14219063465E+02  0.51100000000E-03 0.  1.
         12    1    3    3    0    0 -0.23089704333E+01  0.10391720964E+01  0.52283710169E+01  0.58092242682E+01  0.00000000000E+00 0. -1.
</event>
<event>
 7    1  0.4477737E-009  0.4778727E+02  0.7816164E-02  0.1312668E+00
        -11   -1    0    0    0    0  0.00000000000E+00  0.00000000000E+00  0.45593999997E+02  0.45594000000E+02  0.51100000000E-03 0.  1.
         11   -1    0    0    0    0 -0.00000000000E+00 -0.00000000000E+00 -0.45593999997E+02  0.45594000000E+02  0.51100000000E-03 0. -1.
    9900012    2    1    2    0    0  0.27342543147E+02  0.70386278236E+01  0.32961586769E+02  0.47787272475E+02  0.20000006523E+02 0.  0.
         12    1    1    2    0    0 -0.27342543147E+02 -0.70386278236E+01 -0.32961586769E+02  0.43400727525E+02  0.00000000000E+00 0. -1.
         11    1    3    3    0    0  0.41314923180E+01 -0.27755186751E+00  0.13889537191E+01  0.43675458221E+01  0.51100000000E-03 0. -1.
        -11    1    3    3    0    0  0.10914562130E+02 -0.34465603979E+01  0.56206199331E+01  0.12751384778E+02  0.51100000000E-03 0.  1.
        -12    1    3    3    0    0  0.12296488699E+02  0.10762740089E+02  0.25952013117E+02  0.30668341875E+02  0.00000000000E+00 0.  1.
</event>
<event>
 7    1  0.4477737E-009  0.4778727E+02  0.7816164E-02  0.1312668E+00
        -11   -1    0    0    0    0  0.00000000000E+00  0.00000000000E+00  0.45593999997E+02  0.45594000000E+02  0.51100000000E-03 0.  1.
         11   -1    0    0    0    0 -0.00000000000E+00 -0.00000000000E+00 -0.45593999997E+02  0.45594000000E+02  0.51100000000E-03 0. -1.
    9900012    2    1    2    0    0  0.36458712616E+02  0.15227885047E+02 -0.17958212934E+02  0.47787267052E+02  0.19999981798E+02 0.  0.
         12    1    1    2    0    0 -0.36458712616E+02 -0.15227885047E+02  0.17958212934E+02  0.43400732948E+02  0.00000000000E+00 0. -1.
         11    1    3    3    0    0  0.24277044852E+01  0.27962047564E+01  0.22793737593E+01  0.43483393500E+01  0.51100000000E-03 0. -1.
        -11    1    3    3    0    0  0.34552436984E+02  0.12379855924E+02 -0.21168814959E+02  0.42370396048E+02  0.51100000000E-03 0.  1.
        -12    1    3    3    0    0 -0.52142885267E+00  0.51824366756E-01  0.93122826604E+00  0.10685316546E+01  0.00000000000E+00 0.  1.
</event>
<event>
 7    1  0.4477737E-009  0.4778727E+02  0.7816164E-02  0.1312668E+00
        -11   -1    0    0    0    0  0.00000000000E+00  0.00000000000E+00  0.45593999997E+02  0.45594000000E+02  0.51100000000E-03 0. -1.
         11   -1    0    0    0    0 -0.00000000000E+00 -0.00000000000E+00 -0.45593999997E+02  0.45594000000E+02  0.51100000000E-03 0.  1.
    9900012    2    1    2    0    0 -0.71790009004E+01 -0.42427694928E+02  0.56547330755E+01  0.47787270087E+02  0.19999995635E+02 0.  0.
         12    1    1    2    0    0  0.71790009004E+01  0.42427694928E+02 -0.56547330755E+01  0.43400729913E+02  0.00000000000E+00 0. -1.
         11    1    3    3    0    0 -0.60549357962E+01 -0.12253671622E+02 -0.48783707479E+01  0.14512519324E+02  0.51100000000E-03 0. -1.
        -11    1    3    3    0    0  0.30758729385E+01 -0.21785082045E+02  0.89905108157E+01  0.23767205957E+02  0.51100000000E-03 0.  1.
        -12    1    3    3    0    0 -0.41999380427E+01 -0.83889412607E+01  0.15425930077E+01  0.95075448053E+01  0.00000000000E+00 0.  1.
</event>
<event>
 7    1  0.4477737E-009  0.4778727E+02  0.7816164E-02  0.1312668E+00
        -11   -1    0    0    0    0  0.00000000000E+00  0.00000000000E+00  0.45593999997E+02  0.45594000000E+02  0.51100000000E-03 0.  1.
         11   -1    0    0    0    0 -0.00000000000E+00 -0.00000000000E+00 -0.45593999997E+02  0.45594000000E+02  0.51100000000E-03 0. -1.
    9900012    2    1    2    0    0  0.30086044562E+02 -0.11951354980E+01  0.31257394802E+02  0.47787272402E+02  0.20000006188E+02 0.  0.
         12    1    1    2    0    0 -0.30086044562E+02  0.11951354980E+01 -0.31257394802E+02  0.43400727598E+02  0.00000000000E+00 0. -1.
         11    1    3    3    0    0  0.91268427358E+01  0.82528210182E+01  0.98987724098E+01  0.15792213542E+02  0.51100000000E-03 0. -1.
        -11    1    3    3    0    0  0.15915256584E+02 -0.42117252232E+01  0.16056311951E+02  0.22996503543E+02  0.51100000000E-03 0.  1.
         12    1    3    3    0    0  0.50439452422E+01 -0.52362312929E+01  0.53023104419E+01  0.89985553164E+01  0.00000000000E+00 0. -1.
</event>
<event>
 7    1  0.4477737E-009  0.4778727E+02  0.7816164E-02  0.1312668E+00
        -11   -1    0    0    0    0  0.00000000000E+00  0.00000000000E+00  0.45593999997E+02  0.45594000000E+02  0.51100000000E-03 0. -1.
         11   -1    0    0    0    0 -0.00000000000E+00 -0.00000000000E+00 -0.45593999997E+02  0.45594000000E+02  0.51100000000E-03 0.  1.
    9900012    2    1    2    0    0 -0.15412798838E+02 -0.39951567529E+02 -0.70668855958E+01  0.47787274337E+02  0.20000015013E+02 0.  0.
         12    1    1    2    0    0  0.15412798838E+02  0.39951567529E+02  0.70668855958E+01  0.43400725663E+02  0.00000000000E+00 0. -1.
         11    1    3    3    0    0  0.44158702389E+01 -0.11017438243E+02 -0.31553982087E+01  0.12281709715E+02  0.51100000000E-03 0. -1.
        -11    1    3    3    0    0 -0.12126023776E+02 -0.19273288583E+02 -0.41595901159E+01  0.23147403647E+02  0.51100000000E-03 0.  1.
         12    1    3    3    0    0 -0.77026453012E+01 -0.96608407026E+01  0.24810272874E+00  0.12358160975E+02  0.00000000000E+00 0. -1.
</event>
<event>
 7    1  0.4477737E-009  0.4778727E+02  0.7816164E-02  0.1312668E+00
        -11   -1    0    0    0    0  0.00000000000E+00  0.00000000000E+00  0.45593999997E+02  0.45594000000E+02  0.51100000000E-03 0. -1.
         11   -1    0    0    0    0 -0.00000000000E+00 -0.00000000000E+00 -0.45593999997E+02  0.45594000000E+02  0.51100000000E-03 0.  1.
    9900012    2    1    2    0    0 -0.38041205640E+02  0.90193978428E+01 -0.18845169824E+02  0.47787270862E+02  0.19999999170E+02 0.  0.
         12    1    1    2    0    0  0.38041205640E+02 -0.90193978428E+01  0.18845169824E+02  0.43400729138E+02  0.00000000000E+00 0. -1.
         11    1    3    3    0    0 -0.79222773647E+01  0.97968523920E+01 -0.70554056628E+01  0.14440205842E+02  0.51100000000E-03 0.  1.
        -11    1    3    3    0    0 -0.23219763384E+02 -0.40284753636E+01 -0.89033907295E+01  0.25192387583E+02  0.51100000000E-03 0. -1.
         12    1    3    3    0    0 -0.68991648909E+01  0.32510208144E+01 -0.28863734316E+01  0.81546774377E+01  0.00000000000E+00 0. -1.
</event>
<event>
 7    1  0.4477737E-009  0.4778727E+02  0.7816164E-02  0.1312668E+00
        -11   -1    0    0    0    0  0.00000000000E+00  0.00000000000E+00  0.45593999997E+02  0.45594000000E+02  0.51100000000E-03 0.  1.
         11   -1    0    0    0    0 -0.00000000000E+00 -0.00000000000E+00 -0.45593999997E+02  0.45594000000E+02  0.51100000000E-03 0. -1.
    9900012    2    1    2    0    0  0.29911591428E+02 -0.72926670143E+01  0.30589817947E+02  0.47787271251E+02  0.20000000940E+02 0.  0.
         12    1    1    2    0    0 -0.29911591428E+02  0.72926670143E+01 -0.30589817947E+02  0.43400728749E+02  0.00000000000E+00 0. -1.
         11    1    3    3    0    0 -0.14525097570E+01 -0.30295394898E+00  0.21116550167E+00  0.14987183923E+01  0.51100000000E-03 0. -1.
        -11    1    3    3    0    0  0.22656085682E+02 -0.91040566377E+01  0.27722611476E+02  0.36942187983E+02  0.51100000000E-03 0.  1.
        -12    1    3    3    0    0  0.87080155032E+01  0.21143435724E+01  0.26560409698E+01  0.93463648752E+01  0.00000000000E+00 0.  1.
</event>
<event>
 7    1  0.4477737E-009  0.4778727E+02  0.7816164E-02  0.1312668E+00
        -11   -1    0    0    0    0  0.00000000000E+00  0.00000000000E+00  0.45593999997E+02  0.45594000000E+02  0.51100000000E-03 0.  1.
         11   -1    0    0    0    0 -0.00000000000E+00 -0.00000000000E+00 -0.45593999997E+02  0.45594000000E+02  0.51100000000E-03 0. -1.
    9900012    2    1    2    0    0 -0.15373782773E+02  0.15325085150E+02  0.37582066729E+02  0.47787272227E+02  0.20000005390E+02 0.  0.
         12    1    1    2    0    0  0.15373782773E+02 -0.15325085150E+02 -0.37582066729E+02  0.43400727773E+02  0.00000000000E+00 0. -1.
         11    1    3    3    0    0 -0.15655888422E+02  0.38941826140E+01  0.14642559257E+02  0.21787061353E+02  0.51100000000E-03 0. -1.
        -11    1    3    3    0    0 -0.16795025754E+01  0.80705016023E+01  0.17097621291E+02  0.18981105844E+02  0.51100000000E-03 0.  1.
         12    1    3    3    0    0  0.19616082243E+01  0.33604009340E+01  0.58418861812E+01  0.70191050296E+01  0.00000000000E+00 0. -1.
</event>
<event>
 7    1  0.4477737E-009  0.4778727E+02  0.7816164E-02  0.1312668E+00
        -11   -1    0    0    0    0  0.00000000000E+00  0.00000000000E+00  0.45593999997E+02  0.45594000000E+02  0.51100000000E-03 0.  1.
         11   -1    0    0    0    0 -0.00000000000E+00 -0.00000000000E+00 -0.45593999997E+02  0.45594000000E+02  0.51100000000E-03 0. -1.
    9900012    2    1    2    0    0  0.21423760127E+02 -0.36156246178E+02  0.10833821922E+02  0.47787270362E+02  0.19999996888E+02 0.  0.
         12    1    1    2    0    0 -0.21423760127E+02  0.36156246178E+02 -0.10833821922E+02  0.43400729638E+02  0.00000000000E+00 0. -1.
         11    1    3    3    0    0  0.15266950301E+02 -0.34342912227E+02  0.42936025202E+01  0.37827905237E+02  0.51100000000E-03 0.  1.
        -11    1    3    3    0    0  0.42514827146E+01 -0.75395528641E+00  0.64696725124E+01  0.77781885118E+01  0.51100000000E-03 0. -1.
         12    1    3    3    0    0  0.19053271112E+01 -0.10593786646E+01  0.70546889886E-01  0.21811766135E+01  0.00000000000E+00 0. -1.
</event>
<event>
 7    1  0.4477737E-009  0.4778727E+02  0.7816164E-02  0.1312668E+00
        -11   -1    0    0    0    0  0.00000000000E+00  0.00000000000E+00  0.45593999997E+02  0.45594000000E+02  0.51100000000E-03 0.  1.
         11   -1    0    0    0    0 -0.00000000000E+00 -0.00000000000E+00 -0.45593999997E+02  0.45594000000E+02  0.51100000000E-03 0. -1.
    9900012    2    1    2    0    0  0.32845015605E+02  0.17992203903E+02  0.21934196994E+02  0.47787269025E+02  0.19999990791E+02 0.  0.
         12    1    1    2    0    0 -0.32845015605E+02 -0.17992203903E+02 -0.21934196994E+02  0.43400730975E+02  0.00000000000E+00 0. -1.
         11    1    3    3    0    0  0.10276043715E+02 -0.22901222822E+01  0.90527830999E+01  0.13885050112E+02  0.51100000000E-03 0. -1.
        -11    1    3    3    0    0  0.13045589487E+02  0.10496949507E+02  0.11199224796E+02  0.20144378628E+02  0.51100000000E-03 0.  1.
         12    1    3    3    0    0  0.95233824033E+01  0.97853766785E+01  0.16821890984E+01  0.13757840285E+02  0.00000000000E+00 0. -1.
</event>
<event>
 7    1  0.4477737E-009  0.4778727E+02  0.7816164E-02  0.1312668E+00
        -11   -1    0    0    0    0  0.00000000000E+00  0.00000000000E+00  0.45593999997E+02  0.45594000000E+02  0.51100000000E-03 0.  1.
         11   -1    0    0    0    0 -0.00000000000E+00 -0.00000000000E+00 -0.45593999997E+02  0.45594000000E+02  0.51100000000E-03 0. -1.
    9900012    2    1    2    0    0 -0.23172804151E+02 -0.26341812215E+02  0.25549040028E+02  0.47787269945E+02  0.19999994987E+02 0.  0.
         12    1    1    2    0    0  0.23172804151E+02  0.26341812215E+02 -0.25549040028E+02  0.43400730055E+02  0.00000000000E+00 0. -1.
         11    1    3    3    0    0 -0.56650526190E+01 -0.12033662605E+02  0.22401217115E+00  0.13302332073E+02  0.51100000000E-03 0. -1.
        -11    1    3    3    0    0 -0.48216929932E+01 -0.11406928109E+01  0.71935704973E+01  0.87348360128E+01  0.51100000000E-03 0.  1.
         12    1    3    3    0    0 -0.12686058539E+02 -0.13167456799E+02  0.18131457359E+02  0.25750101859E+02  0.00000000000E+00 0. -1.
</event>
<event>
 7    1  0.4477737E-009  0.4778727E+02  0.7816164E-02  0.1312668E+00
        -11   -1    0    0    0    0  0.00000000000E+00  0.00000000000E+00  0.45593999997E+02  0.45594000000E+02  0.51100000000E-03 0.  1.
         11   -1    0    0    0    0 -0.00000000000E+00 -0.00000000000E+00 -0.45593999997E+02  0.45594000000E+02  0.51100000000E-03 0. -1.
    9900012    2    1    2    0    0  0.32330781145E+02  0.28626667071E+02 -0.43425642220E+01  0.47787270270E+02  0.19999996470E+02 0.  0.
         12    1    1    2    0    0 -0.32330781145E+02 -0.28626667071E+02  0.43425642220E+01  0.43400729730E+02  0.00000000000E+00 0. -1.
         11    1    3    3    0    0  0.87934967300E+01  0.16883064555E+02  0.32203823879E+01  0.19306328405E+02  0.51100000000E-03 0. -1.
        -11    1    3    3    0    0  0.10392002091E+02  0.82338119214E+01 -0.78866040693E+00  0.13281993515E+02  0.51100000000E-03 0.  1.
         12    1    3    3    0    0  0.13145282324E+02  0.35097905949E+01 -0.67742862030E+01  0.15198948350E+02  0.00000000000E+00 0. -1.
</event>
<event>
 7    1  0.4477737E-009  0.4778727E+02  0.7816164E-02  0.1312668E+00
        -11   -1    0    0    0    0  0.00000000000E+00  0.00000000000E+00  0.45593999997E+02  0.45594000000E+02  0.51100000000E-03 0.  1.
         11   -1    0    0    0    0 -0.00000000000E+00 -0.00000000000E+00 -0.45593999997E+02  0.45594000000E+02  0.51100000000E-03 0. -1.
    9900012    2    1    2    0    0 -0.33576508088E+02  0.26733256648E+02 -0.64478273632E+01  0.47787269774E+02  0.19999994210E+02 0.  0.
         12    1    1    2    0    0  0.33576508088E+02 -0.26733256648E+02  0.64478273632E+01  0.43400730226E+02  0.00000000000E+00 0. -1.
         11    1    3    3    0    0 -0.92100663290E+01  0.64319465269E+01 -0.96259942427E+01  0.14793749468E+02  0.51100000000E-03 0. -1.
        -11    1    3    3    0    0 -0.62382050878E+01  0.10299178543E+02  0.23773787647E+01  0.12273557407E+02  0.51100000000E-03 0.  1.
         12    1    3    3    0    0 -0.18128236672E+02  0.10002131578E+02  0.80078811488E+00  0.20719962899E+02  0.00000000000E+00 0. -1.
</event>
<event>
 7    1  0.4477737E-009  0.4778727E+02  0.7816164E-02  0.1312668E+00
        -11   -1    0    0    0    0  0.00000000000E+00  0.00000000000E+00  0.45593999997E+02  0.45594000000E+02  0.51100000000E-03 0.  1.
         11   -1    0    0    0    0 -0.00000000000E+00 -0.00000000000E+00 -0.45593999997E+02  0.45594000000E+02  0.51100000000E-03 0. -1.
    9900012    2    1    2    0    0  0.42168041579E+02  0.36692018076E+01  0.95925271024E+01  0.47787270182E+02  0.19999996068E+02 0.  0.
         12    1    1    2    0    0 -0.42168041579E+02 -0.36692018076E+01 -0.95925271024E+01  0.43400729818E+02  0.00000000000E+00 0. -1.
         11    1    3    3    0    0  0.32414019762E+02  0.56717821301E+01  0.77482321143E+01  0.33806403104E+02  0.51100000000E-03 0. -1.
        -11    1    3    3    0    0  0.89662950273E+01  0.43818761525E+00  0.47079268145E+01  0.10136618275E+02  0.51100000000E-03 0.  1.
         12    1    3    3    0    0  0.78772678936E+00 -0.24407679378E+01 -0.28636318264E+01  0.38442488028E+01  0.00000000000E+00 0. -1.
</event>
<event>
 7    1  0.4477737E-009  0.4778727E+02  0.7816164E-02  0.1312668E+00
        -11   -1    0    0    0    0  0.00000000000E+00  0.00000000000E+00  0.45593999997E+02  0.45594000000E+02  0.51100000000E-03 0.  1.
         11   -1    0    0    0    0 -0.00000000000E+00 -0.00000000000E+00 -0.45593999997E+02  0.45594000000E+02  0.51100000000E-03 0. -1.
    9900012    2    1    2    0    0  0.24219378062E+02  0.30133583515E+02  0.19723385740E+02  0.47787273345E+02  0.20000010489E+02 0.  0.
         12    1    1    2    0    0 -0.24219378062E+02 -0.30133583515E+02 -0.19723385740E+02  0.43400726655E+02  0.00000000000E+00 0. -1.
         11    1    3    3    0    0  0.49867416894E+01  0.11837049494E+01 -0.21016010891E+01  0.55394473987E+01  0.51100000000E-03 0. -1.
        -11    1    3    3    0    0  0.11630927701E+02  0.11093898644E+02  0.58265234902E+01  0.17096825511E+02  0.51100000000E-03 0.  1.
         12    1    3    3    0    0  0.76017086708E+01  0.17855979922E+02  0.15998463339E+02  0.25151000435E+02  0.00000000000E+00 0. -1.
</event>
<event>
 7    1  0.4477737E-009  0.4778727E+02  0.7816164E-02  0.1312668E+00
        -11   -1    0    0    0    0  0.00000000000E+00  0.00000000000E+00  0.45593999997E+02  0.45594000000E+02  0.51100000000E-03 0.  1.
         11   -1    0    0    0    0 -0.00000000000E+00 -0.00000000000E+00 -0.45593999997E+02  0.45594000000E+02  0.51100000000E-03 0. -1.
    9900012    2    1    2    0    0 -0.13464573555E+02  0.12985979061E+02  0.39162391101E+02  0.47787271090E+02  0.20000000209E+02 0.  0.
         12    1    1    2    0    0  0.13464573555E+02 -0.12985979061E+02 -0.39162391101E+02  0.43400728910E+02  0.00000000000E+00 0. -1.
         11    1    3    3    0    0 -0.28867859175E+01  0.43229199891E+01  0.11727445890E+01  0.53288366739E+01  0.51100000000E-03 0. -1.
        -11    1    3    3    0    0 -0.72701786201E+01  0.27170597526E+01  0.33305578523E+02  0.34197945434E+02  0.51100000000E-03 0.  1.
        -12    1    3    3    0    0 -0.33076090172E+01  0.59459993190E+01  0.46840679882E+01  0.82604889825E+01  0.00000000000E+00 0.  1.
</event>
<event>
 7    1  0.4477737E-009  0.4778723E+02  0.7816164E-02  0.1312668E+00
        -11   -1    0    0    0    0  0.00000000000E+00  0.00000000000E+00  0.45593999997E+02  0.45594000000E+02  0.51100000000E-03 0.  1.
         11   -1    0    0    0    0 -0.00000000000E+00 -0.00000000000E+00 -0.45593999997E+02  0.45594000000E+02  0.51100000000E-03 0. -1.
    9900012    2    1    2    0    0 -0.11318840643E+02 -0.12152156758E+02  0.40097827073E+02  0.47787230383E+02  0.19999814605E+02 0.  0.
         12    1    1    2    0    0  0.11318840643E+02  0.12152156758E+02 -0.40097827073E+02  0.43400769617E+02  0.00000000000E+00 0. -1.
         11    1    3    3    0    0 -0.34066390701E+01 -0.79110426781E+01  0.98359404877E+01  0.13074230821E+02  0.51100000000E-03 0.  1.
        -11    1    3    3    0    0  0.23844553986E+01  0.20715236134E+01  0.14568599203E+01  0.34784017475E+01  0.51100000000E-03 0. -1.
        -12    1    3    3    0    0 -0.10296656972E+02 -0.63126376933E+01  0.28805026665E+02  0.31234597815E+02  0.00000000000E+00 0.  1.
</event>
<event>
 7    1  0.4477737E-009  0.4778727E+02  0.7816164E-02  0.1312668E+00
        -11   -1    0    0    0    0  0.00000000000E+00  0.00000000000E+00  0.45593999997E+02  0.45594000000E+02  0.51100000000E-03 0.  1.
         11   -1    0    0    0    0 -0.00000000000E+00 -0.00000000000E+00 -0.45593999997E+02  0.45594000000E+02  0.51100000000E-03 0. -1.
    9900012    2    1    2    0    0  0.18655220081E+02 -0.38968645181E+02  0.41292645366E+01  0.47787269947E+02  0.19999994995E+02 0.  0.
         12    1    1    2    0    0 -0.18655220081E+02  0.38968645181E+02 -0.41292645366E+01  0.43400730053E+02  0.00000000000E+00 0. -1.
         11    1    3    3    0    0 -0.67359439283E+00 -0.32530610108E+01  0.51681953314E+01  0.61438081506E+01  0.51100000000E-03 0. -1.
        -11    1    3    3    0    0  0.14547143008E+02 -0.32864554106E+02  0.19727944506E+00  0.35940745759E+02  0.51100000000E-03 0.  1.
         12    1    3    3    0    0  0.47816714665E+01 -0.28510300641E+01 -0.12362102399E+01  0.57027160369E+01  0.00000000000E+00 0. -1.
</event>
<event>
 7    1  0.4477737E-009  0.4778727E+02  0.7816164E-02  0.1312668E+00
        -11   -1    0    0    0    0  0.00000000000E+00  0.00000000000E+00  0.45593999997E+02  0.45594000000E+02  0.51100000000E-03 0.  1.
         11   -1    0    0    0    0 -0.00000000000E+00 -0.00000000000E+00 -0.45593999997E+02  0.45594000000E+02  0.51100000000E-03 0. -1.
    9900012    2    1    2    0    0  0.35513196849E+02 -0.21548632749E+02  0.12573479688E+02  0.47787272872E+02  0.20000008331E+02 0.  0.
         12    1    1    2    0    0 -0.35513196849E+02  0.21548632749E+02 -0.12573479688E+02  0.43400727128E+02  0.00000000000E+00 0. -1.
         11    1    3    3    0    0  0.47339237451E+01 -0.91554137028E+01 -0.81019553555E+00  0.10338667765E+02  0.51100000000E-03 0. -1.
        -11    1    3    3    0    0  0.23019481919E+02 -0.12525386067E+02  0.13910966209E+02  0.29669796512E+02  0.51100000000E-03 0.  1.
        -12    1    3    3    0    0  0.77597911855E+01  0.13216702066E+00 -0.52729098564E+00  0.77788085943E+01  0.00000000000E+00 0.  1.
</event>
<event>
 7    1  0.4477737E-009  0.4778727E+02  0.7816164E-02  0.1312668E+00
        -11   -1    0    0    0    0  0.00000000000E+00  0.00000000000E+00  0.45593999997E+02  0.45594000000E+02  0.51100000000E-03 0.  1.
         11   -1    0    0    0    0 -0.00000000000E+00 -0.00000000000E+00 -0.45593999997E+02  0.45594000000E+02  0.51100000000E-03 0. -1.
    9900012    2    1    2    0    0  0.24150448646E+02 -0.24286247109E+02  0.26656276780E+02  0.47787273506E+02  0.20000011221E+02 0.  0.
         12    1    1    2    0    0 -0.24150448646E+02  0.24286247109E+02 -0.26656276780E+02  0.43400726494E+02  0.00000000000E+00 0. -1.
         11    1    3    3    0    0  0.65332940241E+01 -0.86376466751E+01 -0.14488180412E+01  0.10926662110E+02  0.51100000000E-03 0. -1.
        -11    1    3    3    0    0  0.14472073520E+02 -0.13755492294E+02  0.21776112657E+02  0.29544095229E+02  0.51100000000E-03 0.  1.
         12    1    3    3    0    0  0.31450811024E+01 -0.18931081400E+01  0.63289821649E+01  0.73165161664E+01  0.00000000000E+00 0. -1.
</event>
<event>
 7    1  0.4477737E-009  0.4778727E+02  0.7816164E-02  0.1312668E+00
        -11   -1    0    0    0    0  0.00000000000E+00  0.00000000000E+00  0.45593999997E+02  0.45594000000E+02  0.51100000000E-03 0.  1.
         11   -1    0    0    0    0 -0.00000000000E+00 -0.00000000000E+00 -0.45593999997E+02  0.45594000000E+02  0.51100000000E-03 0. -1.
    9900012    2    1    2    0    0  0.99566442534E+01 -0.17502442055E+02  0.38446755904E+02  0.47787270948E+02  0.19999999561E+02 0.  0.
         12    1    1    2    0    0 -0.99566442534E+01  0.17502442055E+02 -0.38446755904E+02  0.43400729052E+02  0.00000000000E+00 0. -1.
         11    1    3    3    0    0  0.39801526285E+01  0.11311845058E+01  0.66525691187E+01  0.78344029430E+01  0.51100000000E-03 0. -1.
        -11    1    3    3    0    0  0.43688937761E+01 -0.20113988432E+02  0.31660982292E+02  0.37763442156E+02  0.51100000000E-03 0.  1.
        -12    1    3    3    0    0  0.16075978489E+01  0.14803618711E+01  0.13320449318E+00  0.21894258494E+01  0.00000000000E+00 0.  1.
</event>
<event>
 7    1  0.4477737E-009  0.4778728E+02  0.7816164E-02  0.1312668E+00
        -11   -1    0    0    0    0  0.00000000000E+00  0.00000000000E+00  0.45593999997E+02  0.45594000000E+02  0.51100000000E-03 0.  1.
         11   -1    0    0    0    0 -0.00000000000E+00 -0.00000000000E+00 -0.45593999997E+02  0.45594000000E+02  0.51100000000E-03 0. -1.
    9900012    2    1    2    0    0  0.28562724542E+02 -0.32429052324E+02 -0.40187255596E+01  0.47787276239E+02  0.20000023683E+02 0.  0.
         12    1    1    2    0    0 -0.28562724542E+02  0.32429052324E+02  0.40187255596E+01  0.43400723761E+02  0.00000000000E+00 0. -1.
         11    1    3    3    0    0  0.11072885864E+02 -0.29855080695E+01 -0.57306475398E+01  0.12820389279E+02  0.51100000000E-03 0. -1.
        -11    1    3    3    0    0  0.11807464594E+02 -0.24803615451E+02  0.17330391923E+00  0.27471177516E+02  0.51100000000E-03 0.  1.
        -12    1    3    3    0    0  0.56823740838E+01 -0.46399288030E+01  0.15386180610E+01  0.74957094436E+01  0.00000000000E+00 0.  1.
</event>
<event>
 7    1  0.4477737E-009  0.4778727E+02  0.7816164E-02  0.1312668E+00
        -11   -1    0    0    0    0  0.00000000000E+00  0.00000000000E+00  0.45593999997E+02  0.45594000000E+02  0.51100000000E-03 0.  1.
         11   -1    0    0    0    0 -0.00000000000E+00 -0.00000000000E+00 -0.45593999997E+02  0.45594000000E+02  0.51100000000E-03 0. -1.
    9900012    2    1    2    0    0  0.39416082396E+02  0.57672035719E+00  0.18156624625E+02  0.47787272177E+02  0.20000005163E+02 0.  0.
         12    1    1    2    0    0 -0.39416082396E+02 -0.57672035719E+00 -0.18156624625E+02  0.43400727823E+02  0.00000000000E+00 0. -1.
         11    1    3    3    0    0  0.30355578832E+02  0.87455762616E+01  0.15902221039E+02  0.35367031323E+02  0.51100000000E-03 0.  1.
        -11    1    3    3    0    0  0.80935960533E+01 -0.73207850596E+01  0.22007470577E+01  0.11132990561E+02  0.51100000000E-03 0. -1.
        -12    1    3    3    0    0  0.96690751105E+00 -0.84807084481E+00  0.53656527823E-01  0.12872502926E+01  0.00000000000E+00 0.  1.
</event>
<event>
 7    1  0.4477737E-009  0.4778729E+02  0.7816164E-02  0.1312668E+00
        -11   -1    0    0    0    0  0.00000000000E+00  0.00000000000E+00  0.45593999997E+02  0.45594000000E+02  0.51100000000E-03 0. -1.
         11   -1    0    0    0    0 -0.00000000000E+00 -0.00000000000E+00 -0.45593999997E+02  0.45594000000E+02  0.51100000000E-03 0.  1.
    9900012    2    1    2    0    0  0.19733739968E+02 -0.18374101265E+02 -0.34008731916E+02  0.47787286447E+02  0.20000070224E+02 0.  0.
         12    1    1    2    0    0 -0.19733739968E+02  0.18374101265E+02  0.34008731916E+02  0.43400713553E+02  0.00000000000E+00 0. -1.
         11    1    3    3    0    0 -0.18063986883E+01 -0.24262393838E+01 -0.91828142957E+00  0.31611635221E+01  0.51100000000E-03 0. -1.
        -11    1    3    3    0    0  0.23419740626E+02 -0.14381214497E+02 -0.30025367904E+02  0.40704131233E+02  0.51100000000E-03 0.  1.
        -12    1    3    3    0    0 -0.18796019698E+01 -0.15666473846E+01 -0.30650825822E+01  0.39219916915E+01  0.00000000000E+00 0.  1.
</event>
<event>
 7    1  0.4477737E-009  0.4778728E+02  0.7816164E-02  0.1312668E+00
        -11   -1    0    0    0    0  0.00000000000E+00  0.00000000000E+00  0.45593999997E+02  0.45594000000E+02  0.51100000000E-03 0. -1.
         11   -1    0    0    0    0 -0.00000000000E+00 -0.00000000000E+00 -0.45593999997E+02  0.45594000000E+02  0.51100000000E-03 0.  1.
    9900012    2    1    2    0    0 -0.28073121021E+02 -0.30077414821E+02 -0.13815627418E+02  0.47787279187E+02  0.20000037124E+02 0.  0.
         12    1    1    2    0    0  0.28073121021E+02  0.30077414821E+02  0.13815627418E+02  0.43400720813E+02  0.00000000000E+00 0. -1.
         11    1    3    3    0    0 -0.26185743724E+02 -0.17476427118E+02 -0.82107700292E+01  0.32535141370E+02  0.51100000000E-03 0. -1.
        -11    1    3    3    0    0 -0.60883248944E+00 -0.63477429277E+01  0.53045820167E+00  0.63988986115E+01  0.51100000000E-03 0.  1.
         12    1    3    3    0    0 -0.12785448074E+01 -0.62532447751E+01 -0.61353155903E+01  0.88532392057E+01  0.00000000000E+00 0. -1.
</event>
<event>
 7    1  0.4477737E-009  0.4778727E+02  0.7816164E-02  0.1312668E+00
        -11   -1    0    0    0    0  0.00000000000E+00  0.00000000000E+00  0.45593999997E+02  0.45594000000E+02  0.51100000000E-03 0.  1.
         11   -1    0    0    0    0 -0.00000000000E+00 -0.00000000000E+00 -0.45593999997E+02  0.45594000000E+02  0.51100000000E-03 0. -1.
    9900012    2    1    2    0    0  0.22255357188E+02  0.22179055481E+02  0.29940137464E+02  0.47787271240E+02  0.20000000891E+02 0.  0.
         12    1    1    2    0    0 -0.22255357188E+02 -0.22179055481E+02 -0.29940137464E+02  0.43400728760E+02  0.00000000000E+00 0. -1.
         11    1    3    3    0    0  0.12988709517E+02  0.91988423761E+01  0.40100583472E+01  0.16413587182E+02  0.51100000000E-03 0. -1.
        -11    1    3    3    0    0  0.21611081794E+01  0.93898695533E+01  0.12847551281E+02  0.16059253189E+02  0.51100000000E-03 0.  1.
         12    1    3    3    0    0  0.71055394912E+01  0.35903435512E+01  0.13082527836E+02  0.15314430869E+02  0.00000000000E+00 0. -1.
</event>
<event>
 7    1  0.4477737E-009  0.4778727E+02  0.7816164E-02  0.1312668E+00
        -11   -1    0    0    0    0  0.00000000000E+00  0.00000000000E+00  0.45593999997E+02  0.45594000000E+02  0.51100000000E-03 0.  1.
         11   -1    0    0    0    0 -0.00000000000E+00 -0.00000000000E+00 -0.45593999997E+02  0.45594000000E+02  0.51100000000E-03 0. -1.
    9900012    2    1    2    0    0  0.35472927588E+02  0.52321771662E+01  0.24452381984E+02  0.47787271270E+02  0.20000001030E+02 0.  0.
         12    1    1    2    0    0 -0.35472927588E+02 -0.52321771662E+01 -0.24452381984E+02  0.43400728730E+02  0.00000000000E+00 0. -1.
         11    1    3    3    0    0  0.31882068340E+02 -0.34002215166E+00  0.19452165016E+02  0.37349278718E+02  0.51100000000E-03 0.  1.
        -11    1    3    3    0    0  0.80988546002E-01  0.56466623185E+01  0.32417481295E+01  0.65115501749E+01  0.51100000000E-03 0. -1.
         12    1    3    3    0    0  0.35098707029E+01 -0.74463000650E-01  0.17584688379E+01  0.39264423774E+01  0.00000000000E+00 0. -1.
</event>
<event>
 7    1  0.4477737E-009  0.4778727E+02  0.7816164E-02  0.1312668E+00
        -11   -1    0    0    0    0  0.00000000000E+00  0.00000000000E+00  0.45593999997E+02  0.45594000000E+02  0.51100000000E-03 0.  1.
         11   -1    0    0    0    0 -0.00000000000E+00 -0.00000000000E+00 -0.45593999997E+02  0.45594000000E+02  0.51100000000E-03 0. -1.
    9900012    2    1    2    0    0  0.22549868517E+01 -0.10965233090E+02  0.41932115204E+02  0.47787267426E+02  0.19999983504E+02 0.  0.
         12    1    1    2    0    0 -0.22549868517E+01  0.10965233090E+02 -0.41932115204E+02  0.43400732574E+02  0.00000000000E+00 0. -1.
         11    1    3    3    0    0  0.41939198526E+01 -0.78076661431E+01  0.83287255598E+01  0.12162083869E+02  0.51100000000E-03 0.  1.
        -11    1    3    3    0    0 -0.41481549118E+01 -0.60956836654E+01  0.27753120806E+02  0.28715853866E+02  0.51100000000E-03 0. -1.
        -12    1    3    3    0    0  0.22092219109E+01  0.29381167183E+01  0.58502688387E+01  0.69093296916E+01  0.00000000000E+00 0.  1.
</event>
<event>
 7    1  0.4477737E-009  0.4778727E+02  0.7816164E-02  0.1312668E+00
        -11   -1    0    0    0    0  0.00000000000E+00  0.00000000000E+00  0.45593999997E+02  0.45594000000E+02  0.51100000000E-03 0.  1.
         11   -1    0    0    0    0 -0.00000000000E+00 -0.00000000000E+00 -0.45593999997E+02  0.45594000000E+02  0.51100000000E-03 0. -1.
    9900012    2    1    2    0    0 -0.20370150062E+01 -0.42115660180E+02  0.10283235835E+02  0.47787271875E+02  0.20000003788E+02 0.  0.
         12    1    1    2    0    0  0.20370150062E+01  0.42115660180E+02 -0.10283235835E+02  0.43400728125E+02  0.00000000000E+00 0. -1.
         11    1    3    3    0    0  0.34622989833E+01 -0.17439745696E+02 -0.64808345077E+00  0.17791915484E+02  0.51100000000E-03 0.  1.
        -11    1    3    3    0    0 -0.70349902870E+01 -0.65857990240E+01  0.23749496561E+01  0.99249293827E+01  0.51100000000E-03 0. -1.
        -12    1    3    3    0    0  0.15356762975E+01 -0.18090115460E+02  0.85563696294E+01  0.20070427008E+02  0.00000000000E+00 0.  1.
</event>
<event>
 7    1  0.4477737E-009  0.4778727E+02  0.7816164E-02  0.1312668E+00
        -11   -1    0    0    0    0  0.00000000000E+00  0.00000000000E+00  0.45593999997E+02  0.45594000000E+02  0.51100000000E-03 0.  1.
         11   -1    0    0    0    0 -0.00000000000E+00 -0.00000000000E+00 -0.45593999997E+02  0.45594000000E+02  0.51100000000E-03 0. -1.
    9900012    2    1    2    0    0 -0.41397057863E+02 -0.12213853161E+02  0.45528942914E+01  0.47787268956E+02  0.19999990476E+02 0.  0.
         12    1    1    2    0    0  0.41397057863E+02  0.12213853161E+02 -0.45528942914E+01  0.43400731044E+02  0.00000000000E+00 0. -1.
         11    1    3    3    0    0 -0.30172314119E+02 -0.17506836710E+02  0.13048966763E+01  0.34907887740E+02  0.51100000000E-03 0. -1.
        -11    1    3    3    0    0 -0.42909736095E+01  0.25865765686E+01  0.10594651185E+01  0.51210642899E+01  0.51100000000E-03 0.  1.
         12    1    3    3    0    0 -0.69337701346E+01  0.27064069806E+01  0.21885324966E+01  0.77583169253E+01  0.00000000000E+00 0. -1.
</event>
<event>
 7    1  0.4477737E-009  0.4778727E+02  0.7816164E-02  0.1312668E+00
        -11   -1    0    0    0    0  0.00000000000E+00  0.00000000000E+00  0.45593999997E+02  0.45594000000E+02  0.51100000000E-03 0.  1.
         11   -1    0    0    0    0 -0.00000000000E+00 -0.00000000000E+00 -0.45593999997E+02  0.45594000000E+02  0.51100000000E-03 0. -1.
    9900012    2    1    2    0    0  0.22275075471E+02  0.35415551400E+02 -0.11540493336E+02  0.47787271266E+02  0.20000001009E+02 0.  0.
         12    1    1    2    0    0 -0.22275075471E+02 -0.35415551400E+02  0.11540493336E+02  0.43400728734E+02  0.00000000000E+00 0. -1.
         11    1    3    3    0    0  0.78071854674E+00  0.65154624839E+01 -0.44888006612E+01  0.79504782538E+01  0.51100000000E-03 0. -1.
        -11    1    3    3    0    0  0.73812470813E+01  0.95005100930E+01 -0.10028837254E+02  0.15662697004E+02  0.51100000000E-03 0.  1.
        -12    1    3    3    0    0  0.14113109843E+02  0.19399578823E+02  0.29771445794E+01  0.24174096008E+02  0.00000000000E+00 0.  1.
</event>
<event>
 7    1  0.4477737E-009  0.4778727E+02  0.7816164E-02  0.1312668E+00
        -11   -1    0    0    0    0  0.00000000000E+00  0.00000000000E+00  0.45593999997E+02  0.45594000000E+02  0.51100000000E-03 0. -1.
         11   -1    0    0    0    0 -0.00000000000E+00 -0.00000000000E+00 -0.45593999997E+02  0.45594000000E+02  0.51100000000E-03 0.  1.
    9900012    2    1    2    0    0 -0.33589827399E+02  0.26282065567E+02 -0.80374090159E+01  0.47787269374E+02  0.19999992384E+02 0.  0.
         12    1    1    2    0    0  0.33589827399E+02 -0.26282065567E+02  0.80374090159E+01  0.43400730626E+02  0.00000000000E+00 0. -1.
         11    1    3    3    0    0 -0.94348267346E+00  0.25825984330E+01 -0.17640873243E+00  0.27551940990E+01  0.51100000000E-03 0. -1.
        -11    1    3    3    0    0 -0.23839769194E+02  0.13949857245E+02  0.32680116595E+01  0.27813899634E+02  0.51100000000E-03 0.  1.
        -12    1    3    3    0    0 -0.88065755318E+01  0.97496098888E+01 -0.11129011943E+02  0.17218175641E+02  0.00000000000E+00 0.  1.
</event>
<event>
 7    1  0.4477737E-009  0.4778727E+02  0.7816164E-02  0.1312668E+00
        -11   -1    0    0    0    0  0.00000000000E+00  0.00000000000E+00  0.45593999997E+02  0.45594000000E+02  0.51100000000E-03 0.  1.
         11   -1    0    0    0    0 -0.00000000000E+00 -0.00000000000E+00 -0.45593999997E+02  0.45594000000E+02  0.51100000000E-03 0. -1.
    9900012    2    1    2    0    0 -0.78470849741E+01 -0.18328276089E+02  0.38550238472E+02  0.47787270360E+02  0.19999996880E+02 0.  0.
         12    1    1    2    0    0  0.78470849741E+01  0.18328276089E+02 -0.38550238472E+02  0.43400729640E+02  0.00000000000E+00 0. -1.
         11    1    3    3    0    0 -0.11824730816E+02 -0.74516533888E+01  0.16594970784E+02  0.21696646116E+02  0.51100000000E-03 0. -1.
        -11    1    3    3    0    0  0.27478476366E+01 -0.11452132393E+02  0.21727170464E+02  0.24713800590E+02  0.51100000000E-03 0.  1.
        -12    1    3    3    0    0  0.12297982049E+01  0.57550969229E+00  0.22809722429E+00  0.13768236541E+01  0.00000000000E+00 0.  1.
</event>
<event>
 7    1  0.4477737E-009  0.4778727E+02  0.7816164E-02  0.1312668E+00
        -11   -1    0    0    0    0  0.00000000000E+00  0.00000000000E+00  0.45593999997E+02  0.45594000000E+02  0.51100000000E-03 0. -1.
         11   -1    0    0    0    0 -0.00000000000E+00 -0.00000000000E+00 -0.45593999997E+02  0.45594000000E+02  0.51100000000E-03 0.  1.
    9900012    2    1    2    0    0 -0.36910238144E+02  0.20558075802E+02 -0.99309234642E+01  0.47787269576E+02  0.19999993304E+02 0.  0.
         12    1    1    2    0    0  0.36910238144E+02 -0.20558075802E+02  0.99309234642E+01  0.43400730424E+02  0.00000000000E+00 0. -1.
         11    1    3    3    0    0 -0.66305628854E+01  0.25502883584E+01  0.42265590051E+01  0.82663254335E+01  0.51100000000E-03 0. -1.
        -11    1    3    3    0    0 -0.11586743417E+02  0.10489754453E+02 -0.11034165530E+02  0.19132181807E+02  0.51100000000E-03 0.  1.
         12    1    3    3    0    0 -0.18692931841E+02  0.75180329907E+01 -0.31233169392E+01  0.20388762335E+02  0.00000000000E+00 0. -1.
</event>
<event>
 7    1  0.4477737E-009  0.4778728E+02  0.7816164E-02  0.1312668E+00
        -11   -1    0    0    0    0  0.00000000000E+00  0.00000000000E+00  0.45593999997E+02  0.45594000000E+02  0.51100000000E-03 0. -1.
         11   -1    0    0    0    0 -0.00000000000E+00 -0.00000000000E+00 -0.45593999997E+02  0.45594000000E+02  0.51100000000E-03 0.  1.
    9900012    2    1    2    0    0  0.36607688910E+02  0.23308989200E+02  0.43706028320E+00  0.47787275507E+02  0.20000020345E+02 0.  0.
         12    1    1    2    0    0 -0.36607688910E+02 -0.23308989200E+02 -0.43706028320E+00  0.43400724493E+02  0.00000000000E+00 0. -1.
         11    1    3    3    0    0  0.23110753885E+01  0.58058070324E+01 -0.94992843194E+00  0.63206668189E+01  0.51100000000E-03 0. -1.
        -11    1    3    3    0    0  0.29332467792E+02  0.99975202555E+01  0.56646103218E+01  0.31502886985E+02  0.51100000000E-03 0.  1.
        -12    1    3    3    0    0  0.49641457296E+01  0.75056619120E+01 -0.42776216067E+01  0.99637217029E+01  0.00000000000E+00 0.  1.
</event>
<event>
 7    1  0.4477737E-009  0.4778729E+02  0.7816164E-02  0.1312668E+00
        -11   -1    0    0    0    0  0.00000000000E+00  0.00000000000E+00  0.45593999997E+02  0.45594000000E+02  0.51100000000E-03 0.  1.
         11   -1    0    0    0    0 -0.00000000000E+00 -0.00000000000E+00 -0.45593999997E+02  0.45594000000E+02  0.51100000000E-03 0. -1.
    9900012    2    1    2    0    0 -0.33190344692E+02 -0.11967848470E+02  0.25274367736E+02  0.47787285234E+02  0.20000064694E+02 0.  0.
         12    1    1    2    0    0  0.33190344692E+02  0.11967848470E+02 -0.25274367736E+02  0.43400714766E+02  0.00000000000E+00 0. -1.
         11    1    3    3    0    0 -0.17014766061E+02  0.28594386326E+01  0.59103293788E+01  0.18237616265E+02  0.51100000000E-03 0.  1.
        -11    1    3    3    0    0 -0.13997195274E+02 -0.12759083246E+02  0.14583919948E+02  0.23904108478E+02  0.51100000000E-03 0. -1.
        -12    1    3    3    0    0 -0.21783833566E+01 -0.20682038567E+01  0.47801184092E+01  0.56455604900E+01  0.00000000000E+00 0.  1.
</event>
<event>
 7    1  0.4477737E-009  0.4778727E+02  0.7816164E-02  0.1312668E+00
        -11   -1    0    0    0    0  0.00000000000E+00  0.00000000000E+00  0.45593999997E+02  0.45594000000E+02  0.51100000000E-03 0.  1.
         11   -1    0    0    0    0 -0.00000000000E+00 -0.00000000000E+00 -0.45593999997E+02  0.45594000000E+02  0.51100000000E-03 0. -1.
    9900012    2    1    2    0    0  0.21204251658E+02 -0.10326262426E+02  0.36433108333E+02  0.47787269973E+02  0.19999995113E+02 0.  0.
         12    1    1    2    0    0 -0.21204251658E+02  0.10326262426E+02 -0.36433108333E+02  0.43400730027E+02  0.00000000000E+00 0. -1.
         11    1    3    3    0    0  0.15962703572E+02 -0.88257251408E+01  0.15997841049E+02  0.24261744539E+02  0.51100000000E-03 0. -1.
        -11    1    3    3    0    0  0.76720312084E+01 -0.32824105313E+01  0.17118505050E+02  0.19044093498E+02  0.51100000000E-03 0.  1.
         12    1    3    3    0    0 -0.24304831223E+01  0.17818732456E+01  0.33167622347E+01  0.44814319355E+01  0.00000000000E+00 0. -1.
</event>
<event>
 7    1  0.4477737E-009  0.4778727E+02  0.7816164E-02  0.1312668E+00
        -11   -1    0    0    0    0  0.00000000000E+00  0.00000000000E+00  0.45593999997E+02  0.45594000000E+02  0.51100000000E-03 0.  1.
         11   -1    0    0    0    0 -0.00000000000E+00 -0.00000000000E+00 -0.45593999997E+02  0.45594000000E+02  0.51100000000E-03 0. -1.
    9900012    2    1    2    0    0  0.27266603874E+01 -0.27530488027E+02  0.33440406165E+02  0.47787271753E+02  0.20000003231E+02 0.  0.
         12    1    1    2    0    0 -0.27266603874E+01  0.27530488027E+02 -0.33440406165E+02  0.43400728247E+02  0.00000000000E+00 0. -1.
         11    1    3    3    0    0  0.24860973852E+01 -0.30806819925E+01  0.16233746220E+02  0.16709452365E+02  0.51100000000E-03 0. -1.
        -11    1    3    3    0    0  0.33522645890E+01 -0.14839949233E+02  0.71009000545E+01  0.16789417886E+02  0.51100000000E-03 0.  1.
         12    1    3    3    0    0 -0.31117015868E+01 -0.96098568014E+01  0.10105759891E+02  0.14288401502E+02  0.00000000000E+00 0. -1.
</event>
<event>
 7    1  0.4477737E-009  0.4778727E+02  0.7816164E-02  0.1312668E+00
        -11   -1    0    0    0    0  0.00000000000E+00  0.00000000000E+00  0.45593999997E+02  0.45594000000E+02  0.51100000000E-03 0.  1.
         11   -1    0    0    0    0 -0.00000000000E+00 -0.00000000000E+00 -0.45593999997E+02  0.45594000000E+02  0.51100000000E-03 0. -1.
    9900012    2    1    2    0    0 -0.16601036144E+02  0.23696470762E+02  0.32349748009E+02  0.47787270468E+02  0.19999997372E+02 0.  0.
         12    1    1    2    0    0  0.16601036144E+02 -0.23696470762E+02 -0.32349748009E+02  0.43400729532E+02  0.00000000000E+00 0. -1.
         11    1    3    3    0    0 -0.14815224015E+02  0.76274754212E+01  0.15432587062E+02  0.22711978946E+02  0.51100000000E-03 0. -1.
        -11    1    3    3    0    0  0.22495145933E+01  0.10234235150E+02  0.13797437234E+02  0.17325390602E+02  0.51100000000E-03 0.  1.
         12    1    3    3    0    0 -0.40353267224E+01  0.58347601909E+01  0.31197237129E+01  0.77499009211E+01  0.00000000000E+00 0. -1.
</event>
<event>
 7    1  0.4477737E-009  0.4778728E+02  0.7816164E-02  0.1312668E+00
        -11   -1    0    0    0    0  0.00000000000E+00  0.00000000000E+00  0.45593999997E+02  0.45594000000E+02  0.51100000000E-03 0.  1.
         11   -1    0    0    0    0 -0.00000000000E+00 -0.00000000000E+00 -0.45593999997E+02  0.45594000000E+02  0.51100000000E-03 0. -1.
    9900012    2    1    2    0    0 -0.47187533756E+01 -0.20415862036E+02  0.38007220890E+02  0.47787275399E+02  0.20000019855E+02 0.  0.
         12    1    1    2    0    0  0.47187533756E+01  0.20415862036E+02 -0.38007220890E+02  0.43400724601E+02  0.00000000000E+00 0. -1.
         11    1    3    3    0    0 -0.64468297512E+01 -0.84784409455E+01  0.58702606931E+01  0.12161641977E+02  0.51100000000E-03 0. -1.
        -11    1    3    3    0    0  0.53490677946E+01 -0.67441298418E+01  0.22547972086E+02  0.24135178869E+02  0.51100000000E-03 0.  1.
        -12    1    3    3    0    0 -0.36209914190E+01 -0.51932912484E+01  0.95889881113E+01  0.11490454553E+02  0.00000000000E+00 0.  1.
</event>
<event>
 7    1  0.4477737E-009  0.4778726E+02  0.7816164E-02  0.1312668E+00
        -11   -1    0    0    0    0  0.00000000000E+00  0.00000000000E+00  0.45593999997E+02  0.45594000000E+02  0.51100000000E-03 0.  1.
         11   -1    0    0    0    0 -0.00000000000E+00 -0.00000000000E+00 -0.45593999997E+02  0.45594000000E+02  0.51100000000E-03 0. -1.
    9900012    2    1    2    0    0  0.30628702206E+02  0.54056993585E+01  0.30270208399E+02  0.47787256909E+02  0.19999935551E+02 0.  0.
         12    1    1    2    0    0 -0.30628702206E+02 -0.54056993585E+01 -0.30270208399E+02  0.43400743091E+02  0.00000000000E+00 0. -1.
         11    1    3    3    0    0  0.61919548959E+01  0.39839187026E+01 -0.59998154508E+00  0.73872790510E+01  0.51100000000E-03 0. -1.
        -11    1    3    3    0    0  0.10786876644E+02 -0.25271289034E+01  0.87888467441E+01  0.14141673012E+02  0.51100000000E-03 0.  1.
         12    1    3    3    0    0  0.13649870666E+02  0.39489095593E+01  0.22081343199E+02  0.26258304846E+02  0.00000000000E+00 0. -1.
</event>
<event>
 7    1  0.4477737E-009  0.4778727E+02  0.7816164E-02  0.1312668E+00
        -11   -1    0    0    0    0  0.00000000000E+00  0.00000000000E+00  0.45593999997E+02  0.45594000000E+02  0.51100000000E-03 0.  1.
         11   -1    0    0    0    0 -0.00000000000E+00 -0.00000000000E+00 -0.45593999997E+02  0.45594000000E+02  0.51100000000E-03 0. -1.
    9900012    2    1    2    0    0  0.86864453877E+01 -0.35466485298E+02  0.23458413149E+02  0.47787273505E+02  0.20000011217E+02 0.  0.
         12    1    1    2    0    0 -0.86864453877E+01  0.35466485298E+02 -0.23458413149E+02  0.43400726495E+02  0.00000000000E+00 0. -1.
         11    1    3    3    0    0  0.80858692726E+01 -0.10861958875E+02  0.14251441815E+02  0.19658764625E+02  0.51100000000E-03 0. -1.
        -11    1    3    3    0    0  0.40694135035E+01 -0.41542703270E+01  0.15541158498E+01  0.60194156318E+01  0.51100000000E-03 0.  1.
         12    1    3    3    0    0 -0.34688373884E+01 -0.20450256095E+02  0.76528554844E+01  0.22109093248E+02  0.00000000000E+00 0. -1.
</event>
<event>
 7    1  0.4477737E-009  0.4778727E+02  0.7816164E-02  0.1312668E+00
        -11   -1    0    0    0    0  0.00000000000E+00  0.00000000000E+00  0.45593999997E+02  0.45594000000E+02  0.51100000000E-03 0.  1.
         11   -1    0    0    0    0 -0.00000000000E+00 -0.00000000000E+00 -0.45593999997E+02  0.45594000000E+02  0.51100000000E-03 0. -1.
    9900012    2    1    2    0    0  0.17960761100E+02  0.20111208622E+02  0.34008434424E+02  0.47787271164E+02  0.20000000547E+02 0.  0.
         12    1    1    2    0    0 -0.17960761100E+02 -0.20111208622E+02 -0.34008434424E+02  0.43400728836E+02  0.00000000000E+00 0. -1.
         11    1    3    3    0    0  0.25980362484E+00  0.80140710495E+00 -0.16791710303E+01  0.18786609277E+01  0.51100000000E-03 0. -1.
        -11    1    3    3    0    0  0.18424934091E+02  0.19016000893E+02  0.36289515100E+02  0.44922326216E+02  0.51100000000E-03 0.  1.
        -12    1    3    3    0    0 -0.72397661609E+00  0.29380062447E+00 -0.60190964598E+00  0.98628402070E+00  0.00000000000E+00 0.  1.
</event>
<event>
 7    1  0.4477737E-009  0.4778727E+02  0.7816164E-02  0.1312668E+00
        -11   -1    0    0    0    0  0.00000000000E+00  0.00000000000E+00  0.45593999997E+02  0.45594000000E+02  0.51100000000E-03 0.  1.
         11   -1    0    0    0    0 -0.00000000000E+00 -0.00000000000E+00 -0.45593999997E+02  0.45594000000E+02  0.51100000000E-03 0. -1.
    9900012    2    1    2    0    0 -0.27983722154E+02 -0.57529655571E+01  0.32671674252E+02  0.47787267095E+02  0.19999981993E+02 0.  0.
         12    1    1    2    0    0  0.27983722154E+02  0.57529655571E+01 -0.32671674252E+02  0.43400732905E+02  0.00000000000E+00 0. -1.
         11    1    3    3    0    0 -0.46538659606E+01  0.10015177544E+01  0.20875236890E+01  0.51980055410E+01  0.51100000000E-03 0. -1.
        -11    1    3    3    0    0 -0.19316492737E+02 -0.10150081864E+02  0.15919468939E+02  0.27010748695E+02  0.51100000000E-03 0.  1.
        -12    1    3    3    0    0 -0.40133634560E+01  0.33955985527E+01  0.14664681624E+02  0.15578512859E+02  0.00000000000E+00 0.  1.
</event>
<event>
 7    1  0.4477737E-009  0.4778727E+02  0.7816164E-02  0.1312668E+00
        -11   -1    0    0    0    0  0.00000000000E+00  0.00000000000E+00  0.45593999997E+02  0.45594000000E+02  0.51100000000E-03 0. -1.
         11   -1    0    0    0    0 -0.00000000000E+00 -0.00000000000E+00 -0.45593999997E+02  0.45594000000E+02  0.51100000000E-03 0.  1.
    9900012    2    1    2    0    0 -0.36888804634E+02 -0.22270345373E+02 -0.51837178855E+01  0.47787272800E+02  0.20000008003E+02 0.  0.
         12    1    1    2    0    0  0.36888804634E+02  0.22270345373E+02  0.51837178855E+01  0.43400727200E+02  0.00000000000E+00 0. -1.
         11    1    3    3    0    0 -0.12568229857E+02 -0.47561554321E+01 -0.10078648383E+02  0.16797635837E+02  0.51100000000E-03 0. -1.
        -11    1    3    3    0    0 -0.77497956745E+01 -0.23003155416E+01  0.18020374083E+01  0.82823984250E+01  0.51100000000E-03 0.  1.
         12    1    3    3    0    0 -0.16570779103E+02 -0.15213874400E+02  0.30928930895E+01  0.22707238537E+02  0.00000000000E+00 0. -1.
</event>
<event>
 7    1  0.4477737E-009  0.4778727E+02  0.7816164E-02  0.1312668E+00
        -11   -1    0    0    0    0  0.00000000000E+00  0.00000000000E+00  0.45593999997E+02  0.45594000000E+02  0.51100000000E-03 0.  1.
         11   -1    0    0    0    0 -0.00000000000E+00 -0.00000000000E+00 -0.45593999997E+02  0.45594000000E+02  0.51100000000E-03 0. -1.
    9900012    2    1    2    0    0 -0.39014114250E+02  0.14084140727E+02  0.12773364414E+02  0.47787274555E+02  0.20000016007E+02 0.  0.
         12    1    1    2    0    0  0.39014114250E+02 -0.14084140727E+02 -0.12773364414E+02  0.43400725445E+02  0.00000000000E+00 0. -1.
         11    1    3    3    0    0 -0.25075294988E+02  0.15373815107E+01  0.17825904987E+01  0.25185543270E+02  0.51100000000E-03 0. -1.
        -11    1    3    3    0    0 -0.90270460497E+01  0.40184981274E+01  0.49179540994E+01  0.11037307659E+02  0.51100000000E-03 0.  1.
         12    1    3    3    0    0 -0.49117732115E+01  0.85282610886E+01  0.60728198159E+01  0.11564423626E+02  0.00000000000E+00 0. -1.
</event>
<event>
 7    1  0.4477737E-009  0.4778727E+02  0.7816164E-02  0.1312668E+00
        -11   -1    0    0    0    0  0.00000000000E+00  0.00000000000E+00  0.45593999997E+02  0.45594000000E+02  0.51100000000E-03 0.  1.
         11   -1    0    0    0    0 -0.00000000000E+00 -0.00000000000E+00 -0.45593999997E+02  0.45594000000E+02  0.51100000000E-03 0. -1.
    9900012    2    1    2    0    0  0.11493694197E+02 -0.34734957695E+02  0.23345257838E+02  0.47787270099E+02  0.19999995690E+02 0.  0.
         12    1    1    2    0    0 -0.11493694197E+02  0.34734957695E+02 -0.23345257838E+02  0.43400729901E+02  0.00000000000E+00 0. -1.
         11    1    3    3    0    0  0.77832366861E+01 -0.66549401112E+01  0.29637103155E+01  0.10660702617E+02  0.51100000000E-03 0. -1.
        -11    1    3    3    0    0 -0.12503034288E+01 -0.14409252507E+02  0.16762914310E+02  0.22140124500E+02  0.51100000000E-03 0.  1.
        -12    1    3    3    0    0  0.49607609402E+01 -0.13670765078E+02  0.36186332126E+01  0.14986442982E+02  0.00000000000E+00 0.  1.
</event>
<event>
 7    1  0.4477737E-009  0.4778727E+02  0.7816164E-02  0.1312668E+00
        -11   -1    0    0    0    0  0.00000000000E+00  0.00000000000E+00  0.45593999997E+02  0.45594000000E+02  0.51100000000E-03 0. -1.
         11   -1    0    0    0    0 -0.00000000000E+00 -0.00000000000E+00 -0.45593999997E+02  0.45594000000E+02  0.51100000000E-03 0.  1.
    9900012    2    1    2    0    0 -0.30180105767E+02 -0.56607994448E+01 -0.30671477220E+02  0.47787274784E+02  0.20000017050E+02 0.  0.
         12    1    1    2    0    0  0.30180105767E+02  0.56607994448E+01  0.30671477220E+02  0.43400725216E+02  0.00000000000E+00 0. -1.
         11    1    3    3    0    0 -0.97856238688E+01 -0.39093308439E+01 -0.13206846956E+01  0.10620052282E+02  0.51100000000E-03 0. -1.
        -11    1    3    3    0    0 -0.20345749946E+02  0.11861946466E+00 -0.28712711156E+02  0.35190671969E+02  0.51100000000E-03 0.  1.
        -12    1    3    3    0    0 -0.48731951842E-01 -0.18700880655E+01 -0.63808136782E+00  0.19765505326E+01  0.00000000000E+00 0.  1.
</event>
<event>
 7    1  0.4477737E-009  0.4778727E+02  0.7816164E-02  0.1312668E+00
        -11   -1    0    0    0    0  0.00000000000E+00  0.00000000000E+00  0.45593999997E+02  0.45594000000E+02  0.51100000000E-03 0.  1.
         11   -1    0    0    0    0 -0.00000000000E+00 -0.00000000000E+00 -0.45593999997E+02  0.45594000000E+02  0.51100000000E-03 0. -1.
    9900012    2    1    2    0    0 -0.23097668778E+02 -0.28720691423E+02  0.22918172072E+02  0.47787273854E+02  0.20000012812E+02 0.  0.
         12    1    1    2    0    0  0.23097668778E+02  0.28720691423E+02 -0.22918172072E+02  0.43400726146E+02  0.00000000000E+00 0. -1.
         11    1    3    3    0    0 -0.80001741182E+00  0.21261280910E+01 -0.30267913665E+00  0.22917380826E+01  0.51100000000E-03 0. -1.
        -11    1    3    3    0    0 -0.22775378262E+02 -0.27349628593E+02  0.20972401309E+02  0.41310551389E+02  0.51100000000E-03 0.  1.
        -12    1    3    3    0    0  0.47772689586E+00 -0.34971909218E+01  0.22484498995E+01  0.41849843824E+01  0.00000000000E+00 0.  1.
</event>
<event>
 7    1  0.4477737E-009  0.4778728E+02  0.7816164E-02  0.1312668E+00
        -11   -1    0    0    0    0  0.00000000000E+00  0.00000000000E+00  0.45593999997E+02  0.45594000000E+02  0.51100000000E-03 0.  1.
         11   -1    0    0    0    0 -0.00000000000E+00 -0.00000000000E+00 -0.45593999997E+02  0.45594000000E+02  0.51100000000E-03 0. -1.
    9900012    2    1    2    0    0 -0.28559896697E+02 -0.17863028401E+02  0.27365433012E+02  0.47787281032E+02  0.20000045539E+02 0.  0.
         12    1    1    2    0    0  0.28559896697E+02  0.17863028401E+02 -0.27365433012E+02  0.43400718968E+02  0.00000000000E+00 0. -1.
         11    1    3    3    0    0 -0.59463832151E+01 -0.36298156328E-01 -0.23226898013E+01  0.63840174711E+01  0.51100000000E-03 0. -1.
        -11    1    3    3    0    0 -0.20047684379E+02 -0.16468002145E+02  0.27041428627E+02  0.37474572794E+02  0.51100000000E-03 0.  1.
         12    1    3    3    0    0 -0.25658291032E+01 -0.13587280998E+01  0.26466941856E+01  0.39286907677E+01  0.00000000000E+00 0. -1.
</event>
<event>
 7    1  0.4477737E-009  0.4778726E+02  0.7816164E-02  0.1312668E+00
        -11   -1    0    0    0    0  0.00000000000E+00  0.00000000000E+00  0.45593999997E+02  0.45594000000E+02  0.51100000000E-03 0.  1.
         11   -1    0    0    0    0 -0.00000000000E+00 -0.00000000000E+00 -0.45593999997E+02  0.45594000000E+02  0.51100000000E-03 0. -1.
    9900012    2    1    2    0    0 -0.35689020222E+02 -0.61271522779E+01  0.23924386477E+02  0.47787257751E+02  0.19999939391E+02 0.  0.
         12    1    1    2    0    0  0.35689020222E+02  0.61271522779E+01 -0.23924386477E+02  0.43400742249E+02  0.00000000000E+00 0. -1.
         11    1    3    3    0    0 -0.29670562396E+02  0.39929928971E+00  0.13387083396E+02  0.32553275026E+02  0.51100000000E-03 0. -1.
        -11    1    3    3    0    0  0.65254032843E+00 -0.28154964000E+01  0.10919811931E+01  0.30895391317E+01  0.51100000000E-03 0.  1.
        -12    1    3    3    0    0 -0.66709981546E+01 -0.37109551675E+01  0.94453218878E+01  0.12144443594E+02  0.00000000000E+00 0.  1.
</event>
<event>
 7    1  0.4477737E-009  0.4778727E+02  0.7816164E-02  0.1312668E+00
        -11   -1    0    0    0    0  0.00000000000E+00  0.00000000000E+00  0.45593999997E+02  0.45594000000E+02  0.51100000000E-03 0. -1.
         11   -1    0    0    0    0 -0.00000000000E+00 -0.00000000000E+00 -0.45593999997E+02  0.45594000000E+02  0.51100000000E-03 0.  1.
    9900012    2    1    2    0    0 -0.86175000657E-01 -0.11171680819E+02 -0.41938161584E+02  0.47787271026E+02  0.19999999916E+02 0.  0.
         12    1    1    2    0    0  0.86175000657E-01  0.11171680819E+02  0.41938161584E+02  0.43400728974E+02  0.00000000000E+00 0. -1.
         11    1    3    3    0    0  0.93834474510E+01 -0.27958289467E+01 -0.15077684257E+02  0.17977828244E+02  0.51100000000E-03 0. -1.
        -11    1    3    3    0    0 -0.56447889675E+01 -0.57464577180E+01 -0.14209085413E+02  0.16333509339E+02  0.51100000000E-03 0.  1.
         12    1    3    3    0    0 -0.38248334842E+01 -0.26293941547E+01 -0.12651391913E+02  0.13475933443E+02  0.00000000000E+00 0. -1.
</event>
<event>
 7    1  0.4477737E-009  0.4778727E+02  0.7816164E-02  0.1312668E+00
        -11   -1    0    0    0    0  0.00000000000E+00  0.00000000000E+00  0.45593999997E+02  0.45594000000E+02  0.51100000000E-03 0. -1.
         11   -1    0    0    0    0 -0.00000000000E+00 -0.00000000000E+00 -0.45593999997E+02  0.45594000000E+02  0.51100000000E-03 0.  1.
    9900012    2    1    2    0    0 -0.38701162037E+02 -0.18971152685E+02 -0.50930267970E+01  0.47787268449E+02  0.19999988165E+02 0.  0.
         12    1    1    2    0    0  0.38701162037E+02  0.18971152685E+02  0.50930267970E+01  0.43400731551E+02  0.00000000000E+00 0. -1.
         11    1    3    3    0    0 -0.52699279257E+01 -0.75917093474E+01  0.36931910716E+01  0.99521782395E+01  0.51100000000E-03 0. -1.
        -11    1    3    3    0    0 -0.19110270716E+02 -0.53858752591E+01 -0.10060828161E+02  0.22258265042E+02  0.51100000000E-03 0.  1.
         12    1    3    3    0    0 -0.14320963396E+02 -0.59935680784E+01  0.12746102924E+01  0.15576825167E+02  0.00000000000E+00 0. -1.
</event>
<event>
 7    1  0.4477737E-009  0.4778727E+02  0.7816164E-02  0.1312668E+00
        -11   -1    0    0    0    0  0.00000000000E+00  0.00000000000E+00  0.45593999997E+02  0.45594000000E+02  0.51100000000E-03 0.  1.
         11   -1    0    0    0    0 -0.00000000000E+00 -0.00000000000E+00 -0.45593999997E+02  0.45594000000E+02  0.51100000000E-03 0. -1.
    9900012    2    1    2    0    0 -0.23102550061E+02 -0.90995408649E+01  0.35596260800E+02  0.47787271363E+02  0.20000001451E+02 0.  0.
         12    1    1    2    0    0  0.23102550061E+02  0.90995408649E+01 -0.35596260800E+02  0.43400728637E+02  0.00000000000E+00 0. -1.
         11    1    3    3    0    0 -0.11308802798E+02  0.48991704319E+01  0.16206367756E+02  0.20360187812E+02  0.51100000000E-03 0. -1.
        -11    1    3    3    0    0 -0.50661892267E+01 -0.10591449809E+02  0.13242865529E+02  0.17697982088E+02  0.51100000000E-03 0.  1.
         12    1    3    3    0    0 -0.67275580364E+01 -0.34072614881E+01  0.61470275157E+01  0.97291014621E+01  0.00000000000E+00 0. -1.
</event>
<event>
 7    1  0.4477737E-009  0.4778727E+02  0.7816164E-02  0.1312668E+00
        -11   -1    0    0    0    0  0.00000000000E+00  0.00000000000E+00  0.45593999997E+02  0.45594000000E+02  0.51100000000E-03 0.  1.
         11   -1    0    0    0    0 -0.00000000000E+00 -0.00000000000E+00 -0.45593999997E+02  0.45594000000E+02  0.51100000000E-03 0. -1.
    9900012    2    1    2    0    0 -0.38328742146E+01  0.14262912316E+02  0.40810562524E+02  0.47787267218E+02  0.19999982552E+02 0.  0.
         12    1    1    2    0    0  0.38328742146E+01 -0.14262912316E+02 -0.40810562524E+02  0.43400732782E+02  0.00000000000E+00 0. -1.
         11    1    3    3    0    0  0.65202757662E+01  0.75834345425E+01  0.24362241646E+02  0.26335172181E+02  0.51100000000E-03 0. -1.
        -11    1    3    3    0    0 -0.10916415085E+02  0.68046722675E+01  0.14330490511E+02  0.19257067313E+02  0.51100000000E-03 0.  1.
        -12    1    3    3    0    0  0.56326510409E+00 -0.12519449374E+00  0.21178303682E+01  0.21950277235E+01  0.00000000000E+00 0.  1.
</event>
<event>
 7    1  0.4477737E-009  0.4778727E+02  0.7816164E-02  0.1312668E+00
        -11   -1    0    0    0    0  0.00000000000E+00  0.00000000000E+00  0.45593999997E+02  0.45594000000E+02  0.51100000000E-03 0.  1.
         11   -1    0    0    0    0 -0.00000000000E+00 -0.00000000000E+00 -0.45593999997E+02  0.45594000000E+02  0.51100000000E-03 0. -1.
    9900012    2    1    2    0    0 -0.22650746806E+02 -0.36717730185E+02 -0.47302140809E+01  0.47787274591E+02  0.20000016169E+02 0.  0.
         12    1    1    2    0    0  0.22650746806E+02  0.36717730185E+02  0.47302140809E+01  0.43400725409E+02  0.00000000000E+00 0. -1.
         11    1    3    3    0    0 -0.34503600622E+01 -0.12460046872E+02 -0.44373970060E+01  0.13669244495E+02  0.51100000000E-03 0. -1.
        -11    1    3    3    0    0 -0.17024653982E+02 -0.10585779770E+02 -0.20981079957E+01  0.20156875601E+02  0.51100000000E-03 0.  1.
        -12    1    3    3    0    0 -0.21757327615E+01 -0.13671903542E+02  0.18052909207E+01  0.13961154495E+02  0.00000000000E+00 0.  1.
</event>
<event>
 7    1  0.4477737E-009  0.4778727E+02  0.7816164E-02  0.1312668E+00
        -11   -1    0    0    0    0  0.00000000000E+00  0.00000000000E+00  0.45593999997E+02  0.45594000000E+02  0.51100000000E-03 0. -1.
         11   -1    0    0    0    0 -0.00000000000E+00 -0.00000000000E+00 -0.45593999997E+02  0.45594000000E+02  0.51100000000E-03 0.  1.
    9900012    2    1    2    0    0  0.65561389094E+01  0.36419485572E+02 -0.22677334832E+02  0.47787269570E+02  0.19999993278E+02 0.  0.
         12    1    1    2    0    0 -0.65561389094E+01 -0.36419485572E+02  0.22677334832E+02  0.43400730430E+02  0.00000000000E+00 0. -1.
         11    1    3    3    0    0 -0.27094671230E+01  0.62969007383E+01 -0.77788507554E+01  0.10368350415E+02  0.51100000000E-03 0. -1.
        -11    1    3    3    0    0  0.26450280034E+01  0.90579277647E+01  0.19608873997E+01  0.96378061915E+01  0.51100000000E-03 0.  1.
        -12    1    3    3    0    0  0.66205780290E+01  0.21064657069E+02 -0.16859371477E+02  0.27781112963E+02  0.00000000000E+00 0.  1.
</event>
<event>
 7    1  0.4477737E-009  0.4778727E+02  0.7816164E-02  0.1312668E+00
        -11   -1    0    0    0    0  0.00000000000E+00  0.00000000000E+00  0.45593999997E+02  0.45594000000E+02  0.51100000000E-03 0. -1.
         11   -1    0    0    0    0 -0.00000000000E+00 -0.00000000000E+00 -0.45593999997E+02  0.45594000000E+02  0.51100000000E-03 0.  1.
    9900012    2    1    2    0    0  0.22704981542E+02 -0.20866080140E+02 -0.30540368078E+02  0.47787267638E+02  0.19999984467E+02 0.  0.
         12    1    1    2    0    0 -0.22704981542E+02  0.20866080140E+02  0.30540368078E+02  0.43400732362E+02  0.00000000000E+00 0. -1.
         11    1    3    3    0    0  0.42946892996E+01 -0.14069306241E+02 -0.16979730188E+02  0.22465550779E+02  0.51100000000E-03 0. -1.
        -11    1    3    3    0    0  0.16350298791E+01 -0.10455970412E+01 -0.55181695584E+01  0.58495120664E+01  0.51100000000E-03 0.  1.
         12    1    3    3    0    0  0.16775262363E+02 -0.57511768574E+01 -0.80424683317E+01  0.19472204792E+02  0.00000000000E+00 0. -1.
</event>
<event>
 7    1  0.4477737E-009  0.4778727E+02  0.7816164E-02  0.1312668E+00
        -11   -1    0    0    0    0  0.00000000000E+00  0.00000000000E+00  0.45593999997E+02  0.45594000000E+02  0.51100000000E-03 0. -1.
         11   -1    0    0    0    0 -0.00000000000E+00 -0.00000000000E+00 -0.45593999997E+02  0.45594000000E+02  0.51100000000E-03 0.  1.
    9900012    2    1    2    0    0  0.21424475776E+02 -0.10306172147E+02 -0.36309750189E+02  0.47787270682E+02  0.19999998346E+02 0.  0.
         12    1    1    2    0    0 -0.21424475776E+02  0.10306172147E+02  0.36309750189E+02  0.43400729318E+02  0.00000000000E+00 0. -1.
         11    1    3    3    0    0  0.16353383806E+02 -0.89026087503E+01 -0.13044833674E+02  0.22734495603E+02  0.51100000000E-03 0. -1.
        -11    1    3    3    0    0 -0.10209687041E+01  0.12513259469E+01 -0.12087741015E+01  0.20172577450E+01  0.51100000000E-03 0.  1.
         12    1    3    3    0    0  0.60920606738E+01 -0.26548893438E+01 -0.22056142413E+02  0.23035517333E+02  0.00000000000E+00 0. -1.
</event>
<event>
 7    1  0.4477737E-009  0.4778727E+02  0.7816164E-02  0.1312668E+00
        -11   -1    0    0    0    0  0.00000000000E+00  0.00000000000E+00  0.45593999997E+02  0.45594000000E+02  0.51100000000E-03 0.  1.
         11   -1    0    0    0    0 -0.00000000000E+00 -0.00000000000E+00 -0.45593999997E+02  0.45594000000E+02  0.51100000000E-03 0. -1.
    9900012    2    1    2    0    0  0.10561656453E+02 -0.33170804744E+02  0.25918571955E+02  0.47787271359E+02  0.20000001433E+02 0.  0.
         12    1    1    2    0    0 -0.10561656453E+02  0.33170804744E+02 -0.25918571955E+02  0.43400728641E+02  0.00000000000E+00 0. -1.
         11    1    3    3    0    0 -0.13068603502E+00 -0.62831148823E+01  0.12747959251E+02  0.14212849003E+02  0.51100000000E-03 0. -1.
        -11    1    3    3    0    0  0.59545539414E+01 -0.21592856672E+02  0.53908079924E+01  0.23038424056E+02  0.51100000000E-03 0.  1.
        -12    1    3    3    0    0  0.47377885466E+01 -0.52948331896E+01  0.77798047117E+01  0.10535998300E+02  0.00000000000E+00 0.  1.
</event>
<event>
 7    1  0.4477737E-009  0.4778727E+02  0.7816164E-02  0.1312668E+00
        -11   -1    0    0    0    0  0.00000000000E+00  0.00000000000E+00  0.45593999997E+02  0.45594000000E+02  0.51100000000E-03 0.  1.
         11   -1    0    0    0    0 -0.00000000000E+00 -0.00000000000E+00 -0.45593999997E+02  0.45594000000E+02  0.51100000000E-03 0. -1.
    9900012    2    1    2    0    0  0.16333373928E+02 -0.39668849514E+02  0.65746896118E+01  0.47787271099E+02  0.20000000249E+02 0.  0.
         12    1    1    2    0    0 -0.16333373928E+02  0.39668849514E+02 -0.65746896118E+01  0.43400728901E+02  0.00000000000E+00 0. -1.
         11    1    3    3    0    0  0.77498511540E+01 -0.81823430013E+01 -0.39516119510E+01  0.11942619778E+02  0.51100000000E-03 0. -1.
        -11    1    3    3    0    0  0.74145568211E+01 -0.26123284545E+02  0.12652522149E+02  0.29958103500E+02  0.51100000000E-03 0.  1.
        -12    1    3    3    0    0  0.11689659530E+01 -0.53632219672E+01 -0.21262205862E+01  0.58865478211E+01  0.00000000000E+00 0.  1.
</event>
<event>
 7    1  0.4477737E-009  0.4778727E+02  0.7816164E-02  0.1312668E+00
        -11   -1    0    0    0    0  0.00000000000E+00  0.00000000000E+00  0.45593999997E+02  0.45594000000E+02  0.51100000000E-03 0.  1.
         11   -1    0    0    0    0 -0.00000000000E+00 -0.00000000000E+00 -0.45593999997E+02  0.45594000000E+02  0.51100000000E-03 0. -1.
    9900012    2    1    2    0    0  0.53572001111E+01  0.43060604557E+02  0.84140898607E+00  0.47787271585E+02  0.20000002467E+02 0.  0.
         12    1    1    2    0    0 -0.53572001111E+01 -0.43060604557E+02 -0.84140898607E+00  0.43400728415E+02  0.00000000000E+00 0. -1.
         11    1    3    3    0    0  0.12110885504E+01  0.11526015691E+01 -0.12277031361E+01  0.20742422967E+01  0.51100000000E-03 0. -1.
        -11    1    3    3    0    0  0.36579268203E+01  0.58185741610E+01  0.63625846847E+01  0.93658271403E+01  0.51100000000E-03 0.  1.
        -12    1    3    3    0    0  0.48818474034E+00  0.36089428827E+02 -0.42934725625E+01  0.36347202148E+02  0.00000000000E+00 0.  1.
</event>
<event>
 7    1  0.4477737E-009  0.4778728E+02  0.7816164E-02  0.1312668E+00
        -11   -1    0    0    0    0  0.00000000000E+00  0.00000000000E+00  0.45593999997E+02  0.45594000000E+02  0.51100000000E-03 0.  1.
         11   -1    0    0    0    0 -0.00000000000E+00 -0.00000000000E+00 -0.45593999997E+02  0.45594000000E+02  0.51100000000E-03 0. -1.
    9900012    2    1    2    0    0 -0.22476536318E+02  0.12492391137E+02  0.34962380812E+02  0.47787278886E+02  0.20000035754E+02 0.  0.
         12    1    1    2    0    0  0.22476536318E+02 -0.12492391137E+02 -0.34962380812E+02  0.43400721114E+02  0.00000000000E+00 0. -1.
         11    1    3    3    0    0 -0.82172813596E+01  0.35798145166E+01  0.44164161582E+01  0.99921727797E+01  0.51100000000E-03 0. -1.
        -11    1    3    3    0    0  0.14888222626E+01  0.11360727116E+01  0.12402701538E+02  0.12543295366E+02  0.51100000000E-03 0.  1.
        -12    1    3    3    0    0 -0.15748077221E+02  0.77765039093E+01  0.18143263115E+02  0.25251810740E+02  0.00000000000E+00 0.  1.
</event>
<event>
 7    1  0.4477737E-009  0.4778727E+02  0.7816164E-02  0.1312668E+00
        -11   -1    0    0    0    0  0.00000000000E+00  0.00000000000E+00  0.45593999997E+02  0.45594000000E+02  0.51100000000E-03 0.  1.
         11   -1    0    0    0    0 -0.00000000000E+00 -0.00000000000E+00 -0.45593999997E+02  0.45594000000E+02  0.51100000000E-03 0. -1.
    9900012    2    1    2    0    0  0.20268997967E+02  0.20595879889E+02  0.32382100702E+02  0.47787274282E+02  0.20000014760E+02 0.  0.
         12    1    1    2    0    0 -0.20268997967E+02 -0.20595879889E+02 -0.32382100702E+02  0.43400725718E+02  0.00000000000E+00 0. -1.
         11    1    3    3    0    0  0.88591976481E+01  0.10007657287E+02  0.23286343049E+01  0.13566912889E+02  0.51100000000E-03 0. -1.
        -11    1    3    3    0    0  0.62659957390E+01  0.87988476336E+01  0.21840438772E+02  0.24365696959E+02  0.51100000000E-03 0.  1.
         12    1    3    3    0    0  0.51438045796E+01  0.17893749686E+01  0.82130276255E+01  0.98546644341E+01  0.00000000000E+00 0. -1.
</event>
<event>
 7    1  0.4477737E-009  0.4778722E+02  0.7816164E-02  0.1312668E+00
        -11   -1    0    0    0    0  0.00000000000E+00  0.00000000000E+00  0.45593999997E+02  0.45594000000E+02  0.51100000000E-03 0. -1.
         11   -1    0    0    0    0 -0.00000000000E+00 -0.00000000000E+00 -0.45593999997E+02  0.45594000000E+02  0.51100000000E-03 0.  1.
    9900012    2    1    2    0    0 -0.72601008667E+00  0.33605705567E+02  0.27454639620E+02  0.47787219201E+02  0.19999763624E+02 0.  0.
         12    1    1    2    0    0  0.72601008667E+00 -0.33605705567E+02 -0.27454639620E+02  0.43400780799E+02  0.00000000000E+00 0. -1.
         11    1    3    3    0    0 -0.30528151129E+01 -0.58899051813E+00 -0.66190702674E+00  0.31787908263E+01  0.51100000000E-03 0. -1.
        -11    1    3    3    0    0 -0.14114460030E+01  0.55061527051E+01  0.41128828085E+01  0.70161030986E+01  0.51100000000E-03 0.  1.
         12    1    3    3    0    0  0.37382510292E+01  0.28688543380E+02  0.24003663838E+02  0.37592325276E+02  0.00000000000E+00 0. -1.
</event>
<event>
 7    1  0.4477737E-009  0.4778728E+02  0.7816164E-02  0.1312668E+00
        -11   -1    0    0    0    0  0.00000000000E+00  0.00000000000E+00  0.45593999997E+02  0.45594000000E+02  0.51100000000E-03 0. -1.
         11   -1    0    0    0    0 -0.00000000000E+00 -0.00000000000E+00 -0.45593999997E+02  0.45594000000E+02  0.51100000000E-03 0.  1.
    9900012    2    1    2    0    0  0.64328609206E+01 -0.35252951573E+02 -0.24484080077E+02  0.47787280289E+02  0.20000042151E+02 0.  0.
         12    1    1    2    0    0 -0.64328609206E+01  0.35252951573E+02  0.24484080077E+02  0.43400719711E+02  0.00000000000E+00 0. -1.
         11    1    3    3    0    0  0.85798442302E+00 -0.30562676396E+01  0.11653682900E+01  0.33815665996E+01  0.51100000000E-03 0. -1.
        -11    1    3    3    0    0  0.97577009705E+01 -0.11782181138E+02 -0.12594324823E+02  0.19815386410E+02  0.51100000000E-03 0.  1.
        -12    1    3    3    0    0 -0.41828244729E+01 -0.20414502795E+02 -0.13055123544E+02  0.24590327279E+02  0.00000000000E+00 0.  1.
</event>
<event>
 7    1  0.4477737E-009  0.4778727E+02  0.7816164E-02  0.1312668E+00
        -11   -1    0    0    0    0  0.00000000000E+00  0.00000000000E+00  0.45593999997E+02  0.45594000000E+02  0.51100000000E-03 0. -1.
         11   -1    0    0    0    0 -0.00000000000E+00 -0.00000000000E+00 -0.45593999997E+02  0.45594000000E+02  0.51100000000E-03 0.  1.
    9900012    2    1    2    0    0 -0.21003277819E+02 -0.41757124112E+01 -0.37749825674E+02  0.47787267383E+02  0.19999983305E+02 0.  0.
         12    1    1    2    0    0  0.21003277819E+02  0.41757124112E+01  0.37749825674E+02  0.43400732617E+02  0.00000000000E+00 0. -1.
         11    1    3    3    0    0  0.24301641583E+01  0.17322843466E+00 -0.96132747626E+01  0.99171950596E+01  0.51100000000E-03 0. -1.
        -11    1    3    3    0    0 -0.16745180471E+02 -0.33147747562E+01 -0.13565183623E+02  0.21803738388E+02  0.51100000000E-03 0.  1.
        -12    1    3    3    0    0 -0.66882615066E+01 -0.10341660896E+01 -0.14571367288E+02  0.16066333936E+02  0.00000000000E+00 0.  1.
</event>
<event>
 7    1  0.4477737E-009  0.4778727E+02  0.7816164E-02  0.1312668E+00
        -11   -1    0    0    0    0  0.00000000000E+00  0.00000000000E+00  0.45593999997E+02  0.45594000000E+02  0.51100000000E-03 0.  1.
         11   -1    0    0    0    0 -0.00000000000E+00 -0.00000000000E+00 -0.45593999997E+02  0.45594000000E+02  0.51100000000E-03 0. -1.
    9900012    2    1    2    0    0  0.28869396560E+02  0.60709111945E+01  0.31832766414E+02  0.47787273761E+02  0.20000012385E+02 0.  0.
         12    1    1    2    0    0 -0.28869396560E+02 -0.60709111945E+01 -0.31832766414E+02  0.43400726239E+02  0.00000000000E+00 0. -1.
         11    1    3    3    0    0  0.11702804853E+02  0.29478418473E+01  0.22780386148E+02  0.25779670407E+02  0.51100000000E-03 0. -1.
        -11    1    3    3    0    0  0.13386929044E+02  0.34711083243E+01  0.11064998643E+02  0.17711370852E+02  0.51100000000E-03 0.  1.
         12    1    3    3    0    0  0.37796626628E+01 -0.34803897706E+00 -0.20126183766E+01  0.42962325011E+01  0.00000000000E+00 0. -1.
</event>
<event>
 7    1  0.4477737E-009  0.4778727E+02  0.7816164E-02  0.1312668E+00
        -11   -1    0    0    0    0  0.00000000000E+00  0.00000000000E+00  0.45593999997E+02  0.45594000000E+02  0.51100000000E-03 0.  1.
         11   -1    0    0    0    0 -0.00000000000E+00 -0.00000000000E+00 -0.45593999997E+02  0.45594000000E+02  0.51100000000E-03 0. -1.
    9900012    2    1    2    0    0 -0.16927568902E+02  0.61583371880E+01  0.39486143732E+02  0.47787271289E+02  0.20000001115E+02 0.  0.
         12    1    1    2    0    0  0.16927568902E+02 -0.61583371880E+01 -0.39486143732E+02  0.43400728711E+02  0.00000000000E+00 0. -1.
         11    1    3    3    0    0 -0.51573434531E+00  0.87527266507E+01  0.68498939840E+01  0.11126421419E+02  0.51100000000E-03 0. -1.
        -11    1    3    3    0    0 -0.14462787424E+02 -0.27929822849E+01  0.28361003542E+02  0.31958089622E+02  0.51100000000E-03 0.  1.
         12    1    3    3    0    0 -0.19490471326E+01  0.19859282218E+00  0.42752462059E+01  0.47027602486E+01  0.00000000000E+00 0. -1.
</event>
<event>
 7    1  0.4477737E-009  0.4778727E+02  0.7816164E-02  0.1312668E+00
        -11   -1    0    0    0    0  0.00000000000E+00  0.00000000000E+00  0.45593999997E+02  0.45594000000E+02  0.51100000000E-03 0. -1.
         11   -1    0    0    0    0 -0.00000000000E+00 -0.00000000000E+00 -0.45593999997E+02  0.45594000000E+02  0.51100000000E-03 0.  1.
    9900012    2    1    2    0    0  0.11810308952E+01 -0.42833597964E+02 -0.68928675220E+01  0.47787267620E+02  0.19999984385E+02 0.  0.
         12    1    1    2    0    0 -0.11810308952E+01  0.42833597964E+02  0.68928675220E+01  0.43400732380E+02  0.00000000000E+00 0. -1.
         11    1    3    3    0    0  0.71787264633E+01 -0.16432400148E+02 -0.64476683498E+01  0.19055978475E+02  0.51100000000E-03 0. -1.
        -11    1    3    3    0    0 -0.49554656365E+00 -0.12681875648E+02 -0.43952625980E+01  0.13431078509E+02  0.51100000000E-03 0.  1.
         12    1    3    3    0    0 -0.55021490044E+01 -0.13719322168E+02  0.39500634257E+01  0.15300210635E+02  0.00000000000E+00 0. -1.
</event>
<event>
 7    1  0.4477737E-009  0.4778727E+02  0.7816164E-02  0.1312668E+00
        -11   -1    0    0    0    0  0.00000000000E+00  0.00000000000E+00  0.45593999997E+02  0.45594000000E+02  0.51100000000E-03 0. -1.
         11   -1    0    0    0    0 -0.00000000000E+00 -0.00000000000E+00 -0.45593999997E+02  0.45594000000E+02  0.51100000000E-03 0.  1.
    9900012    2    1    2    0    0  0.36236648281E+02 -0.23685676310E+02  0.30849730871E+01  0.47787274201E+02  0.20000014393E+02 0.  0.
         12    1    1    2    0    0 -0.36236648281E+02  0.23685676310E+02 -0.30849730871E+01  0.43400725799E+02  0.00000000000E+00 0. -1.
         11    1    3    3    0    0  0.26954689929E+02 -0.18602531164E+02  0.48215633487E+01  0.33103730126E+02  0.51100000000E-03 0. -1.
        -11    1    3    3    0    0  0.11266770138E+02 -0.55198327403E+01 -0.15774678388E+01  0.12645041236E+02  0.51100000000E-03 0.  1.
         12    1    3    3    0    0 -0.19848117856E+01  0.43668759427E+00 -0.15912242284E+00  0.20385028390E+01  0.00000000000E+00 0. -1.
</event>
<event>
 7    1  0.4477737E-009  0.4778727E+02  0.7816164E-02  0.1312668E+00
        -11   -1    0    0    0    0  0.00000000000E+00  0.00000000000E+00  0.45593999997E+02  0.45594000000E+02  0.51100000000E-03 0.  1.
         11   -1    0    0    0    0 -0.00000000000E+00 -0.00000000000E+00 -0.45593999997E+02  0.45594000000E+02  0.51100000000E-03 0. -1.
    9900012    2    1    2    0    0  0.21475476562E+01  0.35230210154E+02  0.25255570934E+02  0.47787268075E+02  0.19999986461E+02 0.  0.
         12    1    1    2    0    0 -0.21475476562E+01 -0.35230210154E+02 -0.25255570934E+02  0.43400731925E+02  0.00000000000E+00 0. -1.
         11    1    3    3    0    0 -0.99575961742E+00  0.97099448017E+01  0.20903947086E+01  0.99821999362E+01  0.51100000000E-03 0.  1.
        -11    1    3    3    0    0 -0.56713988334E+01  0.13149043903E+02  0.14197964911E+02  0.20165424076E+02  0.51100000000E-03 0. -1.
        -12    1    3    3    0    0  0.88147061070E+01  0.12371221449E+02  0.89672113139E+01  0.17639644062E+02  0.00000000000E+00 0.  1.
</event>
<event>
 7    1  0.4477737E-009  0.4778726E+02  0.7816164E-02  0.1312668E+00
        -11   -1    0    0    0    0  0.00000000000E+00  0.00000000000E+00  0.45593999997E+02  0.45594000000E+02  0.51100000000E-03 0.  1.
         11   -1    0    0    0    0 -0.00000000000E+00 -0.00000000000E+00 -0.45593999997E+02  0.45594000000E+02  0.51100000000E-03 0. -1.
    9900012    2    1    2    0    0 -0.27843707893E+02  0.93228227315E+00  0.33278873313E+02  0.47787255439E+02  0.19999928850E+02 0.  0.
         12    1    1    2    0    0  0.27843707893E+02 -0.93228227315E+00 -0.33278873313E+02  0.43400744561E+02  0.00000000000E+00 0. -1.
         11    1    3    3    0    0 -0.41720062582E+01  0.29701688517E+01  0.90334310336E+01  0.10384142513E+02  0.51100000000E-03 0. -1.
        -11    1    3    3    0    0 -0.79735344268E+01 -0.13928932267E+01  0.19305017555E+02  0.20933253590E+02  0.51100000000E-03 0.  1.
        -12    1    3    3    0    0 -0.15698167208E+02 -0.64499335184E+00  0.49404247241E+01  0.16469859337E+02  0.00000000000E+00 0.  1.
</event>
<event>
 7    1  0.4477737E-009  0.4778730E+02  0.7816164E-02  0.1312668E+00
        -11   -1    0    0    0    0  0.00000000000E+00  0.00000000000E+00  0.45593999997E+02  0.45594000000E+02  0.51100000000E-03 0.  1.
         11   -1    0    0    0    0 -0.00000000000E+00 -0.00000000000E+00 -0.45593999997E+02  0.45594000000E+02  0.51100000000E-03 0. -1.
    9900012    2    1    2    0    0 -0.25771980368E+02  0.25499081941E+02  0.23858383335E+02  0.47787301765E+02  0.20000140067E+02 0.  0.
         12    1    1    2    0    0  0.25771980368E+02 -0.25499081941E+02 -0.23858383335E+02  0.43400698235E+02  0.00000000000E+00 0. -1.
         11    1    3    3    0    0 -0.12132770221E+02  0.12370437077E+02  0.85103827717E+00  0.17348086152E+02  0.51100000000E-03 0. -1.
        -11    1    3    3    0    0 -0.84430177823E+01  0.11851971414E+02  0.17517227918E+02  0.22772945568E+02  0.51100000000E-03 0.  1.
        -12    1    3    3    0    0 -0.51961923648E+01  0.12766734496E+01  0.54901171406E+01  0.76662700452E+01  0.00000000000E+00 0.  1.
</event>
<event>
 7    1  0.4477737E-009  0.4778727E+02  0.7816164E-02  0.1312668E+00
        -11   -1    0    0    0    0  0.00000000000E+00  0.00000000000E+00  0.45593999997E+02  0.45594000000E+02  0.51100000000E-03 0. -1.
         11   -1    0    0    0    0 -0.00000000000E+00 -0.00000000000E+00 -0.45593999997E+02  0.45594000000E+02  0.51100000000E-03 0.  1.
    9900012    2    1    2    0    0 -0.10577705624E+02 -0.62367798682E+01 -0.41627372653E+02  0.47787269207E+02  0.19999991620E+02 0.  0.
         12    1    1    2    0    0  0.10577705624E+02  0.62367798682E+01  0.41627372653E+02  0.43400730793E+02  0.00000000000E+00 0. -1.
         11    1    3    3    0    0  0.26136006320E+01  0.27152442838E+01 -0.99095398509E+01  0.10602001703E+02  0.51100000000E-03 0. -1.
        -11    1    3    3    0    0 -0.85987032691E+01 -0.86389979337E+01 -0.12638677319E+02  0.17558648805E+02  0.51100000000E-03 0.  1.
        -12    1    3    3    0    0 -0.45926029867E+01 -0.31302621828E+00 -0.19079155483E+02  0.19626618699E+02  0.00000000000E+00 0.  1.
</event>
<event>
 7    1  0.4477737E-009  0.4778727E+02  0.7816164E-02  0.1312668E+00
        -11   -1    0    0    0    0  0.00000000000E+00  0.00000000000E+00  0.45593999997E+02  0.45594000000E+02  0.51100000000E-03 0.  1.
         11   -1    0    0    0    0 -0.00000000000E+00 -0.00000000000E+00 -0.45593999997E+02  0.45594000000E+02  0.51100000000E-03 0. -1.
    9900012    2    1    2    0    0 -0.19883138898E+02 -0.27505533855E+02  0.27050498877E+02  0.47787273110E+02  0.20000009417E+02 0.  0.
         12    1    1    2    0    0  0.19883138898E+02  0.27505533855E+02 -0.27050498877E+02  0.43400726890E+02  0.00000000000E+00 0. -1.
         11    1    3    3    0    0 -0.36092513418E+01 -0.17645284059E+02  0.86795890805E+01  0.19992949048E+02  0.51100000000E-03 0.  1.
        -11    1    3    3    0    0 -0.83413106247E+01 -0.19874534772E+01  0.12532030154E+02  0.15184835010E+02  0.51100000000E-03 0. -1.
        -12    1    3    3    0    0 -0.79325769315E+01 -0.78727963192E+01  0.58388796427E+01  0.12609489051E+02  0.00000000000E+00 0.  1.
</event>
<event>
 7    1  0.4477737E-009  0.4778727E+02  0.7816164E-02  0.1312668E+00
        -11   -1    0    0    0    0  0.00000000000E+00  0.00000000000E+00  0.45593999997E+02  0.45594000000E+02  0.51100000000E-03 0.  1.
         11   -1    0    0    0    0 -0.00000000000E+00 -0.00000000000E+00 -0.45593999997E+02  0.45594000000E+02  0.51100000000E-03 0. -1.
    9900012    2    1    2    0    0  0.22981155670E+02 -0.26755986261E+02  0.25290450749E+02  0.47787271713E+02  0.20000003046E+02 0.  0.
         12    1    1    2    0    0 -0.22981155670E+02  0.26755986261E+02 -0.25290450749E+02  0.43400728287E+02  0.00000000000E+00 0. -1.
         11    1    3    3    0    0  0.92602286362E+01 -0.90573492903E+01  0.73785808461E+01  0.14907409772E+02  0.51100000000E-03 0. -1.
        -11    1    3    3    0    0  0.10654025854E+02 -0.17863099543E+02  0.76386065742E+01  0.22157321653E+02  0.51100000000E-03 0.  1.
        -12    1    3    3    0    0  0.30669011807E+01  0.16446257151E+00  0.10273263329E+02  0.10722540288E+02  0.00000000000E+00 0.  1.
</event>
<event>
 7    1  0.4477737E-009  0.4778727E+02  0.7816164E-02  0.1312668E+00
        -11   -1    0    0    0    0  0.00000000000E+00  0.00000000000E+00  0.45593999997E+02  0.45594000000E+02  0.51100000000E-03 0.  1.
         11   -1    0    0    0    0 -0.00000000000E+00 -0.00000000000E+00 -0.45593999997E+02  0.45594000000E+02  0.51100000000E-03 0. -1.
    9900012    2    1    2    0    0  0.23682955959E+01  0.31193309950E+02  0.30083084643E+02  0.47787269691E+02  0.19999993831E+02 0.  0.
         12    1    1    2    0    0 -0.23682955959E+01 -0.31193309950E+02 -0.30083084643E+02  0.43400730309E+02  0.00000000000E+00 0. -1.
         11    1    3    3    0    0  0.14021006618E+01  0.72430742731E+01  0.20700467969E+02  0.21975836403E+02  0.51100000000E-03 0. -1.
        -11    1    3    3    0    0  0.12211931928E+01  0.13862360629E+02  0.47149338643E+01  0.14693092140E+02  0.51100000000E-03 0.  1.
         12    1    3    3    0    0 -0.25499825869E+00  0.10087875048E+02  0.46676828098E+01  0.11118341149E+02  0.00000000000E+00 0. -1.
</event>
<event>
 7    1  0.4477737E-009  0.4778727E+02  0.7816164E-02  0.1312668E+00
        -11   -1    0    0    0    0  0.00000000000E+00  0.00000000000E+00  0.45593999997E+02  0.45594000000E+02  0.51100000000E-03 0.  1.
         11   -1    0    0    0    0 -0.00000000000E+00 -0.00000000000E+00 -0.45593999997E+02  0.45594000000E+02  0.51100000000E-03 0. -1.
    9900012    2    1    2    0    0 -0.10171931173E+02  0.24886618920E+02  0.34070679737E+02  0.47787271863E+02  0.20000003732E+02 0.  0.
         12    1    1    2    0    0  0.10171931173E+02 -0.24886618920E+02 -0.34070679737E+02  0.43400728137E+02  0.00000000000E+00 0. -1.
         11    1    3    3    0    0  0.39708406336E+01  0.18705326554E+01  0.91395776191E+00  0.44835016231E+01  0.51100000000E-03 0. -1.
        -11    1    3    3    0    0 -0.71117379653E+01  0.15464472045E+02  0.24515471108E+02  0.29845184477E+02  0.51100000000E-03 0.  1.
         12    1    3    3    0    0 -0.70310338418E+01  0.75516142190E+01  0.86412508668E+01  0.13458585763E+02  0.00000000000E+00 0. -1.
</event>
<event>
 7    1  0.4477737E-009  0.4778727E+02  0.7816164E-02  0.1312668E+00
        -11   -1    0    0    0    0  0.00000000000E+00  0.00000000000E+00  0.45593999997E+02  0.45594000000E+02  0.51100000000E-03 0.  1.
         11   -1    0    0    0    0 -0.00000000000E+00 -0.00000000000E+00 -0.45593999997E+02  0.45594000000E+02  0.51100000000E-03 0. -1.
    9900012    2    1    2    0    0 -0.21571180436E+01  0.58083462359E+01  0.42956176907E+02  0.47787272141E+02  0.20000004998E+02 0.  0.
         12    1    1    2    0    0  0.21571180436E+01 -0.58083462359E+01 -0.42956176907E+02  0.43400727859E+02  0.00000000000E+00 0. -1.
         11    1    3    3    0    0 -0.76682058523E+00 -0.52407385258E+01  0.88549985327E+01  0.10318156491E+02  0.51100000000E-03 0. -1.
        -11    1    3    3    0    0 -0.20945299232E+01 -0.16360045533E+01  0.40671032142E+01  0.48584869367E+01  0.51100000000E-03 0.  1.
         12    1    3    3    0    0  0.70423246489E+00  0.12685089315E+02  0.30034075160E+02  0.32610628713E+02  0.00000000000E+00 0. -1.
</event>
<event>
 7    1  0.4477737E-009  0.4778727E+02  0.7816164E-02  0.1312668E+00
        -11   -1    0    0    0    0  0.00000000000E+00  0.00000000000E+00  0.45593999997E+02  0.45594000000E+02  0.51100000000E-03 0.  1.
         11   -1    0    0    0    0 -0.00000000000E+00 -0.00000000000E+00 -0.45593999997E+02  0.45594000000E+02  0.51100000000E-03 0. -1.
    9900012    2    1    2    0    0  0.80806990127E+01 -0.10619117959E+02  0.41298425811E+02  0.47787270314E+02  0.19999996671E+02 0.  0.
         12    1    1    2    0    0 -0.80806990127E+01  0.10619117959E+02 -0.41298425811E+02  0.43400729686E+02  0.00000000000E+00 0. -1.
         11    1    3    3    0    0 -0.37436515953E+00 -0.11282704241E+02  0.20134435128E+02  0.23083219933E+02  0.51100000000E-03 0. -1.
        -11    1    3    3    0    0  0.90829161712E+00  0.31895237924E+01  0.12531644832E+02  0.12963031210E+02  0.51100000000E-03 0.  1.
         12    1    3    3    0    0  0.75467725551E+01 -0.25259375101E+01  0.86323458508E+01  0.11741019172E+02  0.00000000000E+00 0. -1.
</event>
<event>
 7    1  0.4477737E-009  0.4778727E+02  0.7816164E-02  0.1312668E+00
        -11   -1    0    0    0    0  0.00000000000E+00  0.00000000000E+00  0.45593999997E+02  0.45594000000E+02  0.51100000000E-03 0.  1.
         11   -1    0    0    0    0 -0.00000000000E+00 -0.00000000000E+00 -0.45593999997E+02  0.45594000000E+02  0.51100000000E-03 0. -1.
    9900012    2    1    2    0    0  0.15276876768E+02 -0.12503546204E+02  0.38651024067E+02  0.47787270825E+02  0.19999999001E+02 0.  0.
         12    1    1    2    0    0 -0.15276876768E+02  0.12503546204E+02 -0.38651024067E+02  0.43400729175E+02  0.00000000000E+00 0. -1.
         11    1    3    3    0    0  0.59101603549E+01 -0.73780122643E-01  0.93912110491E+01  0.11096408615E+02  0.51100000000E-03 0. -1.
        -11    1    3    3    0    0  0.92895435327E+01 -0.89767666823E+01  0.80924020278E+01  0.15243520917E+02  0.51100000000E-03 0.  1.
        -12    1    3    3    0    0  0.77172880683E-01 -0.34529993986E+01  0.21167410990E+02  0.21447341293E+02  0.00000000000E+00 0.  1.
</event>
<event>
 7    1  0.4477737E-009  0.4778727E+02  0.7816164E-02  0.1312668E+00
        -11   -1    0    0    0    0  0.00000000000E+00  0.00000000000E+00  0.45593999997E+02  0.45594000000E+02  0.51100000000E-03 0.  1.
         11   -1    0    0    0    0 -0.00000000000E+00 -0.00000000000E+00 -0.45593999997E+02  0.45594000000E+02  0.51100000000E-03 0. -1.
    9900012    2    1    2    0    0 -0.27226519929E+01 -0.35358885272E+02  0.25019187634E+02  0.47787270151E+02  0.19999995925E+02 0.  0.
         12    1    1    2    0    0  0.27226519929E+01  0.35358885272E+02 -0.25019187634E+02  0.43400729849E+02  0.00000000000E+00 0. -1.
         11    1    3    3    0    0 -0.36513148676E+01 -0.13076197231E+02  0.16912943504E+02  0.21687938872E+02  0.51100000000E-03 0. -1.
        -11    1    3    3    0    0 -0.21780627279E+01 -0.11816448389E+02  0.91914117629E+01  0.15127936417E+02  0.51100000000E-03 0.  1.
         12    1    3    3    0    0  0.31067256026E+01 -0.10466239652E+02 -0.10851676324E+01  0.10971394862E+02  0.00000000000E+00 0. -1.
</event>
<event>
 7    1  0.4477737E-009  0.4778727E+02  0.7816164E-02  0.1312668E+00
        -11   -1    0    0    0    0  0.00000000000E+00  0.00000000000E+00  0.45593999997E+02  0.45594000000E+02  0.51100000000E-03 0.  1.
         11   -1    0    0    0    0 -0.00000000000E+00 -0.00000000000E+00 -0.45593999997E+02  0.45594000000E+02  0.51100000000E-03 0. -1.
    9900012    2    1    2    0    0  0.29505185742E+02 -0.31543571473E+02 -0.42509254556E+01  0.47787271271E+02  0.20000001035E+02 0.  0.
         12    1    1    2    0    0 -0.29505185742E+02  0.31543571473E+02  0.42509254556E+01  0.43400728729E+02  0.00000000000E+00 0. -1.
         11    1    3    3    0    0  0.10971377734E+02 -0.72771135743E+01 -0.55855981675E+01  0.14301273318E+02  0.51100000000E-03 0. -1.
        -11    1    3    3    0    0  0.20275276473E+02 -0.18983564782E+02  0.21755024198E+01  0.27860283181E+02  0.51100000000E-03 0.  1.
        -12    1    3    3    0    0 -0.17414684659E+01 -0.52828931171E+01 -0.84082970788E+00  0.56257147726E+01  0.00000000000E+00 0.  1.
</event>
<event>
 7    1  0.4477737E-009  0.4778727E+02  0.7816164E-02  0.1312668E+00
        -11   -1    0    0    0    0  0.00000000000E+00  0.00000000000E+00  0.45593999997E+02  0.45594000000E+02  0.51100000000E-03 0. -1.
         11   -1    0    0    0    0 -0.00000000000E+00 -0.00000000000E+00 -0.45593999997E+02  0.45594000000E+02  0.51100000000E-03 0.  1.
    9900012    2    1    2    0    0 -0.22735998293E+02 -0.18787794352E+02 -0.31838915239E+02  0.47787270068E+02  0.19999995549E+02 0.  0.
         12    1    1    2    0    0  0.22735998293E+02  0.18787794352E+02  0.31838915239E+02  0.43400729932E+02  0.00000000000E+00 0. -1.
         11    1    3    3    0    0  0.14766485945E+01 -0.45364596546E-01 -0.52302271234E+00  0.15671955963E+01  0.51100000000E-03 0. -1.
        -11    1    3    3    0    0 -0.92004817691E+01 -0.11309455798E+02 -0.57867254581E+01  0.15685625490E+02  0.51100000000E-03 0.  1.
        -12    1    3    3    0    0 -0.15012165118E+02 -0.74329739574E+01 -0.25529167069E+02  0.30534448982E+02  0.00000000000E+00 0.  1.
</event>
<event>
 7    1  0.1234717E-008  0.4778727E+02  0.7816164E-02  0.1312668E+00
        -11   -1    0    0    0    0  0.00000000000E+00  0.00000000000E+00  0.45593999997E+02  0.45594000000E+02  0.51100000000E-03 0.  1.
         11   -1    0    0    0    0 -0.00000000000E+00 -0.00000000000E+00 -0.45593999997E+02  0.45594000000E+02  0.51100000000E-03 0. -1.
    9900012    2    1    2    0    0  0.36954487532E+02  0.57159028835E+01  0.22029920698E+02  0.47787273042E+02  0.20000009107E+02 0.  0.
         12    1    1    2    0    0 -0.36954487532E+02 -0.57159028835E+01 -0.22029920698E+02  0.43400726958E+02  0.00000000000E+00 0. -1.
         11    1    3    3    0    0  0.10460833432E+02 -0.10076637960E+00  0.16090858479E+02  0.19192574523E+02  0.51100000000E-03 0. -1.
        -11    1    3    3    0    0  0.13081889176E+02  0.10747763070E+01  0.58462029991E+01  0.14369031223E+02  0.51100000000E-03 0.  1.
         12    1    3    3    0    0  0.13411764924E+02  0.47418929561E+01  0.92859219774E-01  0.14225667296E+02  0.00000000000E+00 0. -1.
</event>
<event>
 7    1  0.4477737E-009  0.4778727E+02  0.7816164E-02  0.1312668E+00
        -11   -1    0    0    0    0  0.00000000000E+00  0.00000000000E+00  0.45593999997E+02  0.45594000000E+02  0.51100000000E-03 0.  1.
         11   -1    0    0    0    0 -0.00000000000E+00 -0.00000000000E+00 -0.45593999997E+02  0.45594000000E+02  0.51100000000E-03 0. -1.
    9900012    2    1    2    0    0 -0.16171535893E+01  0.22300691022E+02  0.37197946198E+02  0.47787271814E+02  0.20000003507E+02 0.  0.
         12    1    1    2    0    0  0.16171535893E+01 -0.22300691022E+02 -0.37197946198E+02  0.43400728186E+02  0.00000000000E+00 0. -1.
         11    1    3    3    0    0 -0.63257892340E+01  0.42522370767E+01  0.18339813351E+02  0.19860661711E+02  0.51100000000E-03 0. -1.
        -11    1    3    3    0    0  0.57331556918E+01  0.15583563427E+02  0.19024995864E+02  0.25252069047E+02  0.51100000000E-03 0.  1.
         12    1    3    3    0    0 -0.10245200470E+01  0.24648905176E+01 -0.16686301701E+00  0.26745410554E+01  0.00000000000E+00 0. -1.
</event>
<event>
 7    1  0.4477737E-009  0.4778725E+02  0.7816164E-02  0.1312668E+00
        -11   -1    0    0    0    0  0.00000000000E+00  0.00000000000E+00  0.45593999997E+02  0.45594000000E+02  0.51100000000E-03 0. -1.
         11   -1    0    0    0    0 -0.00000000000E+00 -0.00000000000E+00 -0.45593999997E+02  0.45594000000E+02  0.51100000000E-03 0.  1.
    9900012    2    1    2    0    0 -0.37309402406E+02 -0.18494273982E+02 -0.12230934890E+02  0.47787246017E+02  0.19999885891E+02 0.  0.
         12    1    1    2    0    0  0.37309402406E+02  0.18494273982E+02  0.12230934890E+02  0.43400753983E+02  0.00000000000E+00 0. -1.
         11    1    3    3    0    0 -0.26751723300E+02 -0.21396903968E+02 -0.12402141518E+02  0.36432064358E+02  0.51100000000E-03 0. -1.
        -11    1    3    3    0    0 -0.62944010576E+01  0.11362575971E+01 -0.12692875803E+01  0.65208632269E+01  0.51100000000E-03 0.  1.
         12    1    3    3    0    0 -0.42632780486E+01  0.17663723894E+01  0.14404942087E+01  0.48343184321E+01  0.00000000000E+00 0. -1.
</event>
<event>
 7    1  0.4477737E-009  0.4778727E+02  0.7816164E-02  0.1312668E+00
        -11   -1    0    0    0    0  0.00000000000E+00  0.00000000000E+00  0.45593999997E+02  0.45594000000E+02  0.51100000000E-03 0. -1.
         11   -1    0    0    0    0 -0.00000000000E+00 -0.00000000000E+00 -0.45593999997E+02  0.45594000000E+02  0.51100000000E-03 0.  1.
    9900012    2    1    2    0    0 -0.43330312174E+02  0.19671364034E+01 -0.14959290015E+01  0.47787269795E+02  0.19999994303E+02 0.  0.
         12    1    1    2    0    0  0.43330312174E+02 -0.19671364034E+01  0.14959290015E+01  0.43400730205E+02  0.00000000000E+00 0. -1.
         11    1    3    3    0    0 -0.76196078684E+01 -0.39057705738E+00  0.45942574752E+01  0.89060752588E+01  0.51100000000E-03 0. -1.
        -11    1    3    3    0    0 -0.34485792082E+02  0.36168054045E+01 -0.23564953325E+01  0.34754916305E+02  0.51100000000E-03 0.  1.
        -12    1    3    3    0    0 -0.12249122238E+01 -0.12590919438E+01 -0.37336911442E+01  0.41262782309E+01  0.00000000000E+00 0.  1.
</event>
<event>
 7    1  0.4477737E-009  0.4778727E+02  0.7816164E-02  0.1312668E+00
        -11   -1    0    0    0    0  0.00000000000E+00  0.00000000000E+00  0.45593999997E+02  0.45594000000E+02  0.51100000000E-03 0.  1.
         11   -1    0    0    0    0 -0.00000000000E+00 -0.00000000000E+00 -0.45593999997E+02  0.45594000000E+02  0.51100000000E-03 0. -1.
    9900012    2    1    2    0    0 -0.20203385469E+00  0.27124253440E+01  0.43315411519E+02  0.47787274845E+02  0.20000017329E+02 0.  0.
         12    1    1    2    0    0  0.20203385469E+00 -0.27124253440E+01 -0.43315411519E+02  0.43400725155E+02  0.00000000000E+00 0. -1.
         11    1    3    3    0    0 -0.92865431183E+01  0.22989499061E+01  0.20435940938E+02  0.22564413045E+02  0.51100000000E-03 0.  1.
        -11    1    3    3    0    0  0.36896255676E+01 -0.24252219193E+01  0.78945530929E+01  0.90453859500E+01  0.51100000000E-03 0. -1.
         12    1    3    3    0    0  0.53948836961E+01  0.28386973573E+01  0.14984917488E+02  0.16177475850E+02  0.00000000000E+00 0. -1.
</event>
<event>
 7    1  0.4477737E-009  0.4778727E+02  0.7816164E-02  0.1312668E+00
        -11   -1    0    0    0    0  0.00000000000E+00  0.00000000000E+00  0.45593999997E+02  0.45594000000E+02  0.51100000000E-03 0. -1.
         11   -1    0    0    0    0 -0.00000000000E+00 -0.00000000000E+00 -0.45593999997E+02  0.45594000000E+02  0.51100000000E-03 0.  1.
    9900012    2    1    2    0    0  0.57998534304E+01  0.41138688640E+02  0.12553629488E+02  0.47787267101E+02  0.19999982022E+02 0.  0.
         12    1    1    2    0    0 -0.57998534304E+01 -0.41138688640E+02 -0.12553629488E+02  0.43400732899E+02  0.00000000000E+00 0. -1.
         11    1    3    3    0    0 -0.92901442390E+00  0.17144144607E+01 -0.10431204686E+01  0.22114215600E+01  0.51100000000E-03 0. -1.
        -11    1    3    3    0    0 -0.15778372817E+01  0.25058675092E+02  0.14432051983E+02  0.28960505737E+02  0.51100000000E-03 0.  1.
        -12    1    3    3    0    0  0.83067051359E+01  0.14365599087E+02 -0.83530202575E+00  0.16615339805E+02  0.00000000000E+00 0.  1.
</event>
<event>
 7    1  0.4477737E-009  0.4778729E+02  0.7816164E-02  0.1312668E+00
        -11   -1    0    0    0    0  0.00000000000E+00  0.00000000000E+00  0.45593999997E+02  0.45594000000E+02  0.51100000000E-03 0. -1.
         11   -1    0    0    0    0 -0.00000000000E+00 -0.00000000000E+00 -0.45593999997E+02  0.45594000000E+02  0.51100000000E-03 0.  1.
    9900012    2    1    2    0    0  0.11129678365E+02  0.41923876962E+02 -0.14631528286E+01  0.47787285533E+02  0.20000066061E+02 0.  0.
         12    1    1    2    0    0 -0.11129678365E+02 -0.41923876962E+02  0.14631528286E+01  0.43400714467E+02  0.00000000000E+00 0. -1.
         11    1    3    3    0    0  0.96182425391E+01  0.13487364276E+02 -0.48595537420E+01  0.17263685803E+02  0.51100000000E-03 0. -1.
        -11    1    3    3    0    0 -0.22880368244E+01  0.24496009813E+02  0.43001273320E+01  0.24975602187E+02  0.51100000000E-03 0.  1.
        -12    1    3    3    0    0  0.37994726500E+01  0.39405028722E+01 -0.90372641854E+00  0.55479975436E+01  0.00000000000E+00 0.  1.
</event>
<event>
 7    1  0.4477737E-009  0.4778727E+02  0.7816164E-02  0.1312668E+00
        -11   -1    0    0    0    0  0.00000000000E+00  0.00000000000E+00  0.45593999997E+02  0.45594000000E+02  0.51100000000E-03 0.  1.
         11   -1    0    0    0    0 -0.00000000000E+00 -0.00000000000E+00 -0.45593999997E+02  0.45594000000E+02  0.51100000000E-03 0. -1.
    9900012    2    1    2    0    0  0.42754974954E+02 -0.73972656762E+01  0.95700939036E+00  0.47787270861E+02  0.19999999164E+02 0.  0.
         12    1    1    2    0    0 -0.42754974954E+02  0.73972656762E+01 -0.95700939036E+00  0.43400729139E+02  0.00000000000E+00 0. -1.
         11    1    3    3    0    0  0.44862972239E+01  0.16089320992E+01  0.17180942426E+00  0.47691764510E+01  0.51100000000E-03 0. -1.
        -11    1    3    3    0    0  0.23527228121E+02  0.33601688574E+01  0.70313883291E+00  0.23776366465E+02  0.51100000000E-03 0.  1.
        -12    1    3    3    0    0  0.14741449609E+02 -0.12366366633E+02  0.82061133189E-01  0.19241727945E+02  0.00000000000E+00 0.  1.
</event>
<event>
 7    1  0.9523744E-009  0.4778727E+02  0.7816164E-02  0.1312668E+00
        -11   -1    0    0    0    0  0.00000000000E+00  0.00000000000E+00  0.45593999997E+02  0.45594000000E+02  0.51100000000E-03 0.  1.
         11   -1    0    0    0    0 -0.00000000000E+00 -0.00000000000E+00 -0.45593999997E+02  0.45594000000E+02  0.51100000000E-03 0. -1.
    9900012    2    1    2    0    0 -0.25887845258E+01  0.34178632123E+02 -0.26622216375E+02  0.47787273004E+02  0.20000008933E+02 0.  0.
         12    1    1    2    0    0  0.25887845258E+01 -0.34178632123E+02  0.26622216375E+02  0.43400726996E+02  0.00000000000E+00 0. -1.
         11    1    3    3    0    0 -0.54426834211E+01  0.22248060851E+02 -0.10514457213E+02  0.25202238495E+02  0.51100000000E-03 0. -1.
        -11    1    3    3    0    0  0.85089891935E+00  0.12021072463E+02 -0.85764798643E+01  0.14791423841E+02  0.51100000000E-03 0.  1.
         12    1    3    3    0    0  0.20029999759E+01 -0.90501190842E-01 -0.75312792974E+01  0.77936106667E+01  0.00000000000E+00 0. -1.
</event>
<event>
 7    1  0.4477737E-009  0.4778727E+02  0.7816164E-02  0.1312668E+00
        -11   -1    0    0    0    0  0.00000000000E+00  0.00000000000E+00  0.45593999997E+02  0.45594000000E+02  0.51100000000E-03 0.  1.
         11   -1    0    0    0    0 -0.00000000000E+00 -0.00000000000E+00 -0.45593999997E+02  0.45594000000E+02  0.51100000000E-03 0. -1.
    9900012    2    1    2    0    0  0.22189028918E+02 -0.12171713137E+02 -0.35257901431E+02  0.47787271684E+02  0.20000002916E+02 0.  0.
         12    1    1    2    0    0 -0.22189028918E+02  0.12171713137E+02  0.35257901431E+02  0.43400728316E+02  0.00000000000E+00 0. -1.
         11    1    3    3    0    0  0.78278137274E+01 -0.65665758067E+01 -0.36498335178E+01  0.10849694491E+02  0.51100000000E-03 0.  1.
        -11    1    3    3    0    0  0.97831500644E+01 -0.57592878963E+01 -0.30011081081E+02  0.32086514460E+02  0.51100000000E-03 0. -1.
         12    1    3    3    0    0  0.45780651264E+01  0.15415056609E+00 -0.15969868320E+01  0.48510627331E+01  0.00000000000E+00 0. -1.
</event>
<event>
 7    1  0.6103321E-009  0.4778727E+02  0.7816164E-02  0.1312668E+00
        -11   -1    0    0    0    0  0.00000000000E+00  0.00000000000E+00  0.45593999997E+02  0.45594000000E+02  0.51100000000E-03 0. -1.
         11   -1    0    0    0    0 -0.00000000000E+00 -0.00000000000E+00 -0.45593999997E+02  0.45594000000E+02  0.51100000000E-03 0.  1.
    9900012    2    1    2    0    0  0.27845050437E+02 -0.15864826625E+02 -0.29267454061E+02  0.47787269304E+02  0.19999992067E+02 0.  0.
         12    1    1    2    0    0 -0.27845050437E+02  0.15864826625E+02  0.29267454061E+02  0.43400730696E+02  0.00000000000E+00 0. -1.
         11    1    3    3    0    0  0.16839776567E+02 -0.17823225785E+01 -0.74677385573E+01  0.18507346326E+02  0.51100000000E-03 0. -1.
        -11    1    3    3    0    0  0.99528940843E+01 -0.12872893562E+02 -0.14464056890E+02  0.21771091642E+02  0.51100000000E-03 0.  1.
         12    1    3    3    0    0  0.10523797856E+01 -0.12096104841E+01 -0.73356586136E+01  0.75088313360E+01  0.00000000000E+00 0. -1.
</event>
<event>
 7    1  0.4477737E-009  0.4778727E+02  0.7816164E-02  0.1312668E+00
        -11   -1    0    0    0    0  0.00000000000E+00  0.00000000000E+00  0.45593999997E+02  0.45594000000E+02  0.51100000000E-03 0.  1.
         11   -1    0    0    0    0 -0.00000000000E+00 -0.00000000000E+00 -0.45593999997E+02  0.45594000000E+02  0.51100000000E-03 0. -1.
    9900012    2    1    2    0    0  0.41468860405E+02  0.12669752274E+02 -0.18532695771E+01  0.47787267125E+02  0.19999982128E+02 0.  0.
         12    1    1    2    0    0 -0.41468860405E+02 -0.12669752274E+02  0.18532695771E+01  0.43400732875E+02  0.00000000000E+00 0. -1.
         11    1    3    3    0    0 -0.10079062393E+01  0.56873938522E+00 -0.27760532823E+01  0.30076255690E+01  0.51100000000E-03 0. -1.
        -11    1    3    3    0    0  0.12054690822E+02  0.61104211916E+01  0.24525451161E+01  0.13735639620E+02  0.51100000000E-03 0.  1.
         12    1    3    3    0    0  0.30422075822E+02  0.59905916976E+01 -0.15297614108E+01  0.31044001936E+02  0.00000000000E+00 0. -1.
</event>
<event>
 7    1  0.4477737E-009  0.4778727E+02  0.7816164E-02  0.1312668E+00
        -11   -1    0    0    0    0  0.00000000000E+00  0.00000000000E+00  0.45593999997E+02  0.45594000000E+02  0.51100000000E-03 0.  1.
         11   -1    0    0    0    0 -0.00000000000E+00 -0.00000000000E+00 -0.45593999997E+02  0.45594000000E+02  0.51100000000E-03 0. -1.
    9900012    2    1    2    0    0 -0.12112142124E+02  0.64284607652E+01  0.41177592515E+02  0.47787271665E+02  0.20000002830E+02 0.  0.
         12    1    1    2    0    0  0.12112142124E+02 -0.64284607652E+01 -0.41177592515E+02  0.43400728335E+02  0.00000000000E+00 0. -1.
         11    1    3    3    0    0  0.22858899480E+01  0.65468863271E+01  0.11417220338E+02  0.13358141111E+02  0.51100000000E-03 0. -1.
        -11    1    3    3    0    0 -0.10897676246E+02  0.34558368309E+01  0.15106893095E+02  0.18945193982E+02  0.51100000000E-03 0.  1.
        -12    1    3    3    0    0 -0.35003558260E+01 -0.35742623928E+01  0.14653479082E+02  0.15483936572E+02  0.00000000000E+00 0.  1.
</event>
<event>
 7    1  0.4477737E-009  0.4778727E+02  0.7816164E-02  0.1312668E+00
        -11   -1    0    0    0    0  0.00000000000E+00  0.00000000000E+00  0.45593999997E+02  0.45594000000E+02  0.51100000000E-03 0.  1.
         11   -1    0    0    0    0 -0.00000000000E+00 -0.00000000000E+00 -0.45593999997E+02  0.45594000000E+02  0.51100000000E-03 0. -1.
    9900012    2    1    2    0    0 -0.29868637354E+02 -0.27425459613E+02  0.15470360699E+02  0.47787269678E+02  0.19999993769E+02 0.  0.
         12    1    1    2    0    0  0.29868637354E+02  0.27425459613E+02 -0.15470360699E+02  0.43400730322E+02  0.00000000000E+00 0. -1.
         11    1    3    3    0    0 -0.62581274503E+01 -0.11581842185E+02  0.53607880582E+01  0.14214122430E+02  0.51100000000E-03 0. -1.
        -11    1    3    3    0    0 -0.25139831154E+02 -0.15767381791E+02  0.11172920538E+02  0.31708919764E+02  0.51100000000E-03 0.  1.
        -12    1    3    3    0    0  0.15293212506E+01 -0.76235637287E-01 -0.10633478978E+01  0.18642274839E+01  0.00000000000E+00 0.  1.
</event>
<event>
 7    1  0.4477737E-009  0.4778725E+02  0.7816164E-02  0.1312668E+00
        -11   -1    0    0    0    0  0.00000000000E+00  0.00000000000E+00  0.45593999997E+02  0.45594000000E+02  0.51100000000E-03 0. -1.
         11   -1    0    0    0    0 -0.00000000000E+00 -0.00000000000E+00 -0.45593999997E+02  0.45594000000E+02  0.51100000000E-03 0.  1.
    9900012    2    1    2    0    0  0.21091540125E+02  0.25898784137E+02 -0.27713261619E+02  0.47787251686E+02  0.19999911738E+02 0.  0.
         12    1    1    2    0    0 -0.21091540125E+02 -0.25898784137E+02  0.27713261619E+02  0.43400748314E+02  0.00000000000E+00 0. -1.
         11    1    3    3    0    0  0.77857835186E+01  0.13628678752E+02 -0.18426441724E+01  0.15803627663E+02  0.51100000000E-03 0. -1.
        -11    1    3    3    0    0  0.10623385298E+02  0.68402984356E+01 -0.15781508510E+02  0.20216379721E+02  0.51100000000E-03 0.  1.
         12    1    3    3    0    0  0.26823713085E+01  0.54298069497E+01 -0.10089108936E+02  0.11767244303E+02  0.00000000000E+00 0. -1.
</event>
<event>
 7    1  0.4477737E-009  0.4778727E+02  0.7816164E-02  0.1312668E+00
        -11   -1    0    0    0    0  0.00000000000E+00  0.00000000000E+00  0.45593999997E+02  0.45594000000E+02  0.51100000000E-03 0.  1.
         11   -1    0    0    0    0 -0.00000000000E+00 -0.00000000000E+00 -0.45593999997E+02  0.45594000000E+02  0.51100000000E-03 0. -1.
    9900012    2    1    2    0    0  0.33230338082E+02  0.24261543055E+02  0.13811065271E+02  0.47787270002E+02  0.19999995246E+02 0.  0.
         12    1    1    2    0    0 -0.33230338082E+02 -0.24261543055E+02 -0.13811065271E+02  0.43400729998E+02  0.00000000000E+00 0. -1.
         11    1    3    3    0    0  0.13256284637E+02  0.46968106476E+01 -0.29661846356E+01  0.14373147331E+02  0.51100000000E-03 0. -1.
        -11    1    3    3    0    0  0.15833749585E+02  0.18395540766E+02  0.12319813955E+02  0.27219135955E+02  0.51100000000E-03 0.  1.
        -12    1    3    3    0    0  0.41403038603E+01  0.11691916410E+01  0.44574359511E+01  0.61949867156E+01  0.00000000000E+00 0.  1.
</event>
<event>
 7    1  0.4477737E-009  0.4778728E+02  0.7816164E-02  0.1312668E+00
        -11   -1    0    0    0    0  0.00000000000E+00  0.00000000000E+00  0.45593999997E+02  0.45594000000E+02  0.51100000000E-03 0.  1.
         11   -1    0    0    0    0 -0.00000000000E+00 -0.00000000000E+00 -0.45593999997E+02  0.45594000000E+02  0.51100000000E-03 0. -1.
    9900012    2    1    2    0    0 -0.95096543130E+01  0.29747843639E+02  0.30137270545E+02  0.47787276478E+02  0.20000024774E+02 0.  0.
         12    1    1    2    0    0  0.95096543130E+01 -0.29747843639E+02 -0.30137270545E+02  0.43400723522E+02  0.00000000000E+00 0. -1.
         11    1    3    3    0    0 -0.53405845730E+01  0.13438701303E+01  0.79179874163E+01  0.96448097698E+01  0.51100000000E-03 0. -1.
        -11    1    3    3    0    0 -0.13773896954E+01  0.82200856980E+01  0.13744781739E+02  0.16074390706E+02  0.51100000000E-03 0.  1.
         12    1    3    3    0    0 -0.27916800446E+01  0.20183887811E+02  0.84745013895E+01  0.22068076002E+02  0.00000000000E+00 0. -1.
</event>
<event>
 7    1  0.4477737E-009  0.4778727E+02  0.7816164E-02  0.1312668E+00
        -11   -1    0    0    0    0  0.00000000000E+00  0.00000000000E+00  0.45593999997E+02  0.45594000000E+02  0.51100000000E-03 0. -1.
         11   -1    0    0    0    0 -0.00000000000E+00 -0.00000000000E+00 -0.45593999997E+02  0.45594000000E+02  0.51100000000E-03 0.  1.
    9900012    2    1    2    0    0  0.40428627966E+02 -0.14253193362E+02 -0.67820035684E+01  0.47787273593E+02  0.20000011620E+02 0.  0.
         12    1    1    2    0    0 -0.40428627966E+02  0.14253193362E+02  0.67820035684E+01  0.43400726407E+02  0.00000000000E+00 0. -1.
         11    1    3    3    0    0 -0.69695692749E-01  0.30668733731E+01  0.46032308219E+00  0.31020102156E+01  0.51100000000E-03 0. -1.
        -11    1    3    3    0    0  0.20083088134E+02 -0.89281990507E+01 -0.46054911885E+01  0.22455594328E+02  0.51100000000E-03 0.  1.
         12    1    3    3    0    0  0.20415235526E+02 -0.83918676842E+01 -0.26368354621E+01  0.22229669050E+02  0.00000000000E+00 0. -1.
</event>
<event>
 7    1  0.4477737E-009  0.4778727E+02  0.7816164E-02  0.1312668E+00
        -11   -1    0    0    0    0  0.00000000000E+00  0.00000000000E+00  0.45593999997E+02  0.45594000000E+02  0.51100000000E-03 0. -1.
         11   -1    0    0    0    0 -0.00000000000E+00 -0.00000000000E+00 -0.45593999997E+02  0.45594000000E+02  0.51100000000E-03 0.  1.
    9900012    2    1    2    0    0  0.88592093576E+01  0.31528596604E+02 -0.28479563888E+02  0.47787267822E+02  0.19999985310E+02 0.  0.
         12    1    1    2    0    0 -0.88592093576E+01 -0.31528596604E+02  0.28479563888E+02  0.43400732178E+02  0.00000000000E+00 0. -1.
         11    1    3    3    0    0 -0.37280230400E+01  0.33902848495E+01 -0.85781336075E+01  0.99486965778E+01  0.51100000000E-03 0. -1.
        -11    1    3    3    0    0  0.76395395670E+01  0.23330204797E+02 -0.11924406745E+02  0.27291985951E+02  0.51100000000E-03 0.  1.
        -12    1    3    3    0    0  0.49476928306E+01  0.48081069573E+01 -0.79770235359E+01  0.10546585293E+02  0.00000000000E+00 0.  1.
</event>
<event>
 7    1  0.4477737E-009  0.4778727E+02  0.7816164E-02  0.1312668E+00
        -11   -1    0    0    0    0  0.00000000000E+00  0.00000000000E+00  0.45593999997E+02  0.45594000000E+02  0.51100000000E-03 0.  1.
         11   -1    0    0    0    0 -0.00000000000E+00 -0.00000000000E+00 -0.45593999997E+02  0.45594000000E+02  0.51100000000E-03 0. -1.
    9900012    2    1    2    0    0 -0.52424701809E+01 -0.30167044084E+02  0.30758571571E+02  0.47787265358E+02  0.19999974075E+02 0.  0.
         12    1    1    2    0    0  0.52424701809E+01  0.30167044084E+02 -0.30758571571E+02  0.43400734642E+02  0.00000000000E+00 0. -1.
         11    1    3    3    0    0 -0.69979223662E+01 -0.10272257827E+01  0.58551870487E+01  0.91820109937E+01  0.51100000000E-03 0. -1.
        -11    1    3    3    0    0 -0.69208927458E+00 -0.37266939917E+01  0.18999597248E+01  0.42399390194E+01  0.51100000000E-03 0.  1.
         12    1    3    3    0    0  0.24475414599E+01 -0.25413124309E+02  0.23003424797E+02  0.34365315345E+02  0.00000000000E+00 0. -1.
</event>
<event>
 7    1  0.4477737E-009  0.4778727E+02  0.7816164E-02  0.1312668E+00
        -11   -1    0    0    0    0  0.00000000000E+00  0.00000000000E+00  0.45593999997E+02  0.45594000000E+02  0.51100000000E-03 0. -1.
         11   -1    0    0    0    0 -0.00000000000E+00 -0.00000000000E+00 -0.45593999997E+02  0.45594000000E+02  0.51100000000E-03 0.  1.
    9900012    2    1    2    0    0 -0.14584206613E+02  0.31485308966E+02 -0.26069137522E+02  0.47787266201E+02  0.19999977915E+02 0.  0.
         12    1    1    2    0    0  0.14584206613E+02 -0.31485308966E+02  0.26069137522E+02  0.43400733799E+02  0.00000000000E+00 0. -1.
         11    1    3    3    0    0 -0.12062563212E+02  0.74133000109E+01 -0.38056425835E+01  0.14661015109E+02  0.51100000000E-03 0. -1.
        -11    1    3    3    0    0  0.26461275353E+00  0.11907307223E+02 -0.91124789266E+01  0.14996374817E+02  0.51100000000E-03 0.  1.
         12    1    3    3    0    0 -0.27862561547E+01  0.12164701732E+02 -0.13151016011E+02  0.18129876274E+02  0.00000000000E+00 0. -1.
</event>
<event>
 7    1  0.4477737E-009  0.4778727E+02  0.7816164E-02  0.1312668E+00
        -11   -1    0    0    0    0  0.00000000000E+00  0.00000000000E+00  0.45593999997E+02  0.45594000000E+02  0.51100000000E-03 0. -1.
         11   -1    0    0    0    0 -0.00000000000E+00 -0.00000000000E+00 -0.45593999997E+02  0.45594000000E+02  0.51100000000E-03 0.  1.
    9900012    2    1    2    0    0 -0.19264057513E+02 -0.38268179933E+02 -0.69329845113E+01  0.47787265196E+02  0.19999973336E+02 0.  0.
         12    1    1    2    0    0  0.19264057513E+02  0.38268179933E+02  0.69329845113E+01  0.43400734804E+02  0.00000000000E+00 0. -1.
         11    1    3    3    0    0 -0.15638212440E+02 -0.30133323684E+02 -0.10256708326E+02  0.35465066622E+02  0.51100000000E-03 0. -1.
        -11    1    3    3    0    0 -0.75737653068E+00 -0.83944334485E+01  0.75384304885E+00  0.84621753547E+01  0.51100000000E-03 0.  1.
         12    1    3    3    0    0 -0.28684685423E+01  0.25957719923E+00  0.25698807663E+01  0.38600232193E+01  0.00000000000E+00 0. -1.
</event>
<event>
 7    1  0.4477737E-009  0.4778727E+02  0.7816164E-02  0.1312668E+00
        -11   -1    0    0    0    0  0.00000000000E+00  0.00000000000E+00  0.45593999997E+02  0.45594000000E+02  0.51100000000E-03 0.  1.
         11   -1    0    0    0    0 -0.00000000000E+00 -0.00000000000E+00 -0.45593999997E+02  0.45594000000E+02  0.51100000000E-03 0. -1.
    9900012    2    1    2    0    0  0.14684939428E+02 -0.20285750302E+02  0.35446640779E+02  0.47787268971E+02  0.19999990547E+02 0.  0.
         12    1    1    2    0    0 -0.14684939428E+02  0.20285750302E+02 -0.35446640779E+02  0.43400731029E+02  0.00000000000E+00 0. -1.
         11    1    3    3    0    0 -0.83789126619E+00 -0.21509393450E+00 -0.14890541198E+01  0.17220945408E+01  0.51100000000E-03 0. -1.
        -11    1    3    3    0    0  0.12237418858E+02 -0.14241584306E+02  0.33822676986E+02  0.38685276561E+02  0.51100000000E-03 0.  1.
         12    1    3    3    0    0  0.32854118361E+01 -0.58290720622E+01  0.31130179129E+01  0.73798978696E+01  0.00000000000E+00 0. -1.
</event>
<event>
 7    1  0.4477737E-009  0.4778727E+02  0.7816164E-02  0.1312668E+00
        -11   -1    0    0    0    0  0.00000000000E+00  0.00000000000E+00  0.45593999997E+02  0.45594000000E+02  0.51100000000E-03 0. -1.
         11   -1    0    0    0    0 -0.00000000000E+00 -0.00000000000E+00 -0.45593999997E+02  0.45594000000E+02  0.51100000000E-03 0.  1.
    9900012    2    1    2    0    0  0.13905521781E+02 -0.41084280750E+02  0.15301664454E+01  0.47787273392E+02  0.20000010704E+02 0.  0.
         12    1    1    2    0    0 -0.13905521781E+02  0.41084280750E+02 -0.15301664454E+01  0.43400726608E+02  0.00000000000E+00 0. -1.
         11    1    3    3    0    0  0.74820058923E+01 -0.22401400602E+02  0.94356504557E+01  0.25432944400E+02  0.51100000000E-03 0. -1.
        -11    1    3    3    0    0  0.23130245836E+01 -0.14390450052E+02 -0.35932555246E+01  0.15011549586E+02  0.51100000000E-03 0.  1.
         12    1    3    3    0    0  0.41104913049E+01 -0.42924300960E+01 -0.43122284858E+01  0.73427794063E+01  0.00000000000E+00 0. -1.
</event>
<event>
 7    1  0.4477737E-009  0.4778727E+02  0.7816164E-02  0.1312668E+00
        -11   -1    0    0    0    0  0.00000000000E+00  0.00000000000E+00  0.45593999997E+02  0.45594000000E+02  0.51100000000E-03 0.  1.
         11   -1    0    0    0    0 -0.00000000000E+00 -0.00000000000E+00 -0.45593999997E+02  0.45594000000E+02  0.51100000000E-03 0. -1.
    9900012    2    1    2    0    0  0.13117541891E+02  0.43107384463E+01  0.41145726382E+02  0.47787272233E+02  0.20000005418E+02 0.  0.
         12    1    1    2    0    0 -0.13117541891E+02 -0.43107384463E+01 -0.41145726382E+02  0.43400727767E+02  0.00000000000E+00 0. -1.
         11    1    3    3    0    0 -0.36575527748E+01  0.19028447984E+01  0.13611689127E+02  0.14222397539E+02  0.51100000000E-03 0. -1.
        -11    1    3    3    0    0  0.48718301662E+01  0.30681131607E+01  0.15887653790E+02  0.16898686065E+02  0.51100000000E-03 0.  1.
         12    1    3    3    0    0  0.11903264499E+02 -0.66021951282E+00  0.11646383466E+02  0.16666188628E+02  0.00000000000E+00 0. -1.
</event>
<event>
 7    1  0.4477737E-009  0.4778728E+02  0.7816164E-02  0.1312668E+00
        -11   -1    0    0    0    0  0.00000000000E+00  0.00000000000E+00  0.45593999997E+02  0.45594000000E+02  0.51100000000E-03 0.  1.
         11   -1    0    0    0    0 -0.00000000000E+00 -0.00000000000E+00 -0.45593999997E+02  0.45594000000E+02  0.51100000000E-03 0. -1.
    9900012    2    1    2    0    0  0.28229646165E+02 -0.53247311826E+01  0.32532402816E+02  0.47787275147E+02  0.20000018705E+02 0.  0.
         12    1    1    2    0    0 -0.28229646165E+02  0.53247311826E+01 -0.32532402816E+02  0.43400724853E+02  0.00000000000E+00 0. -1.
         11    1    3    3    0    0  0.73165269292E+01  0.19175200155E+01  0.17042473160E+00  0.75655465213E+01  0.51100000000E-03 0. -1.
        -11    1    3    3    0    0  0.85598298267E+01 -0.52408703282E+01  0.21186875457E+02  0.23443999240E+02  0.51100000000E-03 0.  1.
         12    1    3    3    0    0  0.12353289409E+02 -0.20013808699E+01  0.11175102627E+02  0.16777729386E+02  0.00000000000E+00 0. -1.
</event>
<event>
 7    1  0.4477737E-009  0.4778727E+02  0.7816164E-02  0.1312668E+00
        -11   -1    0    0    0    0  0.00000000000E+00  0.00000000000E+00  0.45593999997E+02  0.45594000000E+02  0.51100000000E-03 0.  1.
         11   -1    0    0    0    0 -0.00000000000E+00 -0.00000000000E+00 -0.45593999997E+02  0.45594000000E+02  0.51100000000E-03 0. -1.
    9900012    2    1    2    0    0 -0.31658243235E+02 -0.13626307866E+02  0.26376172491E+02  0.47787272978E+02  0.20000008815E+02 0.  0.
         12    1    1    2    0    0  0.31658243235E+02  0.13626307866E+02 -0.26376172491E+02  0.43400727022E+02  0.00000000000E+00 0. -1.
         11    1    3    3    0    0 -0.20936824105E+02  0.32472014097E-02  0.10870542760E+02  0.23590661591E+02  0.51100000000E-03 0. -1.
        -11    1    3    3    0    0 -0.57245056086E+01 -0.81458842427E+01  0.45046988718E+01  0.10927840900E+02  0.51100000000E-03 0.  1.
         12    1    3    3    0    0 -0.49969135212E+01 -0.54836708249E+01  0.11000930859E+02  0.13268770486E+02  0.00000000000E+00 0. -1.
</event>
<event>
 7    1  0.4477737E-009  0.4778727E+02  0.7816164E-02  0.1312668E+00
        -11   -1    0    0    0    0  0.00000000000E+00  0.00000000000E+00  0.45593999997E+02  0.45594000000E+02  0.51100000000E-03 0.  1.
         11   -1    0    0    0    0 -0.00000000000E+00 -0.00000000000E+00 -0.45593999997E+02  0.45594000000E+02  0.51100000000E-03 0. -1.
    9900012    2    1    2    0    0 -0.24154266793E+02 -0.21933472979E+02  0.28620229209E+02  0.47787270038E+02  0.19999995413E+02 0.  0.
         12    1    1    2    0    0  0.24154266793E+02  0.21933472979E+02 -0.28620229209E+02  0.43400729962E+02  0.00000000000E+00 0. -1.
         11    1    3    3    0    0 -0.16071144819E+01  0.89680385977E-01 -0.25787840928E+01  0.30398992069E+01  0.51100000000E-03 0. -1.
        -11    1    3    3    0    0 -0.11965990374E+02 -0.76113451264E+01  0.13088066196E+02  0.19298056308E+02  0.51100000000E-03 0.  1.
         12    1    3    3    0    0 -0.10581161937E+02 -0.14411808238E+02  0.18110947106E+02  0.25449314523E+02  0.00000000000E+00 0. -1.
</event>
<event>
 7    1  0.4477737E-009  0.4778727E+02  0.7816164E-02  0.1312668E+00
        -11   -1    0    0    0    0  0.00000000000E+00  0.00000000000E+00  0.45593999997E+02  0.45594000000E+02  0.51100000000E-03 0.  1.
         11   -1    0    0    0    0 -0.00000000000E+00 -0.00000000000E+00 -0.45593999997E+02  0.45594000000E+02  0.51100000000E-03 0. -1.
    9900012    2    1    2    0    0 -0.41428340961E+02  0.56527001117E+01  0.11634556165E+02  0.47787270162E+02  0.19999995976E+02 0.  0.
         12    1    1    2    0    0  0.41428340961E+02 -0.56527001117E+01 -0.11634556165E+02  0.43400729838E+02  0.00000000000E+00 0. -1.
         11    1    3    3    0    0 -0.14485323409E+02  0.38108322983E+01 -0.40323571284E+01  0.15511509963E+02  0.51100000000E-03 0. -1.
        -11    1    3    3    0    0 -0.15252355455E+02 -0.25037428582E+01  0.63602066977E+01  0.16713925473E+02  0.51100000000E-03 0.  1.
         12    1    3    3    0    0 -0.11690662097E+02  0.43456106716E+01  0.93067065953E+01  0.15561834726E+02  0.00000000000E+00 0. -1.
</event>
<event>
 7    1  0.4489876E-009  0.4778727E+02  0.7816164E-02  0.1312668E+00
        -11   -1    0    0    0    0  0.00000000000E+00  0.00000000000E+00  0.45593999997E+02  0.45594000000E+02  0.51100000000E-03 0.  1.
         11   -1    0    0    0    0 -0.00000000000E+00 -0.00000000000E+00 -0.45593999997E+02  0.45594000000E+02  0.51100000000E-03 0. -1.
    9900012    2    1    2    0    0  0.37464016186E+02 -0.17861045832E+02  0.12690691931E+02  0.47787272717E+02  0.20000007624E+02 0.  0.
         12    1    1    2    0    0 -0.37464016186E+02  0.17861045832E+02 -0.12690691931E+02  0.43400727283E+02  0.00000000000E+00 0. -1.
         11    1    3    3    0    0  0.14858364383E+02 -0.22497909002E+01 -0.18999132776E+01  0.15147350328E+02  0.51100000000E-03 0. -1.
        -11    1    3    3    0    0  0.22752549670E+02 -0.12360548905E+02  0.12339819898E+02  0.28683319910E+02  0.51100000000E-03 0.  1.
         12    1    3    3    0    0 -0.14689786615E+00 -0.32507060271E+01  0.22507853106E+01  0.39566024784E+01  0.00000000000E+00 0. -1.
</event>
<event>
 7    1  0.4477737E-009  0.4778726E+02  0.7816164E-02  0.1312668E+00
        -11   -1    0    0    0    0  0.00000000000E+00  0.00000000000E+00  0.45593999997E+02  0.45594000000E+02  0.51100000000E-03 0.  1.
         11   -1    0    0    0    0 -0.00000000000E+00 -0.00000000000E+00 -0.45593999997E+02  0.45594000000E+02  0.51100000000E-03 0. -1.
    9900012    2    1    2    0    0 -0.91925660393E+01 -0.30377411980E+02  0.29602930010E+02  0.47787263898E+02  0.19999967419E+02 0.  0.
         12    1    1    2    0    0  0.91925660393E+01  0.30377411980E+02 -0.29602930010E+02  0.43400736102E+02  0.00000000000E+00 0. -1.
         11    1    3    3    0    0  0.29352934644E+01 -0.43832991343E+01  0.41519151123E+01  0.67132449965E+01  0.51100000000E-03 0. -1.
        -11    1    3    3    0    0 -0.14297346840E+02 -0.13866882729E+02  0.15545174066E+02  0.25265727781E+02  0.51100000000E-03 0.  1.
        -12    1    3    3    0    0  0.21694873361E+01 -0.12127230116E+02  0.99058408314E+01  0.15808291121E+02  0.00000000000E+00 0.  1.
</event>
<event>
 7    1  0.4477737E-009  0.4778728E+02  0.7816164E-02  0.1312668E+00
        -11   -1    0    0    0    0  0.00000000000E+00  0.00000000000E+00  0.45593999997E+02  0.45594000000E+02  0.51100000000E-03 0. -1.
         11   -1    0    0    0    0 -0.00000000000E+00 -0.00000000000E+00 -0.45593999997E+02  0.45594000000E+02  0.51100000000E-03 0.  1.
    9900012    2    1    2    0    0 -0.17080532667E+02 -0.29282824922E+02 -0.27099709369E+02  0.47787277892E+02  0.20000031222E+02 0.  0.
         12    1    1    2    0    0  0.17080532667E+02  0.29282824922E+02  0.27099709369E+02  0.43400722108E+02  0.00000000000E+00 0. -1.
         11    1    3    3    0    0 -0.10355858064E+02 -0.64066507290E+01 -0.14967607381E+02  0.19295549766E+02  0.51100000000E-03 0. -1.
        -11    1    3    3    0    0  0.13918139029E+01 -0.89486369830E+01 -0.73898455726E+01  0.11688672621E+02  0.51100000000E-03 0.  1.
         12    1    3    3    0    0 -0.81164885057E+01 -0.13927537210E+02 -0.47422564150E+01  0.16803055505E+02  0.00000000000E+00 0. -1.
</event>
<event>
 7    1  0.4477737E-009  0.4778727E+02  0.7816164E-02  0.1312668E+00
        -11   -1    0    0    0    0  0.00000000000E+00  0.00000000000E+00  0.45593999997E+02  0.45594000000E+02  0.51100000000E-03 0. -1.
         11   -1    0    0    0    0 -0.00000000000E+00 -0.00000000000E+00 -0.45593999997E+02  0.45594000000E+02  0.51100000000E-03 0.  1.
    9900012    2    1    2    0    0  0.11266258611E+02  0.41834574469E+02  0.25619419860E+01  0.47787265550E+02  0.19999974947E+02 0.  0.
         12    1    1    2    0    0 -0.11266258611E+02 -0.41834574469E+02 -0.25619419860E+01  0.43400734450E+02  0.00000000000E+00 0. -1.
         11    1    3    3    0    0 -0.29608852054E+01  0.15291915119E+02 -0.32764396892E+01  0.15916801391E+02  0.51100000000E-03 0.  1.
        -11    1    3    3    0    0  0.14784679526E+02  0.21018917760E+02  0.39120412256E+01  0.25993955438E+02  0.51100000000E-03 0. -1.
         12    1    3    3    0    0 -0.55753570984E+00  0.55237415899E+01  0.19263404496E+01  0.58765087210E+01  0.00000000000E+00 0. -1.
</event>
<event>
 7    1  0.4477737E-009  0.4778728E+02  0.7816164E-02  0.1312668E+00
        -11   -1    0    0    0    0  0.00000000000E+00  0.00000000000E+00  0.45593999997E+02  0.45594000000E+02  0.51100000000E-03 0. -1.
         11   -1    0    0    0    0 -0.00000000000E+00 -0.00000000000E+00 -0.45593999997E+02  0.45594000000E+02  0.51100000000E-03 0.  1.
    9900012    2    1    2    0    0  0.13447353033E+02 -0.31967556772E+02 -0.26093425793E+02  0.47787275822E+02  0.20000021782E+02 0.  0.
         12    1    1    2    0    0 -0.13447353033E+02  0.31967556772E+02  0.26093425793E+02  0.43400724178E+02  0.00000000000E+00 0. -1.
         11    1    3    3    0    0  0.10922713942E+02 -0.79026406439E+01 -0.70457585371E+01  0.15211841527E+02  0.51100000000E-03 0. -1.
        -11    1    3    3    0    0 -0.25545625997E+01 -0.10057753777E+02 -0.32833774815E+01  0.10884152197E+02  0.51100000000E-03 0.  1.
         12    1    3    3    0    0  0.50792016902E+01 -0.14007162352E+02 -0.15764289774E+02  0.21691282098E+02  0.00000000000E+00 0. -1.
</event>
<event>
 7    1  0.4477737E-009  0.4778727E+02  0.7816164E-02  0.1312668E+00
        -11   -1    0    0    0    0  0.00000000000E+00  0.00000000000E+00  0.45593999997E+02  0.45594000000E+02  0.51100000000E-03 0. -1.
         11   -1    0    0    0    0 -0.00000000000E+00 -0.00000000000E+00 -0.45593999997E+02  0.45594000000E+02  0.51100000000E-03 0.  1.
    9900012    2    1    2    0    0  0.24183477642E+02  0.10924891491E+02 -0.34342826615E+02  0.47787267461E+02  0.19999983663E+02 0.  0.
         12    1    1    2    0    0 -0.24183477642E+02 -0.10924891491E+02  0.34342826615E+02  0.43400732539E+02  0.00000000000E+00 0. -1.
         11    1    3    3    0    0  0.13604038128E+01  0.26426195040E+01 -0.83734002790E+00  0.30879240535E+01  0.51100000000E-03 0. -1.
        -11    1    3    3    0    0  0.20343741049E+02  0.78738906055E+01 -0.16097140557E+02  0.27110586263E+02  0.51100000000E-03 0.  1.
        -12    1    3    3    0    0  0.24793327805E+01  0.40838138152E+00 -0.17408346030E+02  0.17588757145E+02  0.00000000000E+00 0.  1.
</event>
<event>
 7    1  0.4477737E-009  0.4778727E+02  0.7816164E-02  0.1312668E+00
        -11   -1    0    0    0    0  0.00000000000E+00  0.00000000000E+00  0.45593999997E+02  0.45594000000E+02  0.51100000000E-03 0.  1.
         11   -1    0    0    0    0 -0.00000000000E+00 -0.00000000000E+00 -0.45593999997E+02  0.45594000000E+02  0.51100000000E-03 0. -1.
    9900012    2    1    2    0    0  0.27486149153E+02  0.21158399013E+02  0.26085571212E+02  0.47787271094E+02  0.20000000227E+02 0.  0.
         12    1    1    2    0    0 -0.27486149153E+02 -0.21158399013E+02 -0.26085571212E+02  0.43400728906E+02  0.00000000000E+00 0. -1.
         11    1    3    3    0    0  0.16492495140E+02  0.28946255196E+01  0.72938406857E+01  0.18264209949E+02  0.51100000000E-03 0.  1.
        -11    1    3    3    0    0  0.50050581270E+01  0.95781314132E+01  0.14614296473E+02  0.18176052099E+02  0.51100000000E-03 0. -1.
        -12    1    3    3    0    0  0.59885958859E+01  0.86856420806E+01  0.41774340533E+01  0.11347009047E+02  0.00000000000E+00 0.  1.
</event>
<event>
 7    1  0.4477737E-009  0.4778727E+02  0.7816164E-02  0.1312668E+00
        -11   -1    0    0    0    0  0.00000000000E+00  0.00000000000E+00  0.45593999997E+02  0.45594000000E+02  0.51100000000E-03 0.  1.
         11   -1    0    0    0    0 -0.00000000000E+00 -0.00000000000E+00 -0.45593999997E+02  0.45594000000E+02  0.51100000000E-03 0. -1.
    9900012    2    1    2    0    0  0.73522112833E+01 -0.41934361419E+02  0.84307605884E+01  0.47787269563E+02  0.19999993247E+02 0.  0.
         12    1    1    2    0    0 -0.73522112833E+01  0.41934361419E+02 -0.84307605884E+01  0.43400730437E+02  0.00000000000E+00 0. -1.
         11    1    3    3    0    0  0.49937891136E+01 -0.29114357305E+02  0.10195539178E+02  0.31249524002E+02  0.51100000000E-03 0. -1.
        -11    1    3    3    0    0  0.59657525086E+01 -0.50935936388E+01 -0.74346232610E-01  0.78447706642E+01  0.51100000000E-03 0.  1.
         12    1    3    3    0    0 -0.36073303389E+01 -0.77264104752E+01 -0.16904323573E+01  0.86929748970E+01  0.00000000000E+00 0. -1.
</event>
<event>
 7    1  0.4477737E-009  0.4778727E+02  0.7816164E-02  0.1312668E+00
        -11   -1    0    0    0    0  0.00000000000E+00  0.00000000000E+00  0.45593999997E+02  0.45594000000E+02  0.51100000000E-03 0.  1.
         11   -1    0    0    0    0 -0.00000000000E+00 -0.00000000000E+00 -0.45593999997E+02  0.45594000000E+02  0.51100000000E-03 0. -1.
    9900012    2    1    2    0    0  0.38635271889E+01  0.19095262356E+02 -0.38782308877E+02  0.47787269953E+02  0.19999995022E+02 0.  0.
         12    1    1    2    0    0 -0.38635271889E+01 -0.19095262356E+02  0.38782308877E+02  0.43400730047E+02  0.00000000000E+00 0. -1.
         11    1    3    3    0    0  0.39105360461E+01  0.14052035615E+02 -0.16699396823E+02  0.22172547251E+02  0.51100000000E-03 0. -1.
        -11    1    3    3    0    0  0.29242731922E+01  0.25139740827E+01 -0.21285577091E+02  0.21632088012E+02  0.51100000000E-03 0.  1.
         12    1    3    3    0    0 -0.29712820494E+01  0.25292526583E+01 -0.79733496351E+00  0.39826346896E+01  0.00000000000E+00 0. -1.
</event>
<event>
 7    1  0.4477737E-009  0.4778727E+02  0.7816164E-02  0.1312668E+00
        -11   -1    0    0    0    0  0.00000000000E+00  0.00000000000E+00  0.45593999997E+02  0.45594000000E+02  0.51100000000E-03 0. -1.
         11   -1    0    0    0    0 -0.00000000000E+00 -0.00000000000E+00 -0.45593999997E+02  0.45594000000E+02  0.51100000000E-03 0.  1.
    9900012    2    1    2    0    0 -0.41168414327E+02  0.11949182037E+02  0.67824802238E+01  0.47787270426E+02  0.19999997181E+02 0.  0.
         12    1    1    2    0    0  0.41168414327E+02 -0.11949182037E+02 -0.67824802238E+01  0.43400729574E+02  0.00000000000E+00 0. -1.
         11    1    3    3    0    0 -0.38795104068E+02  0.73782082753E+01  0.73385589735E+01  0.40166559537E+02  0.51100000000E-03 0. -1.
        -11    1    3    3    0    0 -0.33550436462E+01  0.53263707882E+01 -0.83749188477E+00  0.63504280611E+01  0.51100000000E-03 0.  1.
         12    1    3    3    0    0  0.98173338689E+00 -0.75539702625E+00  0.28141313506E+00  0.12702828279E+01  0.00000000000E+00 0. -1.
</event>
<event>
 7    1  0.4477737E-009  0.4778727E+02  0.7816164E-02  0.1312668E+00
        -11   -1    0    0    0    0  0.00000000000E+00  0.00000000000E+00  0.45593999997E+02  0.45594000000E+02  0.51100000000E-03 0.  1.
         11   -1    0    0    0    0 -0.00000000000E+00 -0.00000000000E+00 -0.45593999997E+02  0.45594000000E+02  0.51100000000E-03 0. -1.
    9900012    2    1    2    0    0  0.18474215922E+02 -0.12124011601E+02  0.37354183965E+02  0.47787269926E+02  0.19999994902E+02 0.  0.
         12    1    1    2    0    0 -0.18474215922E+02  0.12124011601E+02 -0.37354183965E+02  0.43400730074E+02  0.00000000000E+00 0. -1.
         11    1    3    3    0    0 -0.14313096887E+01 -0.72113975672E+00  0.43217541846E+01  0.46093654083E+01  0.51100000000E-03 0. -1.
        -11    1    3    3    0    0  0.81039291649E+01 -0.13454937275E+02  0.20711891401E+02  0.25994065682E+02  0.51100000000E-03 0.  1.
        -12    1    3    3    0    0  0.11801596445E+02  0.20520654307E+01  0.12320538379E+02  0.17183838836E+02  0.00000000000E+00 0.  1.
</event>
<event>
 7    1  0.4477737E-009  0.4778727E+02  0.7816164E-02  0.1312668E+00
        -11   -1    0    0    0    0  0.00000000000E+00  0.00000000000E+00  0.45593999997E+02  0.45594000000E+02  0.51100000000E-03 0. -1.
         11   -1    0    0    0    0 -0.00000000000E+00 -0.00000000000E+00 -0.45593999997E+02  0.45594000000E+02  0.51100000000E-03 0.  1.
    9900012    2    1    2    0    0  0.57017169215E+01 -0.36065693503E+02 -0.23460163898E+02  0.47787272888E+02  0.20000008405E+02 0.  0.
         12    1    1    2    0    0 -0.57017169215E+01  0.36065693503E+02  0.23460163898E+02  0.43400727112E+02  0.00000000000E+00 0. -1.
         11    1    3    3    0    0 -0.15867812176E+01 -0.44921196997E-01 -0.10310145799E+01  0.18928507262E+01  0.51100000000E-03 0. -1.
        -11    1    3    3    0    0  0.10171646329E+02 -0.12461166436E+02 -0.67283836972E+01  0.17436003138E+02  0.51100000000E-03 0.  1.
        -12    1    3    3    0    0 -0.28831481900E+01 -0.23559605870E+02 -0.15700765621E+02  0.28458419024E+02  0.00000000000E+00 0.  1.
</event>
<event>
 7    1  0.4477737E-009  0.4778727E+02  0.7816164E-02  0.1312668E+00
        -11   -1    0    0    0    0  0.00000000000E+00  0.00000000000E+00  0.45593999997E+02  0.45594000000E+02  0.51100000000E-03 0.  1.
         11   -1    0    0    0    0 -0.00000000000E+00 -0.00000000000E+00 -0.45593999997E+02  0.45594000000E+02  0.51100000000E-03 0. -1.
    9900012    2    1    2    0    0 -0.21358884868E+02  0.21723711579E+02  0.30911187949E+02  0.47787272494E+02  0.20000006610E+02 0.  0.
         12    1    1    2    0    0  0.21358884868E+02 -0.21723711579E+02 -0.30911187949E+02  0.43400727506E+02  0.00000000000E+00 0. -1.
         11    1    3    3    0    0 -0.22603945982E+02  0.16083989942E+02  0.22521150237E+02  0.35732832447E+02  0.51100000000E-03 0. -1.
        -11    1    3    3    0    0  0.24995593288E+01  0.55927526633E+01  0.36060152940E+01  0.71084474925E+01  0.51100000000E-03 0.  1.
        -12    1    3    3    0    0 -0.12544982148E+01  0.46968974160E-01  0.47840224182E+01  0.49459925549E+01  0.00000000000E+00 0.  1.
</event>
<event>
 7    1  0.4477737E-009  0.4778727E+02  0.7816164E-02  0.1312668E+00
        -11   -1    0    0    0    0  0.00000000000E+00  0.00000000000E+00  0.45593999997E+02  0.45594000000E+02  0.51100000000E-03 0. -1.
         11   -1    0    0    0    0 -0.00000000000E+00 -0.00000000000E+00 -0.45593999997E+02  0.45594000000E+02  0.51100000000E-03 0.  1.
    9900012    2    1    2    0    0  0.41882430486E+02  0.58505320887E+01 -0.97599510202E+01  0.47787270132E+02  0.19999995840E+02 0.  0.
         12    1    1    2    0    0 -0.41882430486E+02 -0.58505320887E+01  0.97599510202E+01  0.43400729868E+02  0.00000000000E+00 0. -1.
         11    1    3    3    0    0  0.21047158311E+01 -0.26085108629E+01 -0.61454339762E+00  0.34076122872E+01  0.51100000000E-03 0. -1.
        -11    1    3    3    0    0  0.28544007805E+02 -0.11652119043E+01 -0.48550558423E+01  0.28977399260E+02  0.51100000000E-03 0.  1.
        -12    1    3    3    0    0  0.11233706850E+02  0.96242548559E+01 -0.42903517803E+01  0.15402258585E+02  0.00000000000E+00 0.  1.
</event>
<event>
 7    1  0.4477737E-009  0.4778727E+02  0.7816164E-02  0.1312668E+00
        -11   -1    0    0    0    0  0.00000000000E+00  0.00000000000E+00  0.45593999997E+02  0.45594000000E+02  0.51100000000E-03 0.  1.
         11   -1    0    0    0    0 -0.00000000000E+00 -0.00000000000E+00 -0.45593999997E+02  0.45594000000E+02  0.51100000000E-03 0. -1.
    9900012    2    1    2    0    0 -0.43004813089E+02  0.24884870325E+01 -0.52930915624E+01  0.47787270343E+02  0.19999996801E+02 0.  0.
         12    1    1    2    0    0  0.43004813089E+02 -0.24884870325E+01  0.52930915624E+01  0.43400729657E+02  0.00000000000E+00 0. -1.
         11    1    3    3    0    0 -0.15068030659E+02 -0.76979376114E+01  0.13237217109E+01  0.16972213493E+02  0.51100000000E-03 0. -1.
        -11    1    3    3    0    0 -0.16246281985E+01  0.17169122590E+01 -0.11873844205E+01  0.26452006562E+01  0.51100000000E-03 0.  1.
         12    1    3    3    0    0 -0.26312154231E+02  0.84695123848E+01 -0.54294288528E+01  0.28169856194E+02  0.00000000000E+00 0. -1.
</event>
<event>
 7    1  0.4477737E-009  0.4778727E+02  0.7816164E-02  0.1312668E+00
        -11   -1    0    0    0    0  0.00000000000E+00  0.00000000000E+00  0.45593999997E+02  0.45594000000E+02  0.51100000000E-03 0.  1.
         11   -1    0    0    0    0 -0.00000000000E+00 -0.00000000000E+00 -0.45593999997E+02  0.45594000000E+02  0.51100000000E-03 0. -1.
    9900012    2    1    2    0    0 -0.14863259992E+02 -0.62033792399E+01  0.40301673393E+02  0.47787270861E+02  0.19999999162E+02 0.  0.
         12    1    1    2    0    0  0.14863259992E+02  0.62033792399E+01 -0.40301673393E+02  0.43400729139E+02  0.00000000000E+00 0. -1.
         11    1    3    3    0    0  0.47112661783E+01 -0.19731133614E+01  0.88212740983E+01  0.10193335191E+02  0.51100000000E-03 0. -1.
        -11    1    3    3    0    0 -0.17201040143E+02 -0.42952003041E+01  0.24657284615E+02  0.30369494769E+02  0.51100000000E-03 0.  1.
         12    1    3    3    0    0 -0.23734860266E+01  0.64934425563E-01  0.68231146792E+01  0.72244409005E+01  0.00000000000E+00 0. -1.
</event>
<event>
 7    1  0.4477737E-009  0.4778727E+02  0.7816164E-02  0.1312668E+00
        -11   -1    0    0    0    0  0.00000000000E+00  0.00000000000E+00  0.45593999997E+02  0.45594000000E+02  0.51100000000E-03 0. -1.
         11   -1    0    0    0    0 -0.00000000000E+00 -0.00000000000E+00 -0.45593999997E+02  0.45594000000E+02  0.51100000000E-03 0.  1.
    9900012    2    1    2    0    0 -0.22104883085E+02 -0.11231109046E+02 -0.35621056390E+02  0.47787270457E+02  0.19999997320E+02 0.  0.
         12    1    1    2    0    0  0.22104883085E+02  0.11231109046E+02  0.35621056390E+02  0.43400729543E+02  0.00000000000E+00 0. -1.
         11    1    3    3    0    0 -0.12377019398E+02  0.25891096793E+00 -0.23763187178E+02  0.26794527597E+02  0.51100000000E-03 0. -1.
        -11    1    3    3    0    0 -0.59094420127E+01 -0.56972970989E+01 -0.12292780980E+01  0.83001098811E+01  0.51100000000E-03 0.  1.
         12    1    3    3    0    0 -0.38184216739E+01 -0.57927229147E+01 -0.10628591114E+02  0.12692632978E+02  0.00000000000E+00 0. -1.
</event>
<event>
 7    1  0.4477737E-009  0.4778727E+02  0.7816164E-02  0.1312668E+00
        -11   -1    0    0    0    0  0.00000000000E+00  0.00000000000E+00  0.45593999997E+02  0.45594000000E+02  0.51100000000E-03 0. -1.
         11   -1    0    0    0    0 -0.00000000000E+00 -0.00000000000E+00 -0.45593999997E+02  0.45594000000E+02  0.51100000000E-03 0.  1.
    9900012    2    1    2    0    0  0.29704408714E+02 -0.16269972453E+02 -0.27139626774E+02  0.47787271411E+02  0.20000001671E+02 0.  0.
         12    1    1    2    0    0 -0.29704408714E+02  0.16269972453E+02  0.27139626774E+02  0.43400728589E+02  0.00000000000E+00 0. -1.
         11    1    3    3    0    0  0.56987354172E+01  0.16150468236E+01  0.18857463462E+00  0.59261726478E+01  0.51100000000E-03 0. -1.
        -11    1    3    3    0    0  0.21493234053E+02 -0.14563377171E+02 -0.17845690564E+02  0.31504281244E+02  0.51100000000E-03 0.  1.
        -12    1    3    3    0    0  0.25124392433E+01 -0.33216421047E+01 -0.94825108439E+01  0.10356817519E+02  0.00000000000E+00 0.  1.
</event>
<event>
 7    1  0.4477737E-009  0.4778727E+02  0.7816164E-02  0.1312668E+00
        -11   -1    0    0    0    0  0.00000000000E+00  0.00000000000E+00  0.45593999997E+02  0.45594000000E+02  0.51100000000E-03 0. -1.
         11   -1    0    0    0    0 -0.00000000000E+00 -0.00000000000E+00 -0.45593999997E+02  0.45594000000E+02  0.51100000000E-03 0.  1.
    9900012    2    1    2    0    0 -0.36624100243E+02  0.20455245444E+02  0.11130193292E+02  0.47787274344E+02  0.20000015043E+02 0.  0.
         12    1    1    2    0    0  0.36624100243E+02 -0.20455245444E+02 -0.11130193292E+02  0.43400725656E+02  0.00000000000E+00 0. -1.
         11    1    3    3    0    0 -0.25244960538E+02  0.18616205102E+02  0.81716909699E+00  0.31377362709E+02  0.51100000000E-03 0. -1.
        -11    1    3    3    0    0 -0.12000183128E+02  0.18133232150E+01  0.96948853436E+01  0.15533297727E+02  0.51100000000E-03 0.  1.
         12    1    3    3    0    0  0.62104342325E+00  0.25717126427E-01  0.61813885102E+00  0.87661390777E+00  0.00000000000E+00 0. -1.
</event>
<event>
 7    1  0.4477737E-009  0.4778727E+02  0.7816164E-02  0.1312668E+00
        -11   -1    0    0    0    0  0.00000000000E+00  0.00000000000E+00  0.45593999997E+02  0.45594000000E+02  0.51100000000E-03 0.  1.
         11   -1    0    0    0    0 -0.00000000000E+00 -0.00000000000E+00 -0.45593999997E+02  0.45594000000E+02  0.51100000000E-03 0. -1.
    9900012    2    1    2    0    0 -0.17041088249E+02  0.10019984945E+02  0.38637085790E+02  0.47787272064E+02  0.20000004650E+02 0.  0.
         12    1    1    2    0    0  0.17041088249E+02 -0.10019984945E+02 -0.38637085790E+02  0.43400727936E+02  0.00000000000E+00 0. -1.
         11    1    3    3    0    0 -0.58796082984E+01  0.43702221958E+01  0.82315085197E+00  0.73719884271E+01  0.51100000000E-03 0. -1.
        -11    1    3    3    0    0 -0.75489660977E+01  0.16792526286E+01  0.29670462919E+02  0.30661753841E+02  0.51100000000E-03 0.  1.
         12    1    3    3    0    0 -0.36125138533E+01  0.39705101209E+01  0.81434720187E+01  0.97535297959E+01  0.00000000000E+00 0. -1.
</event>
<event>
 7    1  0.4477737E-009  0.4778727E+02  0.7816164E-02  0.1312668E+00
        -11   -1    0    0    0    0  0.00000000000E+00  0.00000000000E+00  0.45593999997E+02  0.45594000000E+02  0.51100000000E-03 0.  1.
         11   -1    0    0    0    0 -0.00000000000E+00 -0.00000000000E+00 -0.45593999997E+02  0.45594000000E+02  0.51100000000E-03 0. -1.
    9900012    2    1    2    0    0  0.79591343579E+01  0.13549390752E+02  0.40456017928E+02  0.47787271941E+02  0.20000004086E+02 0.  0.
         12    1    1    2    0    0 -0.79591343579E+01 -0.13549390752E+02 -0.40456017928E+02  0.43400728059E+02  0.00000000000E+00 0. -1.
         11    1    3    3    0    0 -0.43670007940E+01  0.39677001399E+01  0.17157763696E+02  0.18143929995E+02  0.51100000000E-03 0. -1.
        -11    1    3    3    0    0  0.13215953858E+02  0.72251999451E+01  0.16242192961E+02  0.22151157601E+02  0.51100000000E-03 0.  1.
        -12    1    3    3    0    0 -0.88981870628E+00  0.23564906668E+01  0.70560612712E+01  0.74921843448E+01  0.00000000000E+00 0.  1.
</event>
<event>
 7    1  0.4477737E-009  0.4778727E+02  0.7816164E-02  0.1312668E+00
        -11   -1    0    0    0    0  0.00000000000E+00  0.00000000000E+00  0.45593999997E+02  0.45594000000E+02  0.51100000000E-03 0. -1.
         11   -1    0    0    0    0 -0.00000000000E+00 -0.00000000000E+00 -0.45593999997E+02  0.45594000000E+02  0.51100000000E-03 0.  1.
    9900012    2    1    2    0    0 -0.36451136592E+02 -0.23342137150E+02  0.31752636234E+01  0.47787273916E+02  0.20000013092E+02 0.  0.
         12    1    1    2    0    0  0.36451136592E+02  0.23342137150E+02 -0.31752636234E+01  0.43400726084E+02  0.00000000000E+00 0. -1.
         11    1    3    3    0    0 -0.31026693324E+00 -0.68598080433E+01 -0.31045134894E+01  0.75359960343E+01  0.51100000000E-03 0. -1.
        -11    1    3    3    0    0 -0.17179813058E+02 -0.86890869416E+01  0.26900026453E+01  0.19439195536E+02  0.51100000000E-03 0.  1.
         12    1    3    3    0    0 -0.18961056600E+02 -0.77932421651E+01  0.35897744675E+01  0.20812082345E+02  0.00000000000E+00 0. -1.
</event>
<event>
 7    1  0.4477737E-009  0.4778732E+02  0.7816164E-02  0.1312668E+00
        -11   -1    0    0    0    0  0.00000000000E+00  0.00000000000E+00  0.45593999997E+02  0.45594000000E+02  0.51100000000E-03 0.  1.
         11   -1    0    0    0    0 -0.00000000000E+00 -0.00000000000E+00 -0.45593999997E+02  0.45594000000E+02  0.51100000000E-03 0. -1.
    9900012    2    1    2    0    0 -0.95917365027E+01 -0.38928998183E+01  0.42148111048E+02  0.47787316330E+02  0.20000206473E+02 0.  0.
         12    1    1    2    0    0  0.95917365027E+01  0.38928998183E+01 -0.42148111048E+02  0.43400683670E+02  0.00000000000E+00 0. -1.
         11    1    3    3    0    0 -0.14273196092E+00 -0.53447860463E+01  0.12571504835E+01  0.54924983288E+01  0.51100000000E-03 0. -1.
        -11    1    3    3    0    0 -0.87693626695E+01 -0.44529961718E+00  0.33963493074E+02  0.35080177814E+02  0.51100000000E-03 0.  1.
         12    1    3    3    0    0 -0.67964187226E+00  0.18971858451E+01  0.69274674903E+01  0.72146401875E+01  0.00000000000E+00 0. -1.
</event>
<event>
 7    1  0.4477737E-009  0.4778726E+02  0.7816164E-02  0.1312668E+00
        -11   -1    0    0    0    0  0.00000000000E+00  0.00000000000E+00  0.45593999997E+02  0.45594000000E+02  0.51100000000E-03 0. -1.
         11   -1    0    0    0    0 -0.00000000000E+00 -0.00000000000E+00 -0.45593999997E+02  0.45594000000E+02  0.51100000000E-03 0.  1.
    9900012    2    1    2    0    0 -0.11078360608E+02  0.17806666027E+02 -0.37997587912E+02  0.47787261344E+02  0.19999955772E+02 0.  0.
         12    1    1    2    0    0  0.11078360608E+02 -0.17806666027E+02  0.37997587912E+02  0.43400738656E+02  0.00000000000E+00 0. -1.
         11    1    3    3    0    0 -0.11067922836E+02  0.83744498257E+01 -0.29534148921E+02  0.32632748559E+02  0.51100000000E-03 0. -1.
        -11    1    3    3    0    0 -0.34240559738E+01  0.53011571698E+01 -0.73383397160E+01  0.96787218526E+01  0.51100000000E-03 0.  1.
         12    1    3    3    0    0  0.34136182023E+01  0.41310590317E+01 -0.11250992749E+01  0.54757909322E+01  0.00000000000E+00 0. -1.
</event>
<event>
 7    1  0.4477737E-009  0.4778727E+02  0.7816164E-02  0.1312668E+00
        -11   -1    0    0    0    0  0.00000000000E+00  0.00000000000E+00  0.45593999997E+02  0.45594000000E+02  0.51100000000E-03 0.  1.
         11   -1    0    0    0    0 -0.00000000000E+00 -0.00000000000E+00 -0.45593999997E+02  0.45594000000E+02  0.51100000000E-03 0. -1.
    9900012    2    1    2    0    0  0.16784370221E+02  0.39985802032E+02  0.17446146528E+01  0.47787272723E+02  0.20000007655E+02 0.  0.
         12    1    1    2    0    0 -0.16784370221E+02 -0.39985802032E+02 -0.17446146528E+01  0.43400727277E+02  0.00000000000E+00 0. -1.
         11    1    3    3    0    0  0.16037693896E+02  0.17152948613E+02  0.45130945311E+01  0.23912325151E+02  0.51100000000E-03 0. -1.
        -11    1    3    3    0    0 -0.81174508396E+00  0.16659343602E+02 -0.45019898721E+01  0.17276011473E+02  0.51100000000E-03 0.  1.
        -12    1    3    3    0    0  0.15584214086E+01  0.61735098175E+01  0.17335099937E+01  0.65989361000E+01  0.00000000000E+00 0.  1.
</event>
<event>
 7    1  0.4477737E-009  0.4778728E+02  0.7816164E-02  0.1312668E+00
        -11   -1    0    0    0    0  0.00000000000E+00  0.00000000000E+00  0.45593999997E+02  0.45594000000E+02  0.51100000000E-03 0.  1.
         11   -1    0    0    0    0 -0.00000000000E+00 -0.00000000000E+00 -0.45593999997E+02  0.45594000000E+02  0.51100000000E-03 0. -1.
    9900012    2    1    2    0    0 -0.21689203845E+02  0.37530770790E+02 -0.21545241573E+01  0.47787282334E+02  0.20000051474E+02 0.  0.
         12    1    1    2    0    0  0.21689203845E+02 -0.37530770790E+02  0.21545241573E+01  0.43400717666E+02  0.00000000000E+00 0. -1.
         11    1    3    3    0    0 -0.96372044479E+01  0.56662837358E+01  0.48964379255E+01  0.12204818129E+02  0.51100000000E-03 0. -1.
        -11    1    3    3    0    0 -0.64970959938E+01  0.24967204287E+02 -0.69794498443E+01  0.26726134525E+02  0.51100000000E-03 0.  1.
        -12    1    3    3    0    0 -0.55549034038E+01  0.68972827679E+01 -0.71512238503E-01  0.88563296803E+01  0.00000000000E+00 0.  1.
</event>
<event>
 7    1  0.4477737E-009  0.4778727E+02  0.7816164E-02  0.1312668E+00
        -11   -1    0    0    0    0  0.00000000000E+00  0.00000000000E+00  0.45593999997E+02  0.45594000000E+02  0.51100000000E-03 0.  1.
         11   -1    0    0    0    0 -0.00000000000E+00 -0.00000000000E+00 -0.45593999997E+02  0.45594000000E+02  0.51100000000E-03 0. -1.
    9900012    2    1    2    0    0  0.20177683383E+02 -0.28543664054E+02 -0.25724378602E+02  0.47787270527E+02  0.19999997640E+02 0.  0.
         12    1    1    2    0    0 -0.20177683383E+02  0.28543664054E+02  0.25724378602E+02  0.43400729473E+02  0.00000000000E+00 0. -1.
         11    1    3    3    0    0  0.18569401853E+02 -0.15232560627E+02 -0.12258060185E+02  0.26965044561E+02  0.51100000000E-03 0.  1.
        -11    1    3    3    0    0  0.47636469372E+01 -0.56005417411E+01 -0.79586484310E+01  0.10835058147E+02  0.51100000000E-03 0. -1.
         12    1    3    3    0    0 -0.31553654070E+01 -0.77105616857E+01 -0.55076699867E+01  0.99871678189E+01  0.00000000000E+00 0. -1.
</event>
<event>
 7    1  0.4477737E-009  0.4778727E+02  0.7816164E-02  0.1312668E+00
        -11   -1    0    0    0    0  0.00000000000E+00  0.00000000000E+00  0.45593999997E+02  0.45594000000E+02  0.51100000000E-03 0.  1.
         11   -1    0    0    0    0 -0.00000000000E+00 -0.00000000000E+00 -0.45593999997E+02  0.45594000000E+02  0.51100000000E-03 0. -1.
    9900012    2    1    2    0    0 -0.39023365564E+02  0.17076390176E+02 -0.83184631349E+01  0.47787274311E+02  0.20000014893E+02 0.  0.
         12    1    1    2    0    0  0.39023365564E+02 -0.17076390176E+02  0.83184631349E+01  0.43400725689E+02  0.00000000000E+00 0. -1.
         11    1    3    3    0    0  0.77080234839E+00 -0.18113398829E-01  0.26397204693E+01  0.27500161404E+01  0.51100000000E-03 0. -1.
        -11    1    3    3    0    0 -0.29959302093E+02  0.14168971476E+02 -0.10506905167E+02  0.34766572898E+02  0.51100000000E-03 0.  1.
        -12    1    3    3    0    0 -0.98348658192E+01  0.29255320984E+01 -0.45127843765E+00  0.10270685273E+02  0.00000000000E+00 0.  1.
</event>
<event>
 7    1  0.4477737E-009  0.4778727E+02  0.7816164E-02  0.1312668E+00
        -11   -1    0    0    0    0  0.00000000000E+00  0.00000000000E+00  0.45593999997E+02  0.45594000000E+02  0.51100000000E-03 0.  1.
         11   -1    0    0    0    0 -0.00000000000E+00 -0.00000000000E+00 -0.45593999997E+02  0.45594000000E+02  0.51100000000E-03 0. -1.
    9900012    2    1    2    0    0 -0.33179416435E+02 -0.17085509569E+02  0.22154799525E+02  0.47787268967E+02  0.19999990527E+02 0.  0.
         12    1    1    2    0    0  0.33179416435E+02  0.17085509569E+02 -0.22154799525E+02  0.43400731033E+02  0.00000000000E+00 0. -1.
         11    1    3    3    0    0 -0.20644746747E+02 -0.64581153705E+00  0.12594054573E+02  0.24191586381E+02  0.51100000000E-03 0. -1.
        -11    1    3    3    0    0 -0.25261082088E+01 -0.72930326600E+01  0.16310644335E+01  0.78885942670E+01  0.51100000000E-03 0.  1.
         12    1    3    3    0    0 -0.10008561480E+02 -0.91466653723E+01  0.79296805190E+01  0.15707088319E+02  0.00000000000E+00 0. -1.
</event>
<event>
 7    1  0.4477737E-009  0.4778727E+02  0.7816164E-02  0.1312668E+00
        -11   -1    0    0    0    0  0.00000000000E+00  0.00000000000E+00  0.45593999997E+02  0.45594000000E+02  0.51100000000E-03 0. -1.
         11   -1    0    0    0    0 -0.00000000000E+00 -0.00000000000E+00 -0.45593999997E+02  0.45594000000E+02  0.51100000000E-03 0.  1.
    9900012    2    1    2    0    0 -0.19530715336E+02  0.18579272297E+02 -0.34014488486E+02  0.47787266970E+02  0.19999981422E+02 0.  0.
         12    1    1    2    0    0  0.19530715336E+02 -0.18579272297E+02  0.34014488486E+02  0.43400733030E+02  0.00000000000E+00 0. -1.
         11    1    3    3    0    0  0.94553060322E+00  0.38741271864E+01  0.14714874362E+01  0.42506664318E+01  0.51100000000E-03 0. -1.
        -11    1    3    3    0    0 -0.10504872176E+02  0.71832986315E+01 -0.18396634884E+02  0.22369360607E+02  0.51100000000E-03 0.  1.
         12    1    3    3    0    0 -0.99713737628E+01  0.75218464788E+01 -0.17089341038E+02  0.21167239931E+02  0.00000000000E+00 0. -1.
</event>
<event>
 7    1  0.4477737E-009  0.4778727E+02  0.7816164E-02  0.1312668E+00
        -11   -1    0    0    0    0  0.00000000000E+00  0.00000000000E+00  0.45593999997E+02  0.45594000000E+02  0.51100000000E-03 0.  1.
         11   -1    0    0    0    0 -0.00000000000E+00 -0.00000000000E+00 -0.45593999997E+02  0.45594000000E+02  0.51100000000E-03 0. -1.
    9900012    2    1    2    0    0  0.10749781826E+02 -0.41393684925E+02  0.73910936045E+01  0.47787271600E+02  0.20000002531E+02 0.  0.
         12    1    1    2    0    0 -0.10749781826E+02  0.41393684925E+02 -0.73910936045E+01  0.43400728400E+02  0.00000000000E+00 0. -1.
         11    1    3    3    0    0  0.31417106582E+01 -0.11399761682E+02 -0.59786162513E+01  0.13250236405E+02  0.51100000000E-03 0. -1.
        -11    1    3    3    0    0  0.32408254393E+01 -0.22549656945E+02  0.70750841775E+01  0.23854701722E+02  0.51100000000E-03 0.  1.
         12    1    3    3    0    0  0.43672457290E+01 -0.74442662991E+01  0.62946256782E+01  0.10682333473E+02  0.00000000000E+00 0. -1.
</event>
<event>
 7    1  0.4477737E-009  0.4778727E+02  0.7816164E-02  0.1312668E+00
        -11   -1    0    0    0    0  0.00000000000E+00  0.00000000000E+00  0.45593999997E+02  0.45594000000E+02  0.51100000000E-03 0.  1.
         11   -1    0    0    0    0 -0.00000000000E+00 -0.00000000000E+00 -0.45593999997E+02  0.45594000000E+02  0.51100000000E-03 0. -1.
    9900012    2    1    2    0    0 -0.33621305955E+02  0.25396495085E+02  0.10404279026E+02  0.47787271910E+02  0.20000003945E+02 0.  0.
         12    1    1    2    0    0  0.33621305955E+02 -0.25396495085E+02 -0.10404279026E+02  0.43400728090E+02  0.00000000000E+00 0. -1.
         11    1    3    3    0    0 -0.16868120319E+02  0.74171050040E+01  0.67050008304E+01  0.19608772683E+02  0.51100000000E-03 0. -1.
        -11    1    3    3    0    0 -0.66009099769E+01  0.44072103937E+01 -0.47399273537E+01  0.92445890962E+01  0.51100000000E-03 0.  1.
        -12    1    3    3    0    0 -0.10152275659E+02  0.13572179687E+02  0.84392055494E+01  0.18933910130E+02  0.00000000000E+00 0.  1.
</event>
<event>
 7    1  0.4477737E-009  0.4778726E+02  0.7816164E-02  0.1312668E+00
        -11   -1    0    0    0    0  0.00000000000E+00  0.00000000000E+00  0.45593999997E+02  0.45594000000E+02  0.51100000000E-03 0.  1.
         11   -1    0    0    0    0 -0.00000000000E+00 -0.00000000000E+00 -0.45593999997E+02  0.45594000000E+02  0.51100000000E-03 0. -1.
    9900012    2    1    2    0    0  0.42998421801E+02  0.31242017712E+01  0.49999446789E+01  0.47787258521E+02  0.19999942902E+02 0.  0.
         12    1    1    2    0    0 -0.42998421801E+02 -0.31242017712E+01 -0.49999446789E+01  0.43400741479E+02  0.00000000000E+00 0. -1.
         11    1    3    3    0    0  0.18563632116E+01  0.33630043021E+01  0.41466075601E+01  0.56524540536E+01  0.51100000000E-03 0. -1.
        -11    1    3    3    0    0  0.23064239204E+02 -0.36940786182E+01  0.32166058973E+01  0.23578632290E+02  0.51100000000E-03 0.  1.
        -12    1    3    3    0    0  0.18077819385E+02  0.34552760874E+01 -0.23632687784E+01  0.18556172178E+02  0.00000000000E+00 0.  1.
</event>
<event>
 7    1  0.4477737E-009  0.4778727E+02  0.7816164E-02  0.1312668E+00
        -11   -1    0    0    0    0  0.00000000000E+00  0.00000000000E+00  0.45593999997E+02  0.45594000000E+02  0.51100000000E-03 0.  1.
         11   -1    0    0    0    0 -0.00000000000E+00 -0.00000000000E+00 -0.45593999997E+02  0.45594000000E+02  0.51100000000E-03 0. -1.
    9900012    2    1    2    0    0  0.23675283478E+02 -0.20882970979E+02  0.29782644999E+02  0.47787268810E+02  0.19999989813E+02 0.  0.
         12    1    1    2    0    0 -0.23675283478E+02  0.20882970979E+02 -0.29782644999E+02  0.43400731190E+02  0.00000000000E+00 0. -1.
         11    1    3    3    0    0  0.16900337743E+02 -0.11758621012E+02  0.27689233406E+02  0.34504785622E+02  0.51100000000E-03 0. -1.
        -11    1    3    3    0    0  0.77173911666E+01 -0.75185056704E+01  0.30382433846E+01  0.11194506557E+02  0.51100000000E-03 0.  1.
         12    1    3    3    0    0 -0.94244543194E+00 -0.16058442968E+01 -0.94483179148E+00  0.20879766310E+01  0.00000000000E+00 0. -1.
</event>
<event>
 7    1  0.4477737E-009  0.4778727E+02  0.7816164E-02  0.1312668E+00
        -11   -1    0    0    0    0  0.00000000000E+00  0.00000000000E+00  0.45593999997E+02  0.45594000000E+02  0.51100000000E-03 0.  1.
         11   -1    0    0    0    0 -0.00000000000E+00 -0.00000000000E+00 -0.45593999997E+02  0.45594000000E+02  0.51100000000E-03 0. -1.
    9900012    2    1    2    0    0  0.52470670787E+01 -0.22279553507E+02  0.36874289238E+02  0.47787269312E+02  0.19999992103E+02 0.  0.
         12    1    1    2    0    0 -0.52470670787E+01  0.22279553507E+02 -0.36874289238E+02  0.43400730688E+02  0.00000000000E+00 0. -1.
         11    1    3    3    0    0 -0.57357100408E+01 -0.19935024806E+01  0.34564017744E+01  0.69870691495E+01  0.51100000000E-03 0. -1.
        -11    1    3    3    0    0  0.51147947729E+01 -0.55854084552E+01  0.11222415204E+02  0.13538852110E+02  0.51100000000E-03 0.  1.
         12    1    3    3    0    0  0.58679823466E+01 -0.14700642571E+02  0.22195472260E+02  0.27261348053E+02  0.00000000000E+00 0. -1.
</event>
<event>
 7    1  0.4477737E-009  0.4778727E+02  0.7816164E-02  0.1312668E+00
        -11   -1    0    0    0    0  0.00000000000E+00  0.00000000000E+00  0.45593999997E+02  0.45594000000E+02  0.51100000000E-03 0. -1.
         11   -1    0    0    0    0 -0.00000000000E+00 -0.00000000000E+00 -0.45593999997E+02  0.45594000000E+02  0.51100000000E-03 0.  1.
    9900012    2    1    2    0    0 -0.61376837581E+01 -0.28358303238E+01 -0.42870857615E+02  0.47787268114E+02  0.19999986641E+02 0.  0.
         12    1    1    2    0    0  0.61376837581E+01  0.28358303238E+01  0.42870857615E+02  0.43400731886E+02  0.00000000000E+00 0. -1.
         11    1    3    3    0    0 -0.35505913760E+01 -0.76882598213E+00 -0.11433934506E+01  0.38085615859E+01  0.51100000000E-03 0. -1.
        -11    1    3    3    0    0 -0.38874620018E+01 -0.63187398901E+01 -0.35846723303E+02  0.36606371118E+02  0.51100000000E-03 0.  1.
        -12    1    3    3    0    0  0.13003696197E+01  0.42517355484E+01 -0.58807408621E+01  0.73723354107E+01  0.00000000000E+00 0.  1.
</event>
<event>
 7    1  0.4477737E-009  0.4778727E+02  0.7816164E-02  0.1312668E+00
        -11   -1    0    0    0    0  0.00000000000E+00  0.00000000000E+00  0.45593999997E+02  0.45594000000E+02  0.51100000000E-03 0.  1.
         11   -1    0    0    0    0 -0.00000000000E+00 -0.00000000000E+00 -0.45593999997E+02  0.45594000000E+02  0.51100000000E-03 0. -1.
    9900012    2    1    2    0    0 -0.66769873175E+01  0.55891801152E+01  0.42518256966E+02  0.47787271096E+02  0.20000000233E+02 0.  0.
         12    1    1    2    0    0  0.66769873175E+01 -0.55891801152E+01 -0.42518256966E+02  0.43400728904E+02  0.00000000000E+00 0. -1.
         11    1    3    3    0    0  0.55805704599E+01  0.50434759809E+00  0.49964119784E+01  0.75074140739E+01  0.51100000000E-03 0. -1.
        -11    1    3    3    0    0 -0.94938582967E+01  0.64394222082E+01  0.27523097270E+02  0.29818121794E+02  0.51100000000E-03 0.  1.
         12    1    3    3    0    0 -0.27636994807E+01 -0.13545896911E+01  0.99987477181E+01  0.10461735228E+02  0.00000000000E+00 0. -1.
</event>
<event>
 7    1  0.4477737E-009  0.4778727E+02  0.7816164E-02  0.1312668E+00
        -11   -1    0    0    0    0  0.00000000000E+00  0.00000000000E+00  0.45593999997E+02  0.45594000000E+02  0.51100000000E-03 0. -1.
         11   -1    0    0    0    0 -0.00000000000E+00 -0.00000000000E+00 -0.45593999997E+02  0.45594000000E+02  0.51100000000E-03 0.  1.
    9900012    2    1    2    0    0  0.39801595788E+02 -0.64021302887E+01 -0.16076970310E+02  0.47787271044E+02  0.20000000000E+02 0.  0.
         12    1    1    2    0    0 -0.39801595788E+02  0.64021302887E+01  0.16076970310E+02  0.43400728956E+02  0.00000000000E+00 0. -1.
         11    1    3    3    0    0  0.11195516338E+02 -0.50847191309E+01  0.20366448439E+01  0.12463622154E+02  0.51100000000E-03 0. -1.
        -11    1    3    3    0    0  0.28613630405E+02 -0.13700331459E+01 -0.15237141855E+02  0.32446684391E+02  0.51100000000E-03 0.  1.
        -12    1    3    3    0    0 -0.75509554469E-02  0.52621988028E-01 -0.28764732989E+01  0.28769644992E+01  0.00000000000E+00 0.  1.
</event>
<event>
 7    1  0.4477737E-009  0.4778727E+02  0.7816164E-02  0.1312668E+00
        -11   -1    0    0    0    0  0.00000000000E+00  0.00000000000E+00  0.45593999997E+02  0.45594000000E+02  0.51100000000E-03 0.  1.
         11   -1    0    0    0    0 -0.00000000000E+00 -0.00000000000E+00 -0.45593999997E+02  0.45594000000E+02  0.51100000000E-03 0. -1.
    9900012    2    1    2    0    0 -0.32303915146E+02  0.61919741152E+01  0.28315010527E+02  0.47787270763E+02  0.19999998716E+02 0.  0.
         12    1    1    2    0    0  0.32303915146E+02 -0.61919741152E+01 -0.28315010527E+02  0.43400729237E+02  0.00000000000E+00 0. -1.
         11    1    3    3    0    0 -0.26400599886E+02  0.75842218479E+01  0.22663734436E+02  0.35611191418E+02  0.51100000000E-03 0. -1.
        -11    1    3    3    0    0  0.14455834025E+01 -0.28701774569E+01  0.23714079698E+01  0.39938960963E+01  0.51100000000E-03 0.  1.
        -12    1    3    3    0    0 -0.73488986620E+01  0.14779297242E+01  0.32798681211E+01  0.81821832481E+01  0.00000000000E+00 0.  1.
</event>
<event>
 7    1  0.4477737E-009  0.4778727E+02  0.7816164E-02  0.1312668E+00
        -11   -1    0    0    0    0  0.00000000000E+00  0.00000000000E+00  0.45593999997E+02  0.45594000000E+02  0.51100000000E-03 0.  1.
         11   -1    0    0    0    0 -0.00000000000E+00 -0.00000000000E+00 -0.45593999997E+02  0.45594000000E+02  0.51100000000E-03 0. -1.
    9900012    2    1    2    0    0 -0.16230206440E+02  0.33991041789E+02  0.21559517114E+02  0.47787270730E+02  0.19999998568E+02 0.  0.
         12    1    1    2    0    0  0.16230206440E+02 -0.33991041789E+02 -0.21559517114E+02  0.43400729270E+02  0.00000000000E+00 0. -1.
         11    1    3    3    0    0 -0.84995824657E+00  0.76086375716E+01  0.13405618649E+02  0.15437759110E+02  0.51100000000E-03 0. -1.
        -11    1    3    3    0    0 -0.12074916337E+02  0.21663185390E+02  0.37184177879E+01  0.25078353951E+02  0.51100000000E-03 0.  1.
        -12    1    3    3    0    0 -0.33053318561E+01  0.47192188269E+01  0.44354806763E+01  0.72711576688E+01  0.00000000000E+00 0.  1.
</event>
<event>
 7    1  0.4477737E-009  0.4778727E+02  0.7816164E-02  0.1312668E+00
        -11   -1    0    0    0    0  0.00000000000E+00  0.00000000000E+00  0.45593999997E+02  0.45594000000E+02  0.51100000000E-03 0. -1.
         11   -1    0    0    0    0 -0.00000000000E+00 -0.00000000000E+00 -0.45593999997E+02  0.45594000000E+02  0.51100000000E-03 0.  1.
    9900012    2    1    2    0    0 -0.30329167504E+02 -0.81838750329E+01 -0.29946441024E+02  0.47787267955E+02  0.19999985914E+02 0.  0.
         12    1    1    2    0    0  0.30329167504E+02  0.81838750329E+01  0.29946441024E+02  0.43400732045E+02  0.00000000000E+00 0. -1.
         11    1    3    3    0    0 -0.26614565124E+01  0.60574020510E-02  0.17892269168E+01  0.32069799938E+01  0.51100000000E-03 0. -1.
        -11    1    3    3    0    0 -0.22202727967E+02 -0.79274744468E+01 -0.31167405801E+02  0.39079574779E+02  0.51100000000E-03 0.  1.
         12    1    3    3    0    0 -0.54649830247E+01 -0.26245798814E+00 -0.56826213973E+00  0.55007131824E+01  0.00000000000E+00 0. -1.
</event>
<event>
 7    1  0.4477737E-009  0.4778727E+02  0.7816164E-02  0.1312668E+00
        -11   -1    0    0    0    0  0.00000000000E+00  0.00000000000E+00  0.45593999997E+02  0.45594000000E+02  0.51100000000E-03 0.  1.
         11   -1    0    0    0    0 -0.00000000000E+00 -0.00000000000E+00 -0.45593999997E+02  0.45594000000E+02  0.51100000000E-03 0. -1.
    9900012    2    1    2    0    0  0.16485758256E+02  0.11604845613E+02  0.38433976761E+02  0.47787271474E+02  0.20000001958E+02 0.  0.
         12    1    1    2    0    0 -0.16485758256E+02 -0.11604845613E+02 -0.38433976761E+02  0.43400728526E+02  0.00000000000E+00 0. -1.
         11    1    3    3    0    0  0.14089335160E+02  0.15171103189E+02  0.22267436458E+02  0.30405763662E+02  0.51100000000E-03 0. -1.
        -11    1    3    3    0    0 -0.11190538108E+00 -0.12283814089E+01  0.11628305145E+02  0.11693542000E+02  0.51100000000E-03 0.  1.
         12    1    3    3    0    0  0.25083284769E+01 -0.23378761676E+01  0.45382351577E+01  0.56879658113E+01  0.00000000000E+00 0. -1.
</event>
<event>
 7    1  0.4477737E-009  0.4778727E+02  0.7816164E-02  0.1312668E+00
        -11   -1    0    0    0    0  0.00000000000E+00  0.00000000000E+00  0.45593999997E+02  0.45594000000E+02  0.51100000000E-03 0. -1.
         11   -1    0    0    0    0 -0.00000000000E+00 -0.00000000000E+00 -0.45593999997E+02  0.45594000000E+02  0.51100000000E-03 0.  1.
    9900012    2    1    2    0    0 -0.17548600095E+02  0.39320843881E+02  0.54351974349E+01  0.47787268440E+02  0.19999988125E+02 0.  0.
         12    1    1    2    0    0  0.17548600095E+02 -0.39320843881E+02 -0.54351974349E+01  0.43400731560E+02  0.00000000000E+00 0. -1.
         11    1    3    3    0    0  0.18122862105E+00  0.67511989586E+01  0.45177794651E+01  0.81253838523E+01  0.51100000000E-03 0. -1.
        -11    1    3    3    0    0 -0.18744309965E+02  0.29970470833E+02 -0.22744116552E+01  0.35422467823E+02  0.51100000000E-03 0.  1.
         12    1    3    3    0    0  0.10144812489E+01  0.25991740894E+01  0.31918296251E+01  0.42394167649E+01  0.00000000000E+00 0. -1.
</event>
<event>
 7    1  0.4477737E-009  0.4778726E+02  0.7816164E-02  0.1312668E+00
        -11   -1    0    0    0    0  0.00000000000E+00  0.00000000000E+00  0.45593999997E+02  0.45594000000E+02  0.51100000000E-03 0.  1.
         11   -1    0    0    0    0 -0.00000000000E+00 -0.00000000000E+00 -0.45593999997E+02  0.45594000000E+02  0.51100000000E-03 0. -1.
    9900012    2    1    2    0    0 -0.38087874320E+02 -0.79018871072E+01  0.19248339894E+02  0.47787256012E+02  0.19999931459E+02 0.  0.
         12    1    1    2    0    0  0.38087874320E+02  0.79018871072E+01 -0.19248339894E+02  0.43400743988E+02  0.00000000000E+00 0. -1.
         11    1    3    3    0    0 -0.14588685835E+02  0.23092293456E+00  0.46157042073E+01  0.15303195921E+02  0.51100000000E-03 0. -1.
        -11    1    3    3    0    0 -0.86130969957E+00 -0.62223788875E+01  0.30263993376E+01  0.69727287793E+01  0.51100000000E-03 0.  1.
        -12    1    3    3    0    0 -0.22637878785E+02 -0.19104311543E+01  0.11606236349E+02  0.25511331311E+02  0.00000000000E+00 0.  1.
</event>
<event>
 7    1  0.4477737E-009  0.4778728E+02  0.7816164E-02  0.1312668E+00
        -11   -1    0    0    0    0  0.00000000000E+00  0.00000000000E+00  0.45593999997E+02  0.45594000000E+02  0.51100000000E-03 0. -1.
         11   -1    0    0    0    0 -0.00000000000E+00 -0.00000000000E+00 -0.45593999997E+02  0.45594000000E+02  0.51100000000E-03 0.  1.
    9900012    2    1    2    0    0 -0.40562717053E+02 -0.14360998497E+02 -0.56612992075E+01  0.47787278793E+02  0.20000035330E+02 0.  0.
         12    1    1    2    0    0  0.40562717053E+02  0.14360998497E+02  0.56612992075E+01  0.43400721207E+02  0.00000000000E+00 0. -1.
         11    1    3    3    0    0 -0.87351040085E+01  0.31632274513E+01 -0.96786325551E+00  0.93404930004E+01  0.51100000000E-03 0.  1.
        -11    1    3    3    0    0 -0.74110913007E+01 -0.10218534384E+02 -0.24834590982E+01  0.12865080201E+02  0.51100000000E-03 0. -1.
         12    1    3    3    0    0 -0.24416521744E+02 -0.73056915643E+01 -0.22099768538E+01  0.25581705592E+02  0.00000000000E+00 0. -1.
</event>
<event>
 7    1  0.4477737E-009  0.4778726E+02  0.7816164E-02  0.1312668E+00
        -11   -1    0    0    0    0  0.00000000000E+00  0.00000000000E+00  0.45593999997E+02  0.45594000000E+02  0.51100000000E-03 0.  1.
         11   -1    0    0    0    0 -0.00000000000E+00 -0.00000000000E+00 -0.45593999997E+02  0.45594000000E+02  0.51100000000E-03 0. -1.
    9900012    2    1    2    0    0 -0.40237884007E+02 -0.14467568523E+02  0.74314257971E+01  0.47787263396E+02  0.19999965130E+02 0.  0.
         12    1    1    2    0    0  0.40237884007E+02  0.14467568523E+02 -0.74314257971E+01  0.43400736604E+02  0.00000000000E+00 0. -1.
         11    1    3    3    0    0 -0.65940083768E+01 -0.82138401459E+01  0.62130610035E+01  0.12229073706E+02  0.51100000000E-03 0. -1.
        -11    1    3    3    0    0 -0.92082014375E+01  0.25008703186E+01  0.10661101849E+01  0.96011414557E+01  0.51100000000E-03 0.  1.
         12    1    3    3    0    0 -0.24435674193E+02 -0.87545986961E+01  0.15225460875E+00  0.25957048235E+02  0.00000000000E+00 0. -1.
</event>
<event>
 7    1  0.4477737E-009  0.4778727E+02  0.7816164E-02  0.1312668E+00
        -11   -1    0    0    0    0  0.00000000000E+00  0.00000000000E+00  0.45593999997E+02  0.45594000000E+02  0.51100000000E-03 0. -1.
         11   -1    0    0    0    0 -0.00000000000E+00 -0.00000000000E+00 -0.45593999997E+02  0.45594000000E+02  0.51100000000E-03 0.  1.
    9900012    2    1    2    0    0 -0.66109315746E+01 -0.41215234850E+02 -0.11883748686E+02  0.47787268637E+02  0.19999989022E+02 0.  0.
         12    1    1    2    0    0  0.66109315746E+01  0.41215234850E+02  0.11883748686E+02  0.43400731363E+02  0.00000000000E+00 0. -1.
         11    1    3    3    0    0  0.24515149576E+01 -0.26066670674E+02 -0.43467458357E+01  0.26540072442E+02  0.51100000000E-03 0. -1.
        -11    1    3    3    0    0 -0.75376386108E+01 -0.15050818221E+02 -0.38661972097E+01  0.17271091629E+02  0.51100000000E-03 0.  1.
         12    1    3    3    0    0 -0.15248079214E+01 -0.97745956052E-01 -0.36708056401E+01  0.39761045656E+01  0.00000000000E+00 0. -1.
</event>
<event>
 7    1  0.4477737E-009  0.4778727E+02  0.7816164E-02  0.1312668E+00
        -11   -1    0    0    0    0  0.00000000000E+00  0.00000000000E+00  0.45593999997E+02  0.45594000000E+02  0.51100000000E-03 0.  1.
         11   -1    0    0    0    0 -0.00000000000E+00 -0.00000000000E+00 -0.45593999997E+02  0.45594000000E+02  0.51100000000E-03 0. -1.
    9900012    2    1    2    0    0  0.22139281325E+02  0.16886452976E+02  0.33291487069E+02  0.47787272092E+02  0.20000004775E+02 0.  0.
         12    1    1    2    0    0 -0.22139281325E+02 -0.16886452976E+02 -0.33291487069E+02  0.43400727908E+02  0.00000000000E+00 0. -1.
         11    1    3    3    0    0 -0.16199329424E+01  0.23561173600E+00  0.37242567256E+01  0.40681425795E+01  0.51100000000E-03 0. -1.
        -11    1    3    3    0    0  0.16539164603E+02  0.13150281884E+02  0.11746949051E+02  0.24175704574E+02  0.51100000000E-03 0.  1.
        -12    1    3    3    0    0  0.72200496650E+01  0.35005593563E+01  0.17820281293E+02  0.19543424939E+02  0.00000000000E+00 0.  1.
</event>
<event>
 7    1  0.4477737E-009  0.4778732E+02  0.7816164E-02  0.1312668E+00
        -11   -1    0    0    0    0  0.00000000000E+00  0.00000000000E+00  0.45593999997E+02  0.45594000000E+02  0.51100000000E-03 0.  1.
         11   -1    0    0    0    0 -0.00000000000E+00 -0.00000000000E+00 -0.45593999997E+02  0.45594000000E+02  0.51100000000E-03 0. -1.
    9900012    2    1    2    0    0  0.13559877570E+01 -0.31955018978E+02  0.29336965040E+02  0.47787315000E+02  0.20000200411E+02 0.  0.
         12    1    1    2    0    0 -0.13559877570E+01  0.31955018978E+02 -0.29336965040E+02  0.43400685000E+02  0.00000000000E+00 0. -1.
         11    1    3    3    0    0  0.85866656177E+01 -0.95323119325E+01  0.14208842340E+02  0.19143850138E+02  0.51100000000E-03 0. -1.
        -11    1    3    3    0    0 -0.71045396589E+01 -0.17539358099E+02  0.94460725120E+01  0.21150221097E+02  0.51100000000E-03 0.  1.
         12    1    3    3    0    0 -0.12613820180E+00 -0.48833489469E+01  0.56820501882E+01  0.74932437652E+01  0.00000000000E+00 0. -1.
</event>
<event>
 7    1  0.4477737E-009  0.4778728E+02  0.7816164E-02  0.1312668E+00
        -11   -1    0    0    0    0  0.00000000000E+00  0.00000000000E+00  0.45593999997E+02  0.45594000000E+02  0.51100000000E-03 0.  1.
         11   -1    0    0    0    0 -0.00000000000E+00 -0.00000000000E+00 -0.45593999997E+02  0.45594000000E+02  0.51100000000E-03 0. -1.
    9900012    2    1    2    0    0  0.22442910206E+01  0.16235020000E+02  0.40187188351E+02  0.47787276225E+02  0.20000023622E+02 0.  0.
         12    1    1    2    0    0 -0.22442910206E+01 -0.16235020000E+02 -0.40187188351E+02  0.43400723775E+02  0.00000000000E+00 0. -1.
         11    1    3    3    0    0 -0.50888910450E+01  0.36002954948E+01  0.20588408433E+02  0.21511427237E+02  0.51100000000E-03 0. -1.
        -11    1    3    3    0    0  0.84047980118E+01  0.80227381074E+01  0.90992799210E+01  0.14758111387E+02  0.51100000000E-03 0.  1.
        -12    1    3    3    0    0 -0.10716159463E+01  0.46119863975E+01  0.10499499997E+02  0.11517737602E+02  0.00000000000E+00 0.  1.
</event>
<event>
 7    1  0.4477737E-009  0.4778727E+02  0.7816164E-02  0.1312668E+00
        -11   -1    0    0    0    0  0.00000000000E+00  0.00000000000E+00  0.45593999997E+02  0.45594000000E+02  0.51100000000E-03 0.  1.
         11   -1    0    0    0    0 -0.00000000000E+00 -0.00000000000E+00 -0.45593999997E+02  0.45594000000E+02  0.51100000000E-03 0. -1.
    9900012    2    1    2    0    0 -0.10448915564E+02 -0.15358861709E+02  0.39224339136E+02  0.47787271318E+02  0.20000001248E+02 0.  0.
         12    1    1    2    0    0  0.10448915564E+02  0.15358861709E+02 -0.39224339136E+02  0.43400728682E+02  0.00000000000E+00 0. -1.
         11    1    3    3    0    0 -0.37709592452E+01 -0.13096220734E+02  0.13465122685E+02  0.19158305257E+02  0.51100000000E-03 0. -1.
        -11    1    3    3    0    0 -0.12119037186E+01  0.30859834480E+01  0.15399038049E+02  0.15751900760E+02  0.51100000000E-03 0.  1.
        -12    1    3    3    0    0 -0.54660525999E+01 -0.53486244230E+01  0.10360178402E+02  0.12877065301E+02  0.00000000000E+00 0.  1.
</event>
<event>
 7    1  0.4477737E-009  0.4778727E+02  0.7816164E-02  0.1312668E+00
        -11   -1    0    0    0    0  0.00000000000E+00  0.00000000000E+00  0.45593999997E+02  0.45594000000E+02  0.51100000000E-03 0.  1.
         11   -1    0    0    0    0 -0.00000000000E+00 -0.00000000000E+00 -0.45593999997E+02  0.45594000000E+02  0.51100000000E-03 0. -1.
    9900012    2    1    2    0    0  0.23785472372E+02 -0.26658562938E+02  0.24641335461E+02  0.47787273195E+02  0.20000009806E+02 0.  0.
         12    1    1    2    0    0 -0.23785472372E+02  0.26658562938E+02 -0.24641335461E+02  0.43400726805E+02  0.00000000000E+00 0. -1.
         11    1    3    3    0    0  0.35757637100E+01 -0.90764796366E+01  0.42142001252E+01  0.10626761109E+02  0.51100000000E-03 0. -1.
        -11    1    3    3    0    0  0.21493043982E+02 -0.16420939372E+02  0.13905551461E+02  0.30413196990E+02  0.51100000000E-03 0.  1.
        -12    1    3    3    0    0 -0.12833353201E+01 -0.11611439297E+01  0.65215838750E+01  0.67473150962E+01  0.00000000000E+00 0.  1.
</event>
<event>
 7    1  0.4477737E-009  0.4778728E+02  0.7816164E-02  0.1312668E+00
        -11   -1    0    0    0    0  0.00000000000E+00  0.00000000000E+00  0.45593999997E+02  0.45594000000E+02  0.51100000000E-03 0.  1.
         11   -1    0    0    0    0 -0.00000000000E+00 -0.00000000000E+00 -0.45593999997E+02  0.45594000000E+02  0.51100000000E-03 0. -1.
    9900012    2    1    2    0    0  0.38783126461E+02  0.18450146678E+02 -0.62516794923E+01  0.47787282183E+02  0.20000050784E+02 0.  0.
         12    1    1    2    0    0 -0.38783126461E+02 -0.18450146678E+02  0.62516794923E+01  0.43400717817E+02  0.00000000000E+00 0. -1.
         11    1    3    3    0    0  0.19746168791E+01  0.61183045064E+01  0.12125092097E+01  0.65423956390E+01  0.51100000000E-03 0. -1.
        -11    1    3    3    0    0  0.33549509006E+02  0.12745963720E+02 -0.34452918891E+01  0.36054114635E+02  0.51100000000E-03 0.  1.
         12    1    3    3    0    0  0.32590005767E+01 -0.41412154785E+00 -0.40188968128E+01  0.51907719087E+01  0.00000000000E+00 0. -1.
</event>
<event>
 7    1  0.4477737E-009  0.4778727E+02  0.7816164E-02  0.1312668E+00
        -11   -1    0    0    0    0  0.00000000000E+00  0.00000000000E+00  0.45593999997E+02  0.45594000000E+02  0.51100000000E-03 0. -1.
         11   -1    0    0    0    0 -0.00000000000E+00 -0.00000000000E+00 -0.45593999997E+02  0.45594000000E+02  0.51100000000E-03 0.  1.
    9900012    2    1    2    0    0 -0.18278115441E+02 -0.24676098199E+02 -0.30669587659E+02  0.47787274964E+02  0.20000017872E+02 0.  0.
         12    1    1    2    0    0  0.18278115441E+02  0.24676098199E+02  0.30669587659E+02  0.43400725036E+02  0.00000000000E+00 0. -1.
         11    1    3    3    0    0 -0.22431449920E+01 -0.49551649212E+00 -0.10487908834E+02  0.10736548236E+02  0.51100000000E-03 0. -1.
        -11    1    3    3    0    0 -0.44099692724E+01 -0.15847289747E+02 -0.81390770363E+01  0.18352901584E+02  0.51100000000E-03 0.  1.
         12    1    3    3    0    0 -0.11625001177E+02 -0.83332919605E+01 -0.12042601789E+02  0.18697825144E+02  0.00000000000E+00 0. -1.
</event>
<event>
 7    1  0.4477737E-009  0.4778727E+02  0.7816164E-02  0.1312668E+00
        -11   -1    0    0    0    0  0.00000000000E+00  0.00000000000E+00  0.45593999997E+02  0.45594000000E+02  0.51100000000E-03 0. -1.
         11   -1    0    0    0    0 -0.00000000000E+00 -0.00000000000E+00 -0.45593999997E+02  0.45594000000E+02  0.51100000000E-03 0.  1.
    9900012    2    1    2    0    0  0.16148222631E+02 -0.20324954614E+02 -0.34781528152E+02  0.47787267578E+02  0.19999984196E+02 0.  0.
         12    1    1    2    0    0 -0.16148222631E+02  0.20324954614E+02  0.34781528152E+02  0.43400732422E+02  0.00000000000E+00 0. -1.
         11    1    3    3    0    0  0.93791291908E+01  0.86776672838E-01 -0.17922950573E+02  0.20228884103E+02  0.51100000000E-03 0. -1.
        -11    1    3    3    0    0  0.52578831882E+01 -0.10187329877E+02 -0.89721672640E+01  0.14557706252E+02  0.51100000000E-03 0.  1.
         12    1    3    3    0    0  0.15112102517E+01 -0.10224401409E+02 -0.78864103150E+01  0.13000677223E+02  0.00000000000E+00 0. -1.
</event>
<event>
 7    1  0.4477737E-009  0.4778728E+02  0.7816164E-02  0.1312668E+00
        -11   -1    0    0    0    0  0.00000000000E+00  0.00000000000E+00  0.45593999997E+02  0.45594000000E+02  0.51100000000E-03 0.  1.
         11   -1    0    0    0    0 -0.00000000000E+00 -0.00000000000E+00 -0.45593999997E+02  0.45594000000E+02  0.51100000000E-03 0. -1.
    9900012    2    1    2    0    0 -0.36661094680E+02  0.18827177216E+02 -0.13606032302E+02  0.47787279037E+02  0.20000036442E+02 0.  0.
         12    1    1    2    0    0  0.36661094680E+02 -0.18827177216E+02  0.13606032302E+02  0.43400720963E+02  0.00000000000E+00 0. -1.
         11    1    3    3    0    0 -0.52987287716E+01  0.19048171504E+00  0.42825296874E+01  0.68156342818E+01  0.51100000000E-03 0. -1.
        -11    1    3    3    0    0 -0.16249774828E+02  0.11039981036E+02 -0.69984309793E+01  0.20854601403E+02  0.51100000000E-03 0.  1.
         12    1    3    3    0    0 -0.15112591081E+02  0.75967144647E+01 -0.10890131010E+02  0.20117043353E+02  0.00000000000E+00 0. -1.
</event>
<event>
 7    1  0.4477737E-009  0.4778727E+02  0.7816164E-02  0.1312668E+00
        -11   -1    0    0    0    0  0.00000000000E+00  0.00000000000E+00  0.45593999997E+02  0.45594000000E+02  0.51100000000E-03 0.  1.
         11   -1    0    0    0    0 -0.00000000000E+00 -0.00000000000E+00 -0.45593999997E+02  0.45594000000E+02  0.51100000000E-03 0. -1.
    9900012    2    1    2    0    0 -0.35670525031E+02 -0.27817861391E+01  0.24566207037E+02  0.47787271685E+02  0.20000002919E+02 0.  0.
         12    1    1    2    0    0  0.35670525031E+02  0.27817861391E+01 -0.24566207037E+02  0.43400728315E+02  0.00000000000E+00 0. -1.
         11    1    3    3    0    0 -0.73325551754E+00  0.86729324827E+00  0.34390783577E+01  0.36217566792E+01  0.51100000000E-03 0. -1.
        -11    1    3    3    0    0 -0.16994893078E+02 -0.35148270459E+01  0.19567949957E+02  0.26155019895E+02  0.51100000000E-03 0.  1.
         12    1    3    3    0    0 -0.17942376436E+02 -0.13425234146E+00  0.15591787218E+01  0.18010495111E+02  0.00000000000E+00 0. -1.
</event>
<event>
 7    1  0.4477737E-009  0.4778726E+02  0.7816164E-02  0.1312668E+00
        -11   -1    0    0    0    0  0.00000000000E+00  0.00000000000E+00  0.45593999997E+02  0.45594000000E+02  0.51100000000E-03 0.  1.
         11   -1    0    0    0    0 -0.00000000000E+00 -0.00000000000E+00 -0.45593999997E+02  0.45594000000E+02  0.51100000000E-03 0. -1.
    9900012    2    1    2    0    0  0.32145832985E+02 -0.20697723039E+02  0.20539561530E+02  0.47787263772E+02  0.19999966841E+02 0.  0.
         12    1    1    2    0    0 -0.32145832985E+02  0.20697723039E+02 -0.20539561530E+02  0.43400736228E+02  0.00000000000E+00 0. -1.
         11    1    3    3    0    0  0.75852450434E+01 -0.18080204712E+01  0.91599860728E+01  0.12029556330E+02  0.51100000000E-03 0. -1.
        -11    1    3    3    0    0  0.26005327066E+02 -0.16123310366E+02  0.92005202388E+01  0.31951334024E+02  0.51100000000E-03 0.  1.
        -12    1    3    3    0    0 -0.14447391243E+01 -0.27663922011E+01  0.21790552187E+01  0.38063734175E+01  0.00000000000E+00 0.  1.
</event>
<event>
 7    1  0.4477737E-009  0.4778727E+02  0.7816164E-02  0.1312668E+00
        -11   -1    0    0    0    0  0.00000000000E+00  0.00000000000E+00  0.45593999997E+02  0.45594000000E+02  0.51100000000E-03 0.  1.
         11   -1    0    0    0    0 -0.00000000000E+00 -0.00000000000E+00 -0.45593999997E+02  0.45594000000E+02  0.51100000000E-03 0. -1.
    9900012    2    1    2    0    0 -0.18469145108E+01 -0.89682781262E+01  0.42423841075E+02  0.47787269622E+02  0.19999993516E+02 0.  0.
         12    1    1    2    0    0  0.18469145108E+01  0.89682781262E+01 -0.42423841075E+02  0.43400730378E+02  0.00000000000E+00 0. -1.
         11    1    3    3    0    0 -0.49894026838E+00 -0.18969353316E+01  0.35985990118E+02  0.36039406073E+02  0.51100000000E-03 0. -1.
        -11    1    3    3    0    0 -0.37591369466E+01 -0.26651782806E+01  0.19195099448E+01  0.49918738506E+01  0.51100000000E-03 0.  1.
         12    1    3    3    0    0  0.24111627042E+01 -0.44061645140E+01  0.45183410122E+01  0.67559896989E+01  0.00000000000E+00 0. -1.
</event>
<event>
 7    1  0.4477737E-009  0.4778727E+02  0.7816164E-02  0.1312668E+00
        -11   -1    0    0    0    0  0.00000000000E+00  0.00000000000E+00  0.45593999997E+02  0.45594000000E+02  0.51100000000E-03 0.  1.
         11   -1    0    0    0    0 -0.00000000000E+00 -0.00000000000E+00 -0.45593999997E+02  0.45594000000E+02  0.51100000000E-03 0. -1.
    9900012    2    1    2    0    0  0.23522160687E+02  0.34660850403E+02  0.11355903334E+02  0.47787272650E+02  0.20000007318E+02 0.  0.
         12    1    1    2    0    0 -0.23522160687E+02 -0.34660850403E+02 -0.11355903334E+02  0.43400727350E+02  0.00000000000E+00 0. -1.
         11    1    3    3    0    0  0.48107337625E+01 -0.16196642340E+01  0.25295694118E+01  0.56714366112E+01  0.51100000000E-03 0. -1.
        -11    1    3    3    0    0  0.72514797069E+01  0.16893667032E+02  0.15526266167E+01  0.18449677325E+02  0.51100000000E-03 0.  1.
         12    1    3    3    0    0  0.11459947217E+02  0.19386847605E+02  0.72737073051E+01  0.23666158713E+02  0.00000000000E+00 0. -1.
</event>
<event>
 7    1  0.4477737E-009  0.4778727E+02  0.7816164E-02  0.1312668E+00
        -11   -1    0    0    0    0  0.00000000000E+00  0.00000000000E+00  0.45593999997E+02  0.45594000000E+02  0.51100000000E-03 0. -1.
         11   -1    0    0    0    0 -0.00000000000E+00 -0.00000000000E+00 -0.45593999997E+02  0.45594000000E+02  0.51100000000E-03 0.  1.
    9900012    2    1    2    0    0 -0.40207670645E+02  0.74312339088E+01 -0.14551402006E+02  0.47787270554E+02  0.19999997763E+02 0.  0.
         12    1    1    2    0    0  0.40207670645E+02 -0.74312339088E+01  0.14551402006E+02  0.43400729446E+02  0.00000000000E+00 0. -1.
         11    1    3    3    0    0 -0.12564881224E+02  0.56826563771E+01 -0.22640708003E+01  0.13974793040E+02  0.51100000000E-03 0. -1.
        -11    1    3    3    0    0 -0.29510783291E+02  0.16280752392E+01 -0.12080437866E+02  0.31929201975E+02  0.51100000000E-03 0.  1.
        -12    1    3    3    0    0  0.18679938700E+01  0.12050229245E+00 -0.20689334049E+00  0.18832755389E+01  0.00000000000E+00 0.  1.
</event>
<event>
 7    1  0.4477737E-009  0.4778727E+02  0.7816164E-02  0.1312668E+00
        -11   -1    0    0    0    0  0.00000000000E+00  0.00000000000E+00  0.45593999997E+02  0.45594000000E+02  0.51100000000E-03 0.  1.
         11   -1    0    0    0    0 -0.00000000000E+00 -0.00000000000E+00 -0.45593999997E+02  0.45594000000E+02  0.51100000000E-03 0. -1.
    9900012    2    1    2    0    0 -0.27615857017E+02  0.12621324430E+01  0.33457363665E+02  0.47787265899E+02  0.19999976539E+02 0.  0.
         12    1    1    2    0    0  0.27615857017E+02 -0.12621324430E+01 -0.33457363665E+02  0.43400734101E+02  0.00000000000E+00 0. -1.
         11    1    3    3    0    0  0.11396226807E+01 -0.28044781269E+01  0.20196723676E+01  0.36390814984E+01  0.51100000000E-03 0. -1.
        -11    1    3    3    0    0 -0.24062424257E+02  0.36113529132E+01  0.19077346047E+02  0.30919043701E+02  0.51100000000E-03 0.  1.
        -12    1    3    3    0    0 -0.46930554414E+01  0.45525765667E+00  0.12360345251E+02  0.13229140699E+02  0.00000000000E+00 0.  1.
</event>
<event>
 7    1  0.4477737E-009  0.4778727E+02  0.7816164E-02  0.1312668E+00
        -11   -1    0    0    0    0  0.00000000000E+00  0.00000000000E+00  0.45593999997E+02  0.45594000000E+02  0.51100000000E-03 0. -1.
         11   -1    0    0    0    0 -0.00000000000E+00 -0.00000000000E+00 -0.45593999997E+02  0.45594000000E+02  0.51100000000E-03 0.  1.
    9900012    2    1    2    0    0 -0.23649107545E+02  0.31434360851E+02 -0.18336412622E+02  0.47787270080E+02  0.19999995602E+02 0.  0.
         12    1    1    2    0    0  0.23649107545E+02 -0.31434360851E+02  0.18336412622E+02  0.43400729920E+02  0.00000000000E+00 0. -1.
         11    1    3    3    0    0 -0.13795376624E+02  0.82515116918E+01 -0.91750967395E+01  0.18508977871E+02  0.51100000000E-03 0. -1.
        -11    1    3    3    0    0  0.19300652016E+01  0.80163142597E+01 -0.65120638511E+00  0.82710649865E+01  0.51100000000E-03 0.  1.
        -12    1    3    3    0    0 -0.11783796122E+02  0.15166534899E+02 -0.85101094976E+01  0.21007227222E+02  0.00000000000E+00 0.  1.
</event>
<event>
 7    1  0.4477737E-009  0.4778727E+02  0.7816164E-02  0.1312668E+00
        -11   -1    0    0    0    0  0.00000000000E+00  0.00000000000E+00  0.45593999997E+02  0.45594000000E+02  0.51100000000E-03 0.  1.
         11   -1    0    0    0    0 -0.00000000000E+00 -0.00000000000E+00 -0.45593999997E+02  0.45594000000E+02  0.51100000000E-03 0. -1.
    9900012    2    1    2    0    0  0.11832967121E+02 -0.10655115208E+02  0.40374158237E+02  0.47787271385E+02  0.20000001553E+02 0.  0.
         12    1    1    2    0    0 -0.11832967121E+02  0.10655115208E+02 -0.40374158237E+02  0.43400728615E+02  0.00000000000E+00 0. -1.
         11    1    3    3    0    0 -0.17641672417E+01 -0.25892134366E+01  0.17966160223E+02  0.18237303136E+02  0.51100000000E-03 0. -1.
        -11    1    3    3    0    0  0.14723932047E+02 -0.43437643258E+01  0.17279579131E+02  0.23113769027E+02  0.51100000000E-03 0.  1.
        -12    1    3    3    0    0 -0.11267976838E+01 -0.37221374451E+01  0.51284188831E+01  0.64361992217E+01  0.00000000000E+00 0.  1.
</event>
<event>
 7    1  0.4477737E-009  0.4778728E+02  0.7816164E-02  0.1312668E+00
        -11   -1    0    0    0    0  0.00000000000E+00  0.00000000000E+00  0.45593999997E+02  0.45594000000E+02  0.51100000000E-03 0.  1.
         11   -1    0    0    0    0 -0.00000000000E+00 -0.00000000000E+00 -0.45593999997E+02  0.45594000000E+02  0.51100000000E-03 0. -1.
    9900012    2    1    2    0    0  0.31887940401E+02  0.21150581771E+02  0.20480113352E+02  0.47787275407E+02  0.20000019891E+02 0.  0.
         12    1    1    2    0    0 -0.31887940401E+02 -0.21150581771E+02 -0.20480113352E+02  0.43400724593E+02  0.00000000000E+00 0. -1.
         11    1    3    3    0    0  0.18167438401E+02  0.15069415561E+02  0.57893610448E+01  0.24303493678E+02  0.51100000000E-03 0.  1.
        -11    1    3    3    0    0  0.67684099663E+01 -0.24092894017E+01  0.73700989447E+01  0.10292444200E+02  0.51100000000E-03 0. -1.
         12    1    3    3    0    0  0.69520920337E+01  0.84904556121E+01  0.73206533627E+01  0.13191337529E+02  0.00000000000E+00 0. -1.
</event>
<event>
 7    1  0.4477737E-009  0.4778727E+02  0.7816164E-02  0.1312668E+00
        -11   -1    0    0    0    0  0.00000000000E+00  0.00000000000E+00  0.45593999997E+02  0.45594000000E+02  0.51100000000E-03 0.  1.
         11   -1    0    0    0    0 -0.00000000000E+00 -0.00000000000E+00 -0.45593999997E+02  0.45594000000E+02  0.51100000000E-03 0. -1.
    9900012    2    1    2    0    0 -0.24887256837E+02 -0.26144016147E+02  0.24098507564E+02  0.47787271895E+02  0.20000003879E+02 0.  0.
         12    1    1    2    0    0  0.24887256837E+02  0.26144016147E+02 -0.24098507564E+02  0.43400728105E+02  0.00000000000E+00 0. -1.
         11    1    3    3    0    0  0.20129181978E+01 -0.15663413530E+01 -0.31348776459E+00  0.25697353453E+01  0.51100000000E-03 0. -1.
        -11    1    3    3    0    0 -0.14770376135E+02 -0.86066593087E+01  0.16182783233E+02  0.23539776317E+02  0.51100000000E-03 0.  1.
        -12    1    3    3    0    0 -0.12129798900E+02 -0.15971015486E+02  0.82292120954E+01  0.21677760233E+02  0.00000000000E+00 0.  1.
</event>
<event>
 7    1  0.4477737E-009  0.4778727E+02  0.7816164E-02  0.1312668E+00
        -11   -1    0    0    0    0  0.00000000000E+00  0.00000000000E+00  0.45593999997E+02  0.45594000000E+02  0.51100000000E-03 0.  1.
         11   -1    0    0    0    0 -0.00000000000E+00 -0.00000000000E+00 -0.45593999997E+02  0.45594000000E+02  0.51100000000E-03 0. -1.
    9900012    2    1    2    0    0 -0.38277965278E+02 -0.60343762307E+01  0.19545000246E+02  0.47787270088E+02  0.19999995638E+02 0.  0.
         12    1    1    2    0    0  0.38277965278E+02  0.60343762307E+01 -0.19545000246E+02  0.43400729912E+02  0.00000000000E+00 0. -1.
         11    1    3    3    0    0 -0.37520145356E+01 -0.46333218919E+01 -0.16113020665E+01  0.61758869355E+01  0.51100000000E-03 0. -1.
        -11    1    3    3    0    0 -0.20907426425E+02 -0.32521977151E+01  0.17315934267E+02  0.27341156697E+02  0.51100000000E-03 0.  1.
        -12    1    3    3    0    0 -0.13618524317E+02  0.18511433762E+01  0.38403680454E+01  0.14270226456E+02  0.00000000000E+00 0.  1.
</event>
<event>
 7    1  0.4477737E-009  0.4778727E+02  0.7816164E-02  0.1312668E+00
        -11   -1    0    0    0    0  0.00000000000E+00  0.00000000000E+00  0.45593999997E+02  0.45594000000E+02  0.51100000000E-03 0.  1.
         11   -1    0    0    0    0 -0.00000000000E+00 -0.00000000000E+00 -0.45593999997E+02  0.45594000000E+02  0.51100000000E-03 0. -1.
    9900012    2    1    2    0    0 -0.21734882325E+02 -0.17054364707E+02  0.33471880619E+02  0.47787271234E+02  0.20000000862E+02 0.  0.
         12    1    1    2    0    0  0.21734882325E+02  0.17054364707E+02 -0.33471880619E+02  0.43400728766E+02  0.00000000000E+00 0. -1.
         11    1    3    3    0    0 -0.19202615204E+02 -0.69642082374E+01  0.20398281438E+02  0.28867464609E+02  0.51100000000E-03 0.  1.
        -11    1    3    3    0    0  0.27370034802E+01 -0.45879675220E+01  0.84836021986E+01  0.10025574326E+02  0.51100000000E-03 0. -1.
         12    1    3    3    0    0 -0.52692706013E+01 -0.55021889481E+01  0.45899969830E+01  0.88942322993E+01  0.00000000000E+00 0. -1.
</event>
<event>
 7    1  0.4477737E-009  0.4778727E+02  0.7816164E-02  0.1312668E+00
        -11   -1    0    0    0    0  0.00000000000E+00  0.00000000000E+00  0.45593999997E+02  0.45594000000E+02  0.51100000000E-03 0. -1.
         11   -1    0    0    0    0 -0.00000000000E+00 -0.00000000000E+00 -0.45593999997E+02  0.45594000000E+02  0.51100000000E-03 0.  1.
    9900012    2    1    2    0    0  0.40511253841E+02 -0.50073561194E+01  0.14744073914E+02  0.47787273984E+02  0.20000013404E+02 0.  0.
         12    1    1    2    0    0 -0.40511253841E+02  0.50073561194E+01 -0.14744073914E+02  0.43400726016E+02  0.00000000000E+00 0. -1.
         11    1    3    3    0    0  0.23816183000E+01 -0.65579550398E+01  0.35125563275E+01  0.78113335767E+01  0.51100000000E-03 0. -1.
        -11    1    3    3    0    0  0.27684611792E+02  0.12662744572E+01  0.62944414316E+01  0.28419380259E+02  0.51100000000E-03 0.  1.
        -12    1    3    3    0    0  0.10445023749E+02  0.28432446330E+00  0.49370761551E+01  0.11556560149E+02  0.00000000000E+00 0.  1.
</event>
<event>
 7    1  0.4477737E-009  0.4778727E+02  0.7816164E-02  0.1312668E+00
        -11   -1    0    0    0    0  0.00000000000E+00  0.00000000000E+00  0.45593999997E+02  0.45594000000E+02  0.51100000000E-03 0. -1.
         11   -1    0    0    0    0 -0.00000000000E+00 -0.00000000000E+00 -0.45593999997E+02  0.45594000000E+02  0.51100000000E-03 0.  1.
    9900012    2    1    2    0    0 -0.24645265583E+02 -0.29417456529E+02 -0.20269370416E+02  0.47787271419E+02  0.20000001706E+02 0.  0.
         12    1    1    2    0    0  0.24645265583E+02  0.29417456529E+02  0.20269370416E+02  0.43400728581E+02  0.00000000000E+00 0. -1.
         11    1    3    3    0    0 -0.45135003021E+01 -0.16978592517E+02 -0.74715984278E+01  0.19091073101E+02  0.51100000000E-03 0. -1.
        -11    1    3    3    0    0 -0.14891446067E+02 -0.54885639371E+01 -0.12112562411E+02  0.19964810755E+02  0.51100000000E-03 0.  1.
        -12    1    3    3    0    0 -0.52403192137E+01 -0.69503000749E+01 -0.68520957762E+00  0.87313875620E+01  0.00000000000E+00 0.  1.
</event>
<event>
 7    1  0.4477737E-009  0.4778727E+02  0.7816164E-02  0.1312668E+00
        -11   -1    0    0    0    0  0.00000000000E+00  0.00000000000E+00  0.45593999997E+02  0.45594000000E+02  0.51100000000E-03 0. -1.
         11   -1    0    0    0    0 -0.00000000000E+00 -0.00000000000E+00 -0.45593999997E+02  0.45594000000E+02  0.51100000000E-03 0.  1.
    9900012    2    1    2    0    0  0.30882808292E+02 -0.12721852542E+02 -0.27713351306E+02  0.47787271657E+02  0.20000002795E+02 0.  0.
         12    1    1    2    0    0 -0.30882808292E+02  0.12721852542E+02  0.27713351306E+02  0.43400728343E+02  0.00000000000E+00 0. -1.
         11    1    3    3    0    0  0.39622742073E+01 -0.10909655333E+02 -0.66851593580E+01  0.13394459761E+02  0.51100000000E-03 0.  1.
        -11    1    3    3    0    0  0.18184589336E+02  0.43753891313E+00 -0.13757416680E+02  0.22806517568E+02  0.51100000000E-03 0. -1.
        -12    1    3    3    0    0  0.87359447486E+01 -0.22497361213E+01 -0.72707752670E+01  0.11586294328E+02  0.00000000000E+00 0.  1.
</event>
<event>
 7    1  0.4477737E-009  0.4778727E+02  0.7816164E-02  0.1312668E+00
        -11   -1    0    0    0    0  0.00000000000E+00  0.00000000000E+00  0.45593999997E+02  0.45594000000E+02  0.51100000000E-03 0.  1.
         11   -1    0    0    0    0 -0.00000000000E+00 -0.00000000000E+00 -0.45593999997E+02  0.45594000000E+02  0.51100000000E-03 0. -1.
    9900012    2    1    2    0    0  0.16248524353E+02 -0.39978614906E+02  0.46172567577E+01  0.47787271281E+02  0.20000001076E+02 0.  0.
         12    1    1    2    0    0 -0.16248524353E+02  0.39978614906E+02 -0.46172567577E+01  0.43400728719E+02  0.00000000000E+00 0. -1.
         11    1    3    3    0    0  0.71273626219E+00 -0.65892606816E+01  0.68712982036E+01  0.95467842006E+01  0.51100000000E-03 0. -1.
        -11    1    3    3    0    0  0.11053285266E+02 -0.24929396093E+02 -0.60641855488E+01  0.27936074373E+02  0.51100000000E-03 0.  1.
        -12    1    3    3    0    0  0.44825028251E+01 -0.84599581307E+01  0.38101441029E+01  0.10304412707E+02  0.00000000000E+00 0.  1.
</event>
<event>
 7    1  0.4477737E-009  0.4778728E+02  0.7816164E-02  0.1312668E+00
        -11   -1    0    0    0    0  0.00000000000E+00  0.00000000000E+00  0.45593999997E+02  0.45594000000E+02  0.51100000000E-03 0.  1.
         11   -1    0    0    0    0 -0.00000000000E+00 -0.00000000000E+00 -0.45593999997E+02  0.45594000000E+02  0.51100000000E-03 0. -1.
    9900012    2    1    2    0    0  0.35156078857E+02  0.25863657091E+01  0.25317656239E+02  0.47787275518E+02  0.20000020397E+02 0.  0.
         12    1    1    2    0    0 -0.35156078857E+02 -0.25863657091E+01 -0.25317656239E+02  0.43400724482E+02  0.00000000000E+00 0. -1.
         11    1    3    3    0    0  0.12494211922E+02  0.31869036538E+01 -0.97241140432E+00  0.12930865038E+02  0.51100000000E-03 0. -1.
        -11    1    3    3    0    0  0.51864627112E+01  0.10487490979E+01  0.52220733038E+01  0.74343338623E+01  0.51100000000E-03 0.  1.
         12    1    3    3    0    0  0.17475404224E+02 -0.16492870426E+01  0.21067994339E+02  0.27422076617E+02  0.00000000000E+00 0. -1.
</event>
<event>
 7    1  0.4477737E-009  0.4778727E+02  0.7816164E-02  0.1312668E+00
        -11   -1    0    0    0    0  0.00000000000E+00  0.00000000000E+00  0.45593999997E+02  0.45594000000E+02  0.51100000000E-03 0.  1.
         11   -1    0    0    0    0 -0.00000000000E+00 -0.00000000000E+00 -0.45593999997E+02  0.45594000000E+02  0.51100000000E-03 0. -1.
    9900012    2    1    2    0    0  0.36992313966E+02  0.22548693921E+02  0.25977256009E+01  0.47787273411E+02  0.20000010792E+02 0.  0.
         12    1    1    2    0    0 -0.36992313966E+02 -0.22548693921E+02 -0.25977256009E+01  0.43400726589E+02  0.00000000000E+00 0. -1.
         11    1    3    3    0    0  0.65810339092E+01  0.27166501423E+01 -0.20804573751E+01  0.74174455482E+01  0.51100000000E-03 0. -1.
        -11    1    3    3    0    0  0.20768330542E+02  0.14669054571E+02 -0.48248183618E+01  0.25880177511E+02  0.51100000000E-03 0.  1.
        -12    1    3    3    0    0  0.96429495145E+01  0.51629892083E+01  0.95030013378E+01  0.14489650352E+02  0.00000000000E+00 0.  1.
</event>
<event>
 7    1  0.4477737E-009  0.4778727E+02  0.7816164E-02  0.1312668E+00
        -11   -1    0    0    0    0  0.00000000000E+00  0.00000000000E+00  0.45593999997E+02  0.45594000000E+02  0.51100000000E-03 0. -1.
         11   -1    0    0    0    0 -0.00000000000E+00 -0.00000000000E+00 -0.45593999997E+02  0.45594000000E+02  0.51100000000E-03 0.  1.
    9900012    2    1    2    0    0  0.12772945372E+02 -0.41466665182E+02  0.99532290702E+00  0.47787272789E+02  0.20000007953E+02 0.  0.
         12    1    1    2    0    0 -0.12772945372E+02  0.41466665182E+02 -0.99532290702E+00  0.43400727211E+02  0.00000000000E+00 0. -1.
         11    1    3    3    0    0 -0.47681065169E+01 -0.13311392557E+02 -0.15136068341E+01  0.14220373324E+02  0.51100000000E-03 0. -1.
        -11    1    3    3    0    0  0.13282186569E+02 -0.20314501847E+02 -0.96674970867E-01  0.24271481447E+02  0.51100000000E-03 0.  1.
         12    1    3    3    0    0  0.42588653199E+01 -0.78407707783E+01  0.26056047120E+01  0.92954180178E+01  0.00000000000E+00 0. -1.
</event>
<event>
 7    1  0.4477737E-009  0.4778727E+02  0.7816164E-02  0.1312668E+00
        -11   -1    0    0    0    0  0.00000000000E+00  0.00000000000E+00  0.45593999997E+02  0.45594000000E+02  0.51100000000E-03 0.  1.
         11   -1    0    0    0    0 -0.00000000000E+00 -0.00000000000E+00 -0.45593999997E+02  0.45594000000E+02  0.51100000000E-03 0. -1.
    9900012    2    1    2    0    0  0.10641400759E+02  0.29239849643E+02  0.30255828805E+02  0.47787269661E+02  0.19999993691E+02 0.  0.
         12    1    1    2    0    0 -0.10641400759E+02 -0.29239849643E+02 -0.30255828805E+02  0.43400730339E+02  0.00000000000E+00 0. -1.
         11    1    3    3    0    0 -0.26262108602E+01  0.11884438473E+02  0.13201215186E+02  0.17955749607E+02  0.51100000000E-03 0. -1.
        -11    1    3    3    0    0  0.10074757489E+02  0.10976029948E+02  0.17123040551E+02  0.22697411523E+02  0.51100000000E-03 0.  1.
         12    1    3    3    0    0  0.31928541304E+01  0.63793812220E+01 -0.68426932167E-01  0.71341085300E+01  0.00000000000E+00 0. -1.
</event>
<event>
 7    1  0.4477737E-009  0.4778727E+02  0.7816164E-02  0.1312668E+00
        -11   -1    0    0    0    0  0.00000000000E+00  0.00000000000E+00  0.45593999997E+02  0.45594000000E+02  0.51100000000E-03 0.  1.
         11   -1    0    0    0    0 -0.00000000000E+00 -0.00000000000E+00 -0.45593999997E+02  0.45594000000E+02  0.51100000000E-03 0. -1.
    9900012    2    1    2    0    0 -0.41899837606E+02 -0.10721488600E+02  0.36161223488E+01  0.47787273623E+02  0.20000011758E+02 0.  0.
         12    1    1    2    0    0  0.41899837606E+02  0.10721488600E+02 -0.36161223488E+01  0.43400726377E+02  0.00000000000E+00 0. -1.
         11    1    3    3    0    0 -0.25875480080E+01 -0.19672080915E+01  0.33158502658E+01  0.46432936172E+01  0.51100000000E-03 0. -1.
        -11    1    3    3    0    0 -0.18604639785E+02 -0.11470350002E+02 -0.27820689637E+01  0.22032736069E+02  0.51100000000E-03 0.  1.
        -12    1    3    3    0    0 -0.20707649813E+02  0.27160694929E+01  0.30823410468E+01  0.21111243938E+02  0.00000000000E+00 0.  1.
</event>
<event>
 7    1  0.4477737E-009  0.4778727E+02  0.7816164E-02  0.1312668E+00
        -11   -1    0    0    0    0  0.00000000000E+00  0.00000000000E+00  0.45593999997E+02  0.45594000000E+02  0.51100000000E-03 0.  1.
         11   -1    0    0    0    0 -0.00000000000E+00 -0.00000000000E+00 -0.45593999997E+02  0.45594000000E+02  0.51100000000E-03 0. -1.
    9900012    2    1    2    0    0 -0.23717040331E+02 -0.12542148831E+02  0.34114799253E+02  0.47787273883E+02  0.20000012943E+02 0.  0.
         12    1    1    2    0    0  0.23717040331E+02  0.12542148831E+02 -0.34114799253E+02  0.43400726117E+02  0.00000000000E+00 0. -1.
         11    1    3    3    0    0 -0.18738731520E+02 -0.37799779096E+01  0.30447408684E+02  0.35950980346E+02  0.51100000000E-03 0. -1.
        -11    1    3    3    0    0 -0.22870222415E+01 -0.73215084805E+01  0.91271046185E+00  0.77245063151E+01  0.51100000000E-03 0.  1.
        -12    1    3    3    0    0 -0.26912865697E+01 -0.14406624411E+01  0.27546801069E+01  0.41117872222E+01  0.00000000000E+00 0.  1.
</event>
<event>
 7    1  0.4477737E-009  0.4778722E+02  0.7816164E-02  0.1312668E+00
        -11   -1    0    0    0    0  0.00000000000E+00  0.00000000000E+00  0.45593999997E+02  0.45594000000E+02  0.51100000000E-03 0. -1.
         11   -1    0    0    0    0 -0.00000000000E+00 -0.00000000000E+00 -0.45593999997E+02  0.45594000000E+02  0.51100000000E-03 0.  1.
    9900012    2    1    2    0    0  0.29616226714E+02  0.21770644828E+02 -0.23076957089E+02  0.47787218792E+02  0.19999761758E+02 0.  0.
         12    1    1    2    0    0 -0.29616226714E+02 -0.21770644828E+02  0.23076957089E+02  0.43400781208E+02  0.00000000000E+00 0. -1.
         11    1    3    3    0    0  0.28914861488E+02  0.22392300673E+02 -0.21159012703E+02  0.42251487111E+02  0.51100000000E-03 0. -1.
        -11    1    3    3    0    0 -0.17191077307E+00 -0.21265043712E+01  0.82509372690E+00  0.22874339497E+01  0.51100000000E-03 0.  1.
         12    1    3    3    0    0  0.87327599907E+00  0.15048485260E+01 -0.27430381134E+01  0.32482977309E+01  0.00000000000E+00 0. -1.
</event>
<event>
 7    1  0.4477737E-009  0.4778731E+02  0.7816164E-02  0.1312668E+00
        -11   -1    0    0    0    0  0.00000000000E+00  0.00000000000E+00  0.45593999997E+02  0.45594000000E+02  0.51100000000E-03 0.  1.
         11   -1    0    0    0    0 -0.00000000000E+00 -0.00000000000E+00 -0.45593999997E+02  0.45594000000E+02  0.51100000000E-03 0. -1.
    9900012    2    1    2    0    0 -0.16478894775E+02 -0.28617238270E+02  0.28162386429E+02  0.47787305207E+02  0.20000155760E+02 0.  0.
         12    1    1    2    0    0  0.16478894775E+02  0.28617238270E+02 -0.28162386429E+02  0.43400694793E+02  0.00000000000E+00 0. -1.
         11    1    3    3    0    0 -0.10123965431E+02 -0.38649751066E+01  0.11102526227E+02  0.15514470584E+02  0.51100000000E-03 0. -1.
        -11    1    3    3    0    0  0.25473447483E+01 -0.81742276119E+01  0.58531134334E+01  0.10371398143E+02  0.51100000000E-03 0.  1.
        -12    1    3    3    0    0 -0.89022740918E+01 -0.16578035551E+02  0.11206746768E+02  0.21901436479E+02  0.00000000000E+00 0.  1.
</event>
<event>
 7    1  0.4477737E-009  0.4778727E+02  0.7816164E-02  0.1312668E+00
        -11   -1    0    0    0    0  0.00000000000E+00  0.00000000000E+00  0.45593999997E+02  0.45594000000E+02  0.51100000000E-03 0.  1.
         11   -1    0    0    0    0 -0.00000000000E+00 -0.00000000000E+00 -0.45593999997E+02  0.45594000000E+02  0.51100000000E-03 0. -1.
    9900012    2    1    2    0    0 -0.12866235345E+02  0.38203370849E+02  0.16080616953E+02  0.47787265009E+02  0.19999972482E+02 0.  0.
         12    1    1    2    0    0  0.12866235345E+02 -0.38203370849E+02 -0.16080616953E+02  0.43400734991E+02  0.00000000000E+00 0. -1.
         11    1    3    3    0    0 -0.23180302954E+00  0.28285301067E-01  0.42139557872E+01  0.42204213463E+01  0.51100000000E-03 0. -1.
        -11    1    3    3    0    0 -0.74707304765E+01  0.34549115969E+02  0.82627219635E+01  0.36300493145E+02  0.51100000000E-03 0.  1.
        -12    1    3    3    0    0 -0.51637018388E+01  0.36259695791E+01  0.36039392022E+01  0.72663505174E+01  0.00000000000E+00 0.  1.
</event>
<event>
 7    1  0.4477737E-009  0.4778727E+02  0.7816164E-02  0.1312668E+00
        -11   -1    0    0    0    0  0.00000000000E+00  0.00000000000E+00  0.45593999997E+02  0.45594000000E+02  0.51100000000E-03 0.  1.
         11   -1    0    0    0    0 -0.00000000000E+00 -0.00000000000E+00 -0.45593999997E+02  0.45594000000E+02  0.51100000000E-03 0. -1.
    9900012    2    1    2    0    0  0.32039174793E+01 -0.56219638377E+01  0.42915634551E+02  0.47787271279E+02  0.20000001070E+02 0.  0.
         12    1    1    2    0    0 -0.32039174793E+01  0.56219638377E+01 -0.42915634551E+02  0.43400728721E+02  0.00000000000E+00 0. -1.
         11    1    3    3    0    0 -0.39681878462E+01 -0.35604912224E+01  0.30024584353E+02  0.30494249923E+02  0.51100000000E-03 0. -1.
        -11    1    3    3    0    0  0.33663542156E+01 -0.52514290611E+01  0.91578028596E+01  0.11080397166E+02  0.51100000000E-03 0.  1.
         12    1    3    3    0    0  0.38057511099E+01  0.31899564458E+01  0.37332473380E+01  0.62126241898E+01  0.00000000000E+00 0. -1.
</event>
<event>
 7    1  0.4477737E-009  0.4778727E+02  0.7816164E-02  0.1312668E+00
        -11   -1    0    0    0    0  0.00000000000E+00  0.00000000000E+00  0.45593999997E+02  0.45594000000E+02  0.51100000000E-03 0.  1.
         11   -1    0    0    0    0 -0.00000000000E+00 -0.00000000000E+00 -0.45593999997E+02  0.45594000000E+02  0.51100000000E-03 0. -1.
    9900012    2    1    2    0    0  0.27986262868E+02  0.73050826832E+01  0.32357815819E+02  0.47787269742E+02  0.19999994062E+02 0.  0.
         12    1    1    2    0    0 -0.27986262868E+02 -0.73050826832E+01 -0.32357815819E+02  0.43400730258E+02  0.00000000000E+00 0. -1.
         11    1    3    3    0    0  0.61087289131E+01 -0.14194719464E+01  0.16692203674E+02  0.17831464699E+02  0.51100000000E-03 0. -1.
        -11    1    3    3    0    0  0.59122888723E+01  0.49283193071E+01  0.99477765340E+01  0.12577827679E+02  0.51100000000E-03 0.  1.
         12    1    3    3    0    0  0.15965245083E+02  0.37962353224E+01  0.57178356108E+01  0.17377977364E+02  0.00000000000E+00 0. -1.
</event>
<event>
 7    1  0.4477737E-009  0.4778728E+02  0.7816164E-02  0.1312668E+00
        -11   -1    0    0    0    0  0.00000000000E+00  0.00000000000E+00  0.45593999997E+02  0.45594000000E+02  0.51100000000E-03 0. -1.
         11   -1    0    0    0    0 -0.00000000000E+00 -0.00000000000E+00 -0.45593999997E+02  0.45594000000E+02  0.51100000000E-03 0.  1.
    9900012    2    1    2    0    0  0.37878449066E+02  0.71127374859E+01 -0.19956318383E+02  0.47787279020E+02  0.20000036364E+02 0.  0.
         12    1    1    2    0    0 -0.37878449066E+02 -0.71127374859E+01  0.19956318383E+02  0.43400720980E+02  0.00000000000E+00 0. -1.
         11    1    3    3    0    0  0.13076357421E+02  0.10472050660E+02 -0.31327506914E+01  0.17043153921E+02  0.51100000000E-03 0. -1.
        -11    1    3    3    0    0  0.73561145396E+01 -0.23768635961E+01 -0.81608174330E+01  0.11241033899E+02  0.51100000000E-03 0.  1.
         12    1    3    3    0    0  0.17445977105E+02 -0.98244957785E+00 -0.86627502582E+01  0.19503091200E+02  0.00000000000E+00 0. -1.
</event>
<event>
 7    1  0.4477737E-009  0.4778727E+02  0.7816164E-02  0.1312668E+00
        -11   -1    0    0    0    0  0.00000000000E+00  0.00000000000E+00  0.45593999997E+02  0.45594000000E+02  0.51100000000E-03 0.  1.
         11   -1    0    0    0    0 -0.00000000000E+00 -0.00000000000E+00 -0.45593999997E+02  0.45594000000E+02  0.51100000000E-03 0. -1.
    9900012    2    1    2    0    0  0.30488498401E+02 -0.30337776741E+02  0.58046555303E+01  0.47787271226E+02  0.20000000826E+02 0.  0.
         12    1    1    2    0    0 -0.30488498401E+02  0.30337776741E+02 -0.58046555303E+01  0.43400728774E+02  0.00000000000E+00 0. -1.
         11    1    3    3    0    0 -0.21725132647E+00  0.42384952800E+00 -0.77883398846E+00  0.91292343816E+00  0.51100000000E-03 0. -1.
        -11    1    3    3    0    0  0.11173024763E+02 -0.83844504255E+01  0.97025437753E+01  0.17008081822E+02  0.51100000000E-03 0.  1.
        -12    1    3    3    0    0  0.19532724964E+02 -0.22377175843E+02 -0.31190542565E+01  0.29866265965E+02  0.00000000000E+00 0.  1.
</event>
<event>
 7    1  0.4477737E-009  0.4778727E+02  0.7816164E-02  0.1312668E+00
        -11   -1    0    0    0    0  0.00000000000E+00  0.00000000000E+00  0.45593999997E+02  0.45594000000E+02  0.51100000000E-03 0. -1.
         11   -1    0    0    0    0 -0.00000000000E+00 -0.00000000000E+00 -0.45593999997E+02  0.45594000000E+02  0.51100000000E-03 0.  1.
    9900012    2    1    2    0    0 -0.40976008195E+02 -0.40686963700E+01  0.13712613190E+02  0.47787270764E+02  0.19999998722E+02 0.  0.
         12    1    1    2    0    0  0.40976008195E+02  0.40686963700E+01 -0.13712613190E+02  0.43400729236E+02  0.00000000000E+00 0. -1.
         11    1    3    3    0    0 -0.34862574891E+01 -0.44576985382E+01 -0.25421741954E+01  0.62038469870E+01  0.51100000000E-03 0. -1.
        -11    1    3    3    0    0 -0.24098195573E+02 -0.32537001063E+01  0.11630621281E+02  0.26955165477E+02  0.51100000000E-03 0.  1.
         12    1    3    3    0    0 -0.13391555133E+02  0.36427022744E+01  0.46241661043E+01  0.14628258300E+02  0.00000000000E+00 0. -1.
</event>
<event>
 7    1  0.4477737E-009  0.4778722E+02  0.7816164E-02  0.1312668E+00
        -11   -1    0    0    0    0  0.00000000000E+00  0.00000000000E+00  0.45593999997E+02  0.45594000000E+02  0.51100000000E-03 0.  1.
         11   -1    0    0    0    0 -0.00000000000E+00 -0.00000000000E+00 -0.45593999997E+02  0.45594000000E+02  0.51100000000E-03 0. -1.
    9900012    2    1    2    0    0  0.17720358294E+02 -0.13941526772E+02  0.37084371752E+02  0.47787217806E+02  0.19999757262E+02 0.  0.
         12    1    1    2    0    0 -0.17720358294E+02  0.13941526772E+02 -0.37084371752E+02  0.43400782194E+02  0.00000000000E+00 0. -1.
         11    1    3    3    0    0  0.53351003548E+01  0.29293124414E+01  0.70517409636E+01  0.93151069803E+01  0.51100000000E-03 0. -1.
        -11    1    3    3    0    0 -0.92467315265E+00 -0.79876678754E+01  0.10253666942E+02  0.13030561942E+02  0.51100000000E-03 0.  1.
        -12    1    3    3    0    0  0.13309931092E+02 -0.88831713379E+01  0.19778963847E+02  0.25441548883E+02  0.00000000000E+00 0.  1.
</event>
<event>
 7    1  0.4477737E-009  0.4778727E+02  0.7816164E-02  0.1312668E+00
        -11   -1    0    0    0    0  0.00000000000E+00  0.00000000000E+00  0.45593999997E+02  0.45594000000E+02  0.51100000000E-03 0. -1.
         11   -1    0    0    0    0 -0.00000000000E+00 -0.00000000000E+00 -0.45593999997E+02  0.45594000000E+02  0.51100000000E-03 0.  1.
    9900012    2    1    2    0    0  0.28432506295E+02  0.43605850128E+01 -0.32499248700E+02  0.47787270952E+02  0.19999999577E+02 0.  0.
         12    1    1    2    0    0 -0.28432506295E+02 -0.43605850128E+01  0.32499248700E+02  0.43400729048E+02  0.00000000000E+00 0. -1.
         11    1    3    3    0    0  0.41648617650E+01  0.35662758881E+01 -0.16748951648E+02  0.17623614237E+02  0.51100000000E-03 0. -1.
        -11    1    3    3    0    0  0.17370776592E+02  0.31468095430E+01 -0.14334460100E+02  0.22740339407E+02  0.51100000000E-03 0.  1.
        -12    1    3    3    0    0  0.68968679379E+01 -0.23525004183E+01 -0.14158369521E+01  0.74233173073E+01  0.00000000000E+00 0.  1.
</event>
<event>
 7    1  0.4477737E-009  0.4778727E+02  0.7816164E-02  0.1312668E+00
        -11   -1    0    0    0    0  0.00000000000E+00  0.00000000000E+00  0.45593999997E+02  0.45594000000E+02  0.51100000000E-03 0.  1.
         11   -1    0    0    0    0 -0.00000000000E+00 -0.00000000000E+00 -0.45593999997E+02  0.45594000000E+02  0.51100000000E-03 0. -1.
    9900012    2    1    2    0    0  0.24232112883E+02  0.32096524431E+02  0.16316903759E+02  0.47787268168E+02  0.19999986884E+02 0.  0.
         12    1    1    2    0    0 -0.24232112883E+02 -0.32096524431E+02 -0.16316903759E+02  0.43400731832E+02  0.00000000000E+00 0. -1.
         11    1    3    3    0    0  0.16821968073E+02  0.17068993582E+02  0.29424903803E+01  0.24145132049E+02  0.51100000000E-03 0. -1.
        -11    1    3    3    0    0  0.91431150937E+01  0.10814861979E+02  0.12728579355E+02  0.19041389810E+02  0.51100000000E-03 0.  1.
        -12    1    3    3    0    0 -0.17329702840E+01  0.42126688695E+01  0.64583402314E+00  0.46007463085E+01  0.00000000000E+00 0.  1.
</event>
<event>
 7    1  0.4477737E-009  0.4778727E+02  0.7816164E-02  0.1312668E+00
        -11   -1    0    0    0    0  0.00000000000E+00  0.00000000000E+00  0.45593999997E+02  0.45594000000E+02  0.51100000000E-03 0. -1.
         11   -1    0    0    0    0 -0.00000000000E+00 -0.00000000000E+00 -0.45593999997E+02  0.45594000000E+02  0.51100000000E-03 0.  1.
    9900012    2    1    2    0    0 -0.21120759018E+02  0.35901978237E+02 -0.12189532870E+02  0.47787271730E+02  0.20000003124E+02 0.  0.
         12    1    1    2    0    0  0.21120759018E+02 -0.35901978237E+02  0.12189532870E+02  0.43400728270E+02  0.00000000000E+00 0. -1.
         11    1    3    3    0    0  0.38032436906E+00  0.66528408979E+01  0.29572643744E+01  0.72904287583E+01  0.51100000000E-03 0. -1.
        -11    1    3    3    0    0 -0.18483390214E+02  0.21474467431E+02 -0.78126585087E+01  0.29390918639E+02  0.51100000000E-03 0.  1.
         12    1    3    3    0    0 -0.30176931738E+01  0.77746699079E+01 -0.73341387360E+01  0.11105924332E+02  0.00000000000E+00 0. -1.
</event>
<event>
 7    1  0.4477737E-009  0.4778727E+02  0.7816164E-02  0.1312668E+00
        -11   -1    0    0    0    0  0.00000000000E+00  0.00000000000E+00  0.45593999997E+02  0.45594000000E+02  0.51100000000E-03 0. -1.
         11   -1    0    0    0    0 -0.00000000000E+00 -0.00000000000E+00 -0.45593999997E+02  0.45594000000E+02  0.51100000000E-03 0.  1.
    9900012    2    1    2    0    0  0.37212356699E+02  0.11499906421E+02  0.19147213005E+02  0.47787272994E+02  0.20000008890E+02 0.  0.
         12    1    1    2    0    0 -0.37212356699E+02 -0.11499906421E+02 -0.19147213005E+02  0.43400727006E+02  0.00000000000E+00 0. -1.
         11    1    3    3    0    0  0.11059543540E+02  0.11319565573E+02  0.10798907796E+02  0.19158874651E+02  0.51100000000E-03 0. -1.
        -11    1    3    3    0    0  0.15281836045E+02 -0.33316571793E+01  0.69624148668E+01  0.17120446066E+02  0.51100000000E-03 0.  1.
        -12    1    3    3    0    0  0.10870977114E+02  0.35119980272E+01  0.13858903421E+01  0.11507952276E+02  0.00000000000E+00 0.  1.
</event>
<event>
 7    1  0.4477737E-009  0.4778727E+02  0.7816164E-02  0.1312668E+00
        -11   -1    0    0    0    0  0.00000000000E+00  0.00000000000E+00  0.45593999997E+02  0.45594000000E+02  0.51100000000E-03 0.  1.
         11   -1    0    0    0    0 -0.00000000000E+00 -0.00000000000E+00 -0.45593999997E+02  0.45594000000E+02  0.51100000000E-03 0. -1.
    9900012    2    1    2    0    0 -0.22967480505E+02 -0.14242964931E+02  0.33959621174E+02  0.47787273266E+02  0.20000010130E+02 0.  0.
         12    1    1    2    0    0  0.22967480505E+02  0.14242964931E+02 -0.33959621174E+02  0.43400726734E+02  0.00000000000E+00 0. -1.
         11    1    3    3    0    0  0.41032166156E+00  0.70274076826E+00 -0.16848338827E+00  0.83102067758E+00  0.51100000000E-03 0. -1.
        -11    1    3    3    0    0 -0.11702693512E+01 -0.88245751771E+01  0.12596519752E+02  0.15424492457E+02  0.51100000000E-03 0.  1.
        -12    1    3    3    0    0 -0.22207532815E+02 -0.61211305226E+01  0.21531584809E+02  0.31531760132E+02  0.00000000000E+00 0.  1.
</event>
<event>
 7    1  0.4477737E-009  0.4778727E+02  0.7816164E-02  0.1312668E+00
        -11   -1    0    0    0    0  0.00000000000E+00  0.00000000000E+00  0.45593999997E+02  0.45594000000E+02  0.51100000000E-03 0. -1.
         11   -1    0    0    0    0 -0.00000000000E+00 -0.00000000000E+00 -0.45593999997E+02  0.45594000000E+02  0.51100000000E-03 0.  1.
    9900012    2    1    2    0    0 -0.24163811607E+02 -0.21681273546E+02 -0.28803745626E+02  0.47787272171E+02  0.20000005138E+02 0.  0.
         12    1    1    2    0    0  0.24163811607E+02  0.21681273546E+02  0.28803745626E+02  0.43400727829E+02  0.00000000000E+00 0. -1.
         11    1    3    3    0    0 -0.74215065756E+01 -0.30494613510E+01 -0.11113624211E+01  0.81001914221E+01  0.51100000000E-03 0. -1.
        -11    1    3    3    0    0 -0.50681566320E+01 -0.26475852254E+01 -0.15301764273E+02  0.16335235208E+02  0.51100000000E-03 0.  1.
        -12    1    3    3    0    0 -0.11674148399E+02 -0.15984226970E+02 -0.12390618932E+02  0.23351845541E+02  0.00000000000E+00 0.  1.
</event>
<event>
 7    1  0.4793803E-009  0.4778727E+02  0.7816164E-02  0.1312668E+00
        -11   -1    0    0    0    0  0.00000000000E+00  0.00000000000E+00  0.45593999997E+02  0.45594000000E+02  0.51100000000E-03 0.  1.
         11   -1    0    0    0    0 -0.00000000000E+00 -0.00000000000E+00 -0.45593999997E+02  0.45594000000E+02  0.51100000000E-03 0. -1.
    9900012    2    1    2    0    0  0.33503046341E+02 -0.26138143724E+02 -0.88298595960E+01  0.47787273140E+02  0.20000009556E+02 0.  0.
         12    1    1    2    0    0 -0.33503046341E+02  0.26138143724E+02  0.88298595960E+01  0.43400726860E+02  0.00000000000E+00 0. -1.
         11    1    3    3    0    0  0.13592732855E+02 -0.19836798282E+02 -0.80061211701E+01  0.25344800828E+02  0.51100000000E-03 0. -1.
        -11    1    3    3    0    0  0.15934490856E+02 -0.82286593142E+01  0.73837002865E-01  0.17933886503E+02  0.51100000000E-03 0.  1.
         12    1    3    3    0    0  0.39758226293E+01  0.19273138724E+01 -0.89757542875E+00  0.45085858085E+01  0.00000000000E+00 0. -1.
</event>
<event>
 7    1  0.4477737E-009  0.4778726E+02  0.7816164E-02  0.1312668E+00
        -11   -1    0    0    0    0  0.00000000000E+00  0.00000000000E+00  0.45593999997E+02  0.45594000000E+02  0.51100000000E-03 0.  1.
         11   -1    0    0    0    0 -0.00000000000E+00 -0.00000000000E+00 -0.45593999997E+02  0.45594000000E+02  0.51100000000E-03 0. -1.
    9900012    2    1    2    0    0 -0.30985893017E+02 -0.24965080355E+02  0.17327522128E+02  0.47787264680E+02  0.19999970984E+02 0.  0.
         12    1    1    2    0    0  0.30985893017E+02  0.24965080355E+02 -0.17327522128E+02  0.43400735320E+02  0.00000000000E+00 0. -1.
         11    1    3    3    0    0 -0.50806830915E+01 -0.86914771232E+01  0.97092561029E+01  0.13986592494E+02  0.51100000000E-03 0. -1.
        -11    1    3    3    0    0 -0.25334764249E+02 -0.15755461185E+02  0.98669660508E+01  0.31423587574E+02  0.51100000000E-03 0.  1.
        -12    1    3    3    0    0 -0.57044567658E+00 -0.51814204701E+00 -0.22487000256E+01  0.23770846127E+01  0.00000000000E+00 0.  1.
</event>
<event>
 7    1  0.4477737E-009  0.4778727E+02  0.7816164E-02  0.1312668E+00
        -11   -1    0    0    0    0  0.00000000000E+00  0.00000000000E+00  0.45593999997E+02  0.45594000000E+02  0.51100000000E-03 0. -1.
         11   -1    0    0    0    0 -0.00000000000E+00 -0.00000000000E+00 -0.45593999997E+02  0.45594000000E+02  0.51100000000E-03 0.  1.
    9900012    2    1    2    0    0  0.43119124639E+02 -0.41637312711E+00 -0.49184366762E+01  0.47787270795E+02  0.19999998861E+02 0.  0.
         12    1    1    2    0    0 -0.43119124639E+02  0.41637312711E+00  0.49184366762E+01  0.43400729205E+02  0.00000000000E+00 0. -1.
         11    1    3    3    0    0  0.10266778060E+02 -0.70213198262E+00  0.40081771866E+01  0.11043785840E+02  0.51100000000E-03 0. -1.
        -11    1    3    3    0    0  0.84373751770E+01 -0.27045496198E+01 -0.82962043994E+01  0.12137993913E+02  0.51100000000E-03 0.  1.
        -12    1    3    3    0    0  0.24414971402E+02  0.29903084754E+01 -0.63040946335E+00  0.24605491043E+02  0.00000000000E+00 0.  1.
</event>
<event>
 7    1  0.4477737E-009  0.4778728E+02  0.7816164E-02  0.1312668E+00
        -11   -1    0    0    0    0  0.00000000000E+00  0.00000000000E+00  0.45593999997E+02  0.45594000000E+02  0.51100000000E-03 0. -1.
         11   -1    0    0    0    0 -0.00000000000E+00 -0.00000000000E+00 -0.45593999997E+02  0.45594000000E+02  0.51100000000E-03 0.  1.
    9900012    2    1    2    0    0  0.84804946046E+01  0.10515472819E+02 -0.41244744078E+02  0.47787275681E+02  0.20000021140E+02 0.  0.
         12    1    1    2    0    0 -0.84804946046E+01 -0.10515472819E+02  0.41244744078E+02  0.43400724319E+02  0.00000000000E+00 0. -1.
         11    1    3    3    0    0  0.17209326097E+01 -0.13073847201E+01 -0.21630738045E+00  0.21720158834E+01  0.51100000000E-03 0. -1.
        -11    1    3    3    0    0  0.20801046812E+01  0.88430114813E+01 -0.38430135861E+02  0.39489252083E+02  0.51100000000E-03 0.  1.
        -12    1    3    3    0    0  0.46794573137E+01  0.29798460576E+01 -0.25983008366E+01  0.61260077143E+01  0.00000000000E+00 0.  1.
</event>
<event>
 7    1  0.4477737E-009  0.4778727E+02  0.7816164E-02  0.1312668E+00
        -11   -1    0    0    0    0  0.00000000000E+00  0.00000000000E+00  0.45593999997E+02  0.45594000000E+02  0.51100000000E-03 0.  1.
         11   -1    0    0    0    0 -0.00000000000E+00 -0.00000000000E+00 -0.45593999997E+02  0.45594000000E+02  0.51100000000E-03 0. -1.
    9900012    2    1    2    0    0  0.10624440950E+01 -0.17651994014E+02  0.39634597813E+02  0.47787273924E+02  0.20000013128E+02 0.  0.
         12    1    1    2    0    0 -0.10624440950E+01  0.17651994014E+02 -0.39634597813E+02  0.43400726076E+02  0.00000000000E+00 0. -1.
         11    1    3    3    0    0 -0.39730952885E+01  0.17340047319E+01  0.37252629330E+01  0.57157539102E+01  0.51100000000E-03 0. -1.
        -11    1    3    3    0    0  0.10106938180E+01 -0.14168146721E+02  0.30114429632E+02  0.33296197318E+02  0.51100000000E-03 0.  1.
        -12    1    3    3    0    0  0.40248455655E+01 -0.52178520249E+01  0.57949052483E+01  0.87753226959E+01  0.00000000000E+00 0.  1.
</event>
<event>
 7    1  0.4477737E-009  0.4778727E+02  0.7816164E-02  0.1312668E+00
        -11   -1    0    0    0    0  0.00000000000E+00  0.00000000000E+00  0.45593999997E+02  0.45594000000E+02  0.51100000000E-03 0. -1.
         11   -1    0    0    0    0 -0.00000000000E+00 -0.00000000000E+00 -0.45593999997E+02  0.45594000000E+02  0.51100000000E-03 0.  1.
    9900012    2    1    2    0    0 -0.38878272062E+02 -0.12586975900E+02 -0.14617500313E+02  0.47787270557E+02  0.19999997776E+02 0.  0.
         12    1    1    2    0    0  0.38878272062E+02  0.12586975900E+02  0.14617500313E+02  0.43400729443E+02  0.00000000000E+00 0. -1.
         11    1    3    3    0    0 -0.12852598636E+02 -0.16869083823E+01  0.21669283786E+01  0.13142698751E+02  0.51100000000E-03 0. -1.
        -11    1    3    3    0    0 -0.94672885840E+01 -0.79870668077E+01 -0.11802989882E+02  0.17109452350E+02  0.51100000000E-03 0.  1.
        -12    1    3    3    0    0 -0.16558384842E+02 -0.29130007095E+01 -0.49814388105E+01  0.17535119455E+02  0.00000000000E+00 0.  1.
</event>
<event>
 7    1  0.4477737E-009  0.4778727E+02  0.7816164E-02  0.1312668E+00
        -11   -1    0    0    0    0  0.00000000000E+00  0.00000000000E+00  0.45593999997E+02  0.45594000000E+02  0.51100000000E-03 0.  1.
         11   -1    0    0    0    0 -0.00000000000E+00 -0.00000000000E+00 -0.45593999997E+02  0.45594000000E+02  0.51100000000E-03 0. -1.
    9900012    2    1    2    0    0  0.33052526811E+02 -0.30665771141E+01  0.27959788697E+02  0.47787271805E+02  0.20000003469E+02 0.  0.
         12    1    1    2    0    0 -0.33052526811E+02  0.30665771141E+01 -0.27959788697E+02  0.43400728195E+02  0.00000000000E+00 0. -1.
         11    1    3    3    0    0  0.14257660694E+02  0.49211618830E+01  0.18332092665E+02  0.23739510198E+02  0.51100000000E-03 0. -1.
        -11    1    3    3    0    0  0.18669835283E+02 -0.54737258319E+01  0.79196715654E+01  0.21005847327E+02  0.51100000000E-03 0.  1.
         12    1    3    3    0    0  0.12503083513E+00 -0.25140131653E+01  0.17080244674E+01  0.30419142799E+01  0.00000000000E+00 0. -1.
</event>
<event>
 7    1  0.4477737E-009  0.4778726E+02  0.7816164E-02  0.1312668E+00
        -11   -1    0    0    0    0  0.00000000000E+00  0.00000000000E+00  0.45593999997E+02  0.45594000000E+02  0.51100000000E-03 0.  1.
         11   -1    0    0    0    0 -0.00000000000E+00 -0.00000000000E+00 -0.45593999997E+02  0.45594000000E+02  0.51100000000E-03 0. -1.
    9900012    2    1    2    0    0  0.20889719631E+02  0.39965538058E+01  0.37832144657E+02  0.47787262703E+02  0.19999961968E+02 0.  0.
         12    1    1    2    0    0 -0.20889719631E+02 -0.39965538058E+01 -0.37832144657E+02  0.43400737297E+02  0.00000000000E+00 0. -1.
         11    1    3    3    0    0  0.34709591865E+01  0.70846639946E+01  0.71024584822E+01  0.10615316215E+02  0.51100000000E-03 0. -1.
        -11    1    3    3    0    0  0.11839021253E+02 -0.57850062372E+01  0.26714896780E+02  0.29787823547E+02  0.51100000000E-03 0.  1.
        -12    1    3    3    0    0  0.55797391909E+01  0.26968960484E+01  0.40147893945E+01  0.73841229415E+01  0.00000000000E+00 0.  1.
</event>
<event>
 7    1  0.4477737E-009  0.4778727E+02  0.7816164E-02  0.1312668E+00
        -11   -1    0    0    0    0  0.00000000000E+00  0.00000000000E+00  0.45593999997E+02  0.45594000000E+02  0.51100000000E-03 0.  1.
         11   -1    0    0    0    0 -0.00000000000E+00 -0.00000000000E+00 -0.45593999997E+02  0.45594000000E+02  0.51100000000E-03 0. -1.
    9900012    2    1    2    0    0 -0.13657952782E+02  0.24227327805E+02  0.33318466724E+02  0.47787270610E+02  0.19999998021E+02 0.  0.
         12    1    1    2    0    0  0.13657952782E+02 -0.24227327805E+02 -0.33318466724E+02  0.43400729390E+02  0.00000000000E+00 0. -1.
         11    1    3    3    0    0 -0.13835750021E+02  0.16120513518E+02  0.11678475600E+02  0.24242230247E+02  0.51100000000E-03 0. -1.
        -11    1    3    3    0    0  0.21408753316E+01  0.23176692804E+01  0.78881222157E+01  0.84957289523E+01  0.51100000000E-03 0.  1.
         12    1    3    3    0    0 -0.19630780925E+01  0.57891450058E+01  0.13751868908E+02  0.15049311412E+02  0.00000000000E+00 0. -1.
</event>
<event>
 7    1  0.5349969E-009  0.4778727E+02  0.7816164E-02  0.1312668E+00
        -11   -1    0    0    0    0  0.00000000000E+00  0.00000000000E+00  0.45593999997E+02  0.45594000000E+02  0.51100000000E-03 0. -1.
         11   -1    0    0    0    0 -0.00000000000E+00 -0.00000000000E+00 -0.45593999997E+02  0.45594000000E+02  0.51100000000E-03 0.  1.
    9900012    2    1    2    0    0 -0.32060885470E+02  0.30972974681E+01 -0.29088302038E+02  0.47787274843E+02  0.20000017319E+02 0.  0.
         12    1    1    2    0    0  0.32060885470E+02 -0.30972974681E+01  0.29088302038E+02  0.43400725157E+02  0.00000000000E+00 0. -1.
         11    1    3    3    0    0 -0.18055713533E+02  0.64328925041E+01 -0.16461233245E+02  0.25265848440E+02  0.51100000000E-03 0. -1.
        -11    1    3    3    0    0 -0.13626944343E+02 -0.53353440656E+01 -0.64040951448E+01  0.15974102269E+02  0.51100000000E-03 0.  1.
         12    1    3    3    0    0 -0.37822759388E+00  0.19997490296E+01 -0.62229736480E+01  0.65473241342E+01  0.00000000000E+00 0. -1.
</event>
<event>
 7    1  0.4477737E-009  0.4778727E+02  0.7816164E-02  0.1312668E+00
        -11   -1    0    0    0    0  0.00000000000E+00  0.00000000000E+00  0.45593999997E+02  0.45594000000E+02  0.51100000000E-03 0.  1.
         11   -1    0    0    0    0 -0.00000000000E+00 -0.00000000000E+00 -0.45593999997E+02  0.45594000000E+02  0.51100000000E-03 0. -1.
    9900012    2    1    2    0    0 -0.36993621057E+02  0.18578760294E+02  0.13035526519E+02  0.47787270921E+02  0.19999999438E+02 0.  0.
         12    1    1    2    0    0  0.36993621057E+02 -0.18578760294E+02 -0.13035526519E+02  0.43400729079E+02  0.00000000000E+00 0. -1.
         11    1    3    3    0    0 -0.17529383925E+02  0.43997474525E+00  0.59864257414E+01  0.18528631142E+02  0.51100000000E-03 0. -1.
        -11    1    3    3    0    0 -0.16221267129E+02  0.12953117313E+02  0.11957605281E+01  0.20792849706E+02  0.51100000000E-03 0.  1.
         12    1    3    3    0    0 -0.32429700026E+01  0.51856682359E+01  0.58533402491E+01  0.84657900731E+01  0.00000000000E+00 0. -1.
</event>
<event>
 7    1  0.4477737E-009  0.4778727E+02  0.7816164E-02  0.1312668E+00
        -11   -1    0    0    0    0  0.00000000000E+00  0.00000000000E+00  0.45593999997E+02  0.45594000000E+02  0.51100000000E-03 0.  1.
         11   -1    0    0    0    0 -0.00000000000E+00 -0.00000000000E+00 -0.45593999997E+02  0.45594000000E+02  0.51100000000E-03 0. -1.
    9900012    2    1    2    0    0 -0.19887981937E+01  0.42945914734E+02  0.59427948110E+01  0.47787265896E+02  0.19999976527E+02 0.  0.
         12    1    1    2    0    0  0.19887981937E+01 -0.42945914734E+02 -0.59427948110E+01  0.43400734104E+02  0.00000000000E+00 0. -1.
         11    1    3    3    0    0  0.57579479974E+01  0.10528131279E+02 -0.17091276995E+01  0.12120917091E+02  0.51100000000E-03 0. -1.
        -11    1    3    3    0    0 -0.71732904032E+01  0.12240837620E+02  0.60304217004E+01  0.15416231284E+02  0.51100000000E-03 0.  1.
        -12    1    3    3    0    0 -0.57345578790E+00  0.20176945835E+02  0.16215008101E+01  0.20250117522E+02  0.00000000000E+00 0.  1.
</event>
<event>
 7    1  0.4477737E-009  0.4778727E+02  0.7816164E-02  0.1312668E+00
        -11   -1    0    0    0    0  0.00000000000E+00  0.00000000000E+00  0.45593999997E+02  0.45594000000E+02  0.51100000000E-03 0. -1.
         11   -1    0    0    0    0 -0.00000000000E+00 -0.00000000000E+00 -0.45593999997E+02  0.45594000000E+02  0.51100000000E-03 0.  1.
    9900012    2    1    2    0    0 -0.11977354819E+02 -0.24512569166E+02  0.33753523748E+02  0.47787269119E+02  0.19999991222E+02 0.  0.
         12    1    1    2    0    0  0.11977354819E+02  0.24512569166E+02 -0.33753523748E+02  0.43400730881E+02  0.00000000000E+00 0. -1.
         11    1    3    3    0    0  0.10608250771E+01 -0.20548652552E+01  0.60372619358E+01  0.64650098997E+01  0.51100000000E-03 0. -1.
        -11    1    3    3    0    0 -0.58713457940E+01  0.46261891629E+00  0.95114053958E+01  0.11187204770E+02  0.51100000000E-03 0.  1.
        -12    1    3    3    0    0 -0.71668341025E+01 -0.22920322828E+02  0.18204856416E+02  0.30135054450E+02  0.00000000000E+00 0.  1.
</event>
<event>
 7    1  0.4477737E-009  0.4778727E+02  0.7816164E-02  0.1312668E+00
        -11   -1    0    0    0    0  0.00000000000E+00  0.00000000000E+00  0.45593999997E+02  0.45594000000E+02  0.51100000000E-03 0. -1.
         11   -1    0    0    0    0 -0.00000000000E+00 -0.00000000000E+00 -0.45593999997E+02  0.45594000000E+02  0.51100000000E-03 0.  1.
    9900012    2    1    2    0    0  0.17163183155E+02  0.36702933824E+02 -0.15554516211E+02  0.47787272105E+02  0.20000004835E+02 0.  0.
         12    1    1    2    0    0 -0.17163183155E+02 -0.36702933824E+02  0.15554516211E+02  0.43400727895E+02  0.00000000000E+00 0. -1.
         11    1    3    3    0    0  0.57929325784E+00  0.89335082608E+01  0.92497062084E+00  0.89999289683E+01  0.51100000000E-03 0. -1.
        -11    1    3    3    0    0  0.14208544390E+02  0.11018358258E+02 -0.10622415394E+02  0.20883550020E+02  0.51100000000E-03 0.  1.
        -12    1    3    3    0    0  0.23753455074E+01  0.16751067305E+02 -0.58570714372E+01  0.17903793116E+02  0.00000000000E+00 0.  1.
</event>
<event>
 7    1  0.4477737E-009  0.4778727E+02  0.7816164E-02  0.1312668E+00
        -11   -1    0    0    0    0  0.00000000000E+00  0.00000000000E+00  0.45593999997E+02  0.45594000000E+02  0.51100000000E-03 0.  1.
         11   -1    0    0    0    0 -0.00000000000E+00 -0.00000000000E+00 -0.45593999997E+02  0.45594000000E+02  0.51100000000E-03 0. -1.
    9900012    2    1    2    0    0  0.15866671749E+02  0.17037135436E+02  0.36627965380E+02  0.47787273000E+02  0.20000008918E+02 0.  0.
         12    1    1    2    0    0 -0.15866671749E+02 -0.17037135436E+02 -0.36627965380E+02  0.43400727000E+02  0.00000000000E+00 0. -1.
         11    1    3    3    0    0  0.81243684557E+00 -0.25997349355E+01  0.16214446309E+01  0.31698199184E+01  0.51100000000E-03 0. -1.
        -11    1    3    3    0    0  0.16304610092E+02  0.14474948237E+02  0.31282259758E+02  0.38130620406E+02  0.51100000000E-03 0.  1.
        -12    1    3    3    0    0 -0.12503751894E+01  0.51619221343E+01  0.37242609907E+01  0.64868326757E+01  0.00000000000E+00 0.  1.
</event>
<event>
 7    1  0.5232607E-009  0.4778728E+02  0.7816164E-02  0.1312668E+00
        -11   -1    0    0    0    0  0.00000000000E+00  0.00000000000E+00  0.45593999997E+02  0.45594000000E+02  0.51100000000E-03 0.  1.
         11   -1    0    0    0    0 -0.00000000000E+00 -0.00000000000E+00 -0.45593999997E+02  0.45594000000E+02  0.51100000000E-03 0. -1.
    9900012    2    1    2    0    0 -0.92754008310E+01  0.38029547379E+02  0.18744145071E+02  0.47787279858E+02  0.20000040183E+02 0.  0.
         12    1    1    2    0    0  0.92754008310E+01 -0.38029547379E+02 -0.18744145071E+02  0.43400720142E+02  0.00000000000E+00 0. -1.
         11    1    3    3    0    0 -0.24043185028E+01  0.74921701449E+00 -0.17753157586E+01  0.30812042940E+01  0.51100000000E-03 0. -1.
        -11    1    3    3    0    0 -0.99084510397E+01  0.32285883152E+02  0.16321171231E+02  0.37509149331E+02  0.51100000000E-03 0.  1.
        -12    1    3    3    0    0  0.30373687115E+01  0.49944472124E+01  0.41982895983E+01  0.71969262326E+01  0.00000000000E+00 0.  1.
</event>
<event>
 7    1  0.4477737E-009  0.4778727E+02  0.7816164E-02  0.1312668E+00
        -11   -1    0    0    0    0  0.00000000000E+00  0.00000000000E+00  0.45593999997E+02  0.45594000000E+02  0.51100000000E-03 0.  1.
         11   -1    0    0    0    0 -0.00000000000E+00 -0.00000000000E+00 -0.45593999997E+02  0.45594000000E+02  0.51100000000E-03 0. -1.
    9900012    2    1    2    0    0 -0.35115889931E+01  0.83327045403E+01  0.42448297969E+02  0.47787271634E+02  0.20000002688E+02 0.  0.
         12    1    1    2    0    0  0.35115889931E+01 -0.83327045403E+01 -0.42448297969E+02  0.43400728366E+02  0.00000000000E+00 0. -1.
         11    1    3    3    0    0 -0.65459043860E+01  0.74887350696E-01  0.87844527546E+01  0.10955413402E+02  0.51100000000E-03 0. -1.
        -11    1    3    3    0    0 -0.47377553963E+00  0.71549027294E+01  0.32003603384E+02  0.32797068866E+02  0.51100000000E-03 0.  1.
        -12    1    3    3    0    0  0.35080909325E+01  0.11029144602E+01  0.16602418302E+01  0.40347893665E+01  0.00000000000E+00 0.  1.
</event>
<event>
 7    1  0.4477737E-009  0.4778727E+02  0.7816164E-02  0.1312668E+00
        -11   -1    0    0    0    0  0.00000000000E+00  0.00000000000E+00  0.45593999997E+02  0.45594000000E+02  0.51100000000E-03 0.  1.
         11   -1    0    0    0    0 -0.00000000000E+00 -0.00000000000E+00 -0.45593999997E+02  0.45594000000E+02  0.51100000000E-03 0. -1.
    9900012    2    1    2    0    0 -0.54323365667E+01  0.42363984504E+02  0.77075014792E+01  0.47787273708E+02  0.20000012142E+02 0.  0.
         12    1    1    2    0    0  0.54323365667E+01 -0.42363984504E+02 -0.77075014792E+01  0.43400726292E+02  0.00000000000E+00 0. -1.
         11    1    3    3    0    0 -0.68910047919E+01  0.30201589916E+01  0.16468756117E+01  0.77019157953E+01  0.51100000000E-03 0. -1.
        -11    1    3    3    0    0  0.24089192205E+00  0.22459079771E+02  0.56117206325E+01  0.23150803480E+02  0.51100000000E-03 0.  1.
         12    1    3    3    0    0  0.12177763032E+01  0.16884745742E+02  0.44890523504E+00  0.16934554432E+02  0.00000000000E+00 0. -1.
</event>
<event>
 7    1  0.4477737E-009  0.4778728E+02  0.7816164E-02  0.1312668E+00
        -11   -1    0    0    0    0  0.00000000000E+00  0.00000000000E+00  0.45593999997E+02  0.45594000000E+02  0.51100000000E-03 0.  1.
         11   -1    0    0    0    0 -0.00000000000E+00 -0.00000000000E+00 -0.45593999997E+02  0.45594000000E+02  0.51100000000E-03 0. -1.
    9900012    2    1    2    0    0 -0.10423761479E+02  0.10142955736E+02  0.40891172544E+02  0.47787281729E+02  0.20000048713E+02 0.  0.
         12    1    1    2    0    0  0.10423761479E+02 -0.10142955736E+02 -0.40891172544E+02  0.43400718271E+02  0.00000000000E+00 0. -1.
         11    1    3    3    0    0 -0.10832766433E+02 -0.13994320943E+01  0.16490085839E+02  0.19779539176E+02  0.51100000000E-03 0. -1.
        -11    1    3    3    0    0 -0.66932996032E+00  0.10636098462E+02  0.14436027552E+02  0.17943619613E+02  0.51100000000E-03 0.  1.
        -12    1    3    3    0    0  0.10783349137E+01  0.90628936810E+00  0.99650591536E+01  0.10064122939E+02  0.00000000000E+00 0.  1.
</event>
<event>
 7    1  0.4477737E-009  0.4778727E+02  0.7816164E-02  0.1312668E+00
        -11   -1    0    0    0    0  0.00000000000E+00  0.00000000000E+00  0.45593999997E+02  0.45594000000E+02  0.51100000000E-03 0.  1.
         11   -1    0    0    0    0 -0.00000000000E+00 -0.00000000000E+00 -0.45593999997E+02  0.45594000000E+02  0.51100000000E-03 0. -1.
    9900012    2    1    2    0    0  0.35419154265E+01  0.13326927810E+02  0.41151803301E+02  0.47787273224E+02  0.20000009937E+02 0.  0.
         12    1    1    2    0    0 -0.35419154265E+01 -0.13326927810E+02 -0.41151803301E+02  0.43400726776E+02  0.00000000000E+00 0. -1.
         11    1    3    3    0    0 -0.18143625127E+01  0.39579550397E+01  0.40270797488E+00  0.43725842928E+01  0.51100000000E-03 0.  1.
        -11    1    3    3    0    0 -0.73916622698E+00  0.78683421503E+01  0.29416544081E+02  0.30459649388E+02  0.51100000000E-03 0. -1.
        -12    1    3    3    0    0  0.60954441662E+01  0.15006306204E+01  0.11332551246E+02  0.12955039544E+02  0.00000000000E+00 0.  1.
</event>
<event>
 7    1  0.4477737E-009  0.4778727E+02  0.7816164E-02  0.1312668E+00
        -11   -1    0    0    0    0  0.00000000000E+00  0.00000000000E+00  0.45593999997E+02  0.45594000000E+02  0.51100000000E-03 0.  1.
         11   -1    0    0    0    0 -0.00000000000E+00 -0.00000000000E+00 -0.45593999997E+02  0.45594000000E+02  0.51100000000E-03 0. -1.
    9900012    2    1    2    0    0  0.45980519319E+01 -0.29060958902E+02  0.31905196054E+02  0.47787274786E+02  0.20000017057E+02 0.  0.
         12    1    1    2    0    0 -0.45980519319E+01  0.29060958902E+02 -0.31905196054E+02  0.43400725214E+02  0.00000000000E+00 0. -1.
         11    1    3    3    0    0  0.71982635907E+01 -0.71280763343E+01  0.17176892935E+01  0.10274966069E+02  0.51100000000E-03 0.  1.
        -11    1    3    3    0    0 -0.20963350764E+01 -0.15435189402E+02  0.23326755561E+02  0.28049549335E+02  0.51100000000E-03 0. -1.
        -12    1    3    3    0    0 -0.50387658240E+00 -0.64976931661E+01  0.68607511994E+01  0.94627593814E+01  0.00000000000E+00 0.  1.
</event>
<event>
 7    1  0.4477737E-009  0.4778727E+02  0.7816164E-02  0.1312668E+00
        -11   -1    0    0    0    0  0.00000000000E+00  0.00000000000E+00  0.45593999997E+02  0.45594000000E+02  0.51100000000E-03 0. -1.
         11   -1    0    0    0    0 -0.00000000000E+00 -0.00000000000E+00 -0.45593999997E+02  0.45594000000E+02  0.51100000000E-03 0.  1.
    9900012    2    1    2    0    0  0.24307143610E+02 -0.15135416885E+02 -0.32614492457E+02  0.47787271976E+02  0.20000004249E+02 0.  0.
         12    1    1    2    0    0 -0.24307143610E+02  0.15135416885E+02  0.32614492457E+02  0.43400728024E+02  0.00000000000E+00 0. -1.
         11    1    3    3    0    0  0.14120035176E+02  0.21295461423E+01 -0.11865258513E+02  0.18565955941E+02  0.51100000000E-03 0. -1.
        -11    1    3    3    0    0  0.10254421241E+02 -0.14254462128E+02 -0.17489276092E+02  0.24783414294E+02  0.51100000000E-03 0.  1.
         12    1    3    3    0    0 -0.67312807205E-01 -0.30105008993E+01 -0.32599578518E+01  0.44379017422E+01  0.00000000000E+00 0. -1.
</event>
<event>
 7    1  0.4477737E-009  0.4778723E+02  0.7816164E-02  0.1312668E+00
        -11   -1    0    0    0    0  0.00000000000E+00  0.00000000000E+00  0.45593999997E+02  0.45594000000E+02  0.51100000000E-03 0.  1.
         11   -1    0    0    0    0 -0.00000000000E+00 -0.00000000000E+00 -0.45593999997E+02  0.45594000000E+02  0.51100000000E-03 0. -1.
    9900012    2    1    2    0    0  0.19739408150E+02  0.27742475612E+02  0.26913515376E+02  0.47787233911E+02  0.19999830692E+02 0.  0.
         12    1    1    2    0    0 -0.19739408150E+02 -0.27742475612E+02 -0.26913515376E+02  0.43400766089E+02  0.00000000000E+00 0. -1.
         11    1    3    3    0    0  0.10104448075E+02  0.61073663108E+01  0.15648819533E+02  0.19603197371E+02  0.51100000000E-03 0. -1.
        -11    1    3    3    0    0  0.85270680039E+01  0.11757187475E+02  0.21204740197E+01  0.14677832143E+02  0.51100000000E-03 0.  1.
         12    1    3    3    0    0  0.11078920713E+01  0.98779218261E+01  0.91442218239E+01  0.13506204397E+02  0.00000000000E+00 0. -1.
</event>
<event>
 7    1  0.5607873E-009  0.4778727E+02  0.7816164E-02  0.1312668E+00
        -11   -1    0    0    0    0  0.00000000000E+00  0.00000000000E+00  0.45593999997E+02  0.45594000000E+02  0.51100000000E-03 0.  1.
         11   -1    0    0    0    0 -0.00000000000E+00 -0.00000000000E+00 -0.45593999997E+02  0.45594000000E+02  0.51100000000E-03 0. -1.
    9900012    2    1    2    0    0  0.37304204771E+02 -0.20409038340E+02 -0.86885531504E+01  0.47787268493E+02  0.19999988365E+02 0.  0.
         12    1    1    2    0    0 -0.37304204771E+02  0.20409038340E+02  0.86885531504E+01  0.43400731507E+02  0.00000000000E+00 0. -1.
         11    1    3    3    0    0  0.93858107567E-01  0.11069047747E+01 -0.23480400756E+01  0.25975642403E+01  0.51100000000E-03 0. -1.
        -11    1    3    3    0    0  0.25576125204E+02 -0.13891266392E+02  0.16429709538E+01  0.29151411908E+02  0.51100000000E-03 0.  1.
        -12    1    3    3    0    0  0.11634221459E+02 -0.76246767218E+01 -0.79834840286E+01  0.16038292344E+02  0.00000000000E+00 0.  1.
</event>
<event>
 7    1  0.4477737E-009  0.4778727E+02  0.7816164E-02  0.1312668E+00
        -11   -1    0    0    0    0  0.00000000000E+00  0.00000000000E+00  0.45593999997E+02  0.45594000000E+02  0.51100000000E-03 0.  1.
         11   -1    0    0    0    0 -0.00000000000E+00 -0.00000000000E+00 -0.45593999997E+02  0.45594000000E+02  0.51100000000E-03 0. -1.
    9900012    2    1    2    0    0  0.18242547844E+01 -0.16805201503E+01  0.43329801582E+02  0.47787265459E+02  0.19999974535E+02 0.  0.
         12    1    1    2    0    0 -0.18242547844E+01  0.16805201503E+01 -0.43329801582E+02  0.43400734541E+02  0.00000000000E+00 0. -1.
         11    1    3    3    0    0 -0.63710801720E+01  0.16386303597E+01  0.15523069950E+02  0.16859462415E+02  0.51100000000E-03 0. -1.
        -11    1    3    3    0    0  0.80468072985E+01 -0.37420683685E+00  0.98216174503E+01  0.12702570923E+02  0.51100000000E-03 0.  1.
         12    1    3    3    0    0  0.14852765784E+00 -0.29449436732E+01  0.17985114182E+02  0.18225232121E+02  0.00000000000E+00 0. -1.
</event>
<event>
 7    1  0.4477737E-009  0.4778727E+02  0.7816164E-02  0.1312668E+00
        -11   -1    0    0    0    0  0.00000000000E+00  0.00000000000E+00  0.45593999997E+02  0.45594000000E+02  0.51100000000E-03 0. -1.
         11   -1    0    0    0    0 -0.00000000000E+00 -0.00000000000E+00 -0.45593999997E+02  0.45594000000E+02  0.51100000000E-03 0.  1.
    9900012    2    1    2    0    0  0.29760031633E+02  0.85601635721E+01 -0.30408670210E+02  0.47787272966E+02  0.20000008759E+02 0.  0.
         12    1    1    2    0    0 -0.29760031633E+02 -0.85601635721E+01  0.30408670210E+02  0.43400727034E+02  0.00000000000E+00 0. -1.
         11    1    3    3    0    0  0.18828601347E+02  0.85086783437E+01 -0.17475043493E+02  0.27060875469E+02  0.51100000000E-03 0. -1.
        -11    1    3    3    0    0  0.41226264359E+01 -0.48068915196E+01 -0.10050205219E+02  0.11878925878E+02  0.51100000000E-03 0.  1.
        -12    1    3    3    0    0  0.68088038500E+01  0.48583767480E+01 -0.28834214983E+01  0.88474716180E+01  0.00000000000E+00 0.  1.
</event>
<event>
 7    1  0.4477737E-009  0.4778727E+02  0.7816164E-02  0.1312668E+00
        -11   -1    0    0    0    0  0.00000000000E+00  0.00000000000E+00  0.45593999997E+02  0.45594000000E+02  0.51100000000E-03 0.  1.
         11   -1    0    0    0    0 -0.00000000000E+00 -0.00000000000E+00 -0.45593999997E+02  0.45594000000E+02  0.51100000000E-03 0. -1.
    9900012    2    1    2    0    0 -0.24558884567E+01  0.39466641346E+02  0.17887882674E+02  0.47787268281E+02  0.19999987398E+02 0.  0.
         12    1    1    2    0    0  0.24558884567E+01 -0.39466641346E+02 -0.17887882674E+02  0.43400731719E+02  0.00000000000E+00 0. -1.
         11    1    3    3    0    0 -0.22243117509E+01  0.12021510205E+02 -0.26463180186E+01  0.12508687768E+02  0.51100000000E-03 0. -1.
        -11    1    3    3    0    0 -0.40992312662E+01  0.17585517132E+02  0.13819149377E+02  0.22738139755E+02  0.51100000000E-03 0.  1.
         12    1    3    3    0    0  0.38676545603E+01  0.98596140092E+01  0.67150513156E+01  0.12540440757E+02  0.00000000000E+00 0. -1.
</event>
<event>
 7    1  0.4477737E-009  0.4778727E+02  0.7816164E-02  0.1312668E+00
        -11   -1    0    0    0    0  0.00000000000E+00  0.00000000000E+00  0.45593999997E+02  0.45594000000E+02  0.51100000000E-03 0.  1.
         11   -1    0    0    0    0 -0.00000000000E+00 -0.00000000000E+00 -0.45593999997E+02  0.45594000000E+02  0.51100000000E-03 0. -1.
    9900012    2    1    2    0    0  0.31923488156E+02 -0.49270456989E+01  0.28986867805E+02  0.47787269816E+02  0.19999994398E+02 0.  0.
         12    1    1    2    0    0 -0.31923488156E+02  0.49270456989E+01 -0.28986867805E+02  0.43400730184E+02  0.00000000000E+00 0. -1.
         11    1    3    3    0    0  0.12219483623E+02  0.53363192773E+01  0.13781366284E+02  0.19175978211E+02  0.51100000000E-03 0. -1.
        -11    1    3    3    0    0  0.81129548431E+01  0.86195645228E+00  0.47082816206E+01  0.94197091936E+01  0.51100000000E-03 0.  1.
         12    1    3    3    0    0  0.11591049689E+02 -0.11125321429E+02  0.10497219901E+02  0.19191582411E+02  0.00000000000E+00 0. -1.
</event>
<event>
 7    1  0.4477737E-009  0.4778728E+02  0.7816164E-02  0.1312668E+00
        -11   -1    0    0    0    0  0.00000000000E+00  0.00000000000E+00  0.45593999997E+02  0.45594000000E+02  0.51100000000E-03 0.  1.
         11   -1    0    0    0    0 -0.00000000000E+00 -0.00000000000E+00 -0.45593999997E+02  0.45594000000E+02  0.51100000000E-03 0. -1.
    9900012    2    1    2    0    0  0.91955985399E+01  0.35064888366E+02  0.23864564141E+02  0.47787275925E+02  0.20000022251E+02 0.  0.
         12    1    1    2    0    0 -0.91955985399E+01 -0.35064888366E+02 -0.23864564141E+02  0.43400724075E+02  0.00000000000E+00 0. -1.
         11    1    3    3    0    0  0.41943286715E+01  0.19791442312E+02  0.84913359827E+01  0.21940746770E+02  0.51100000000E-03 0. -1.
        -11    1    3    3    0    0  0.94695419296E+00 -0.24334016552E+01  0.18361901056E+01  0.31921403829E+01  0.51100000000E-03 0.  1.
        -12    1    3    3    0    0  0.40543156755E+01  0.17706847709E+02  0.13537038052E+02  0.22654388772E+02  0.00000000000E+00 0.  1.
</event>
<event>
 7    1  0.4477737E-009  0.4778727E+02  0.7816164E-02  0.1312668E+00
        -11   -1    0    0    0    0  0.00000000000E+00  0.00000000000E+00  0.45593999997E+02  0.45594000000E+02  0.51100000000E-03 0.  1.
         11   -1    0    0    0    0 -0.00000000000E+00 -0.00000000000E+00 -0.45593999997E+02  0.45594000000E+02  0.51100000000E-03 0. -1.
    9900012    2    1    2    0    0  0.18738567780E+02  0.39070721177E+02  0.24430177275E+01  0.47787268309E+02  0.19999987527E+02 0.  0.
         12    1    1    2    0    0 -0.18738567780E+02 -0.39070721177E+02 -0.24430177275E+01  0.43400731691E+02  0.00000000000E+00 0. -1.
         11    1    3    3    0    0 -0.26986602570E+01  0.68744663343E+01  0.28051208253E+01  0.78999846627E+01  0.51100000000E-03 0. -1.
        -11    1    3    3    0    0  0.14358734202E+02  0.16144188553E+02  0.35956897737E+01  0.21902900656E+02  0.51100000000E-03 0.  1.
         12    1    3    3    0    0  0.70784938342E+01  0.16052066290E+02 -0.39577928715E+01  0.17984382991E+02  0.00000000000E+00 0. -1.
</event>
<event>
 7    1  0.4477737E-009  0.4778727E+02  0.7816164E-02  0.1312668E+00
        -11   -1    0    0    0    0  0.00000000000E+00  0.00000000000E+00  0.45593999997E+02  0.45594000000E+02  0.51100000000E-03 0. -1.
         11   -1    0    0    0    0 -0.00000000000E+00 -0.00000000000E+00 -0.45593999997E+02  0.45594000000E+02  0.51100000000E-03 0.  1.
    9900012    2    1    2    0    0  0.17077236824E+02  0.40074881466E+00 -0.39897748425E+02  0.47787274816E+02  0.20000017196E+02 0.  0.
         12    1    1    2    0    0 -0.17077236824E+02 -0.40074881466E+00  0.39897748425E+02  0.43400725184E+02  0.00000000000E+00 0. -1.
         11    1    3    3    0    0  0.82467899257E+01  0.64032987245E+01 -0.25107097483E+02  0.27191508287E+02  0.51100000000E-03 0. -1.
        -11    1    3    3    0    0  0.10296294984E+02 -0.70262423477E+01 -0.13596261742E+02  0.18445598541E+02  0.51100000000E-03 0.  1.
        -12    1    3    3    0    0 -0.14658480855E+01  0.10236924378E+01 -0.11943891993E+01  0.21501679879E+01  0.00000000000E+00 0.  1.
</event>
<event>
 7    1  0.4477737E-009  0.4778727E+02  0.7816164E-02  0.1312668E+00
        -11   -1    0    0    0    0  0.00000000000E+00  0.00000000000E+00  0.45593999997E+02  0.45594000000E+02  0.51100000000E-03 0. -1.
         11   -1    0    0    0    0 -0.00000000000E+00 -0.00000000000E+00 -0.45593999997E+02  0.45594000000E+02  0.51100000000E-03 0.  1.
    9900012    2    1    2    0    0  0.32069622333E+02 -0.20942377516E+02 -0.20410277308E+02  0.47787271061E+02  0.20000000076E+02 0.  0.
         12    1    1    2    0    0 -0.32069622333E+02  0.20942377516E+02  0.20410277308E+02  0.43400728939E+02  0.00000000000E+00 0. -1.
         11    1    3    3    0    0  0.56856699632E+01  0.13452648957E+01  0.15975674563E+01  0.60571282477E+01  0.51100000000E-03 0. -1.
        -11    1    3    3    0    0  0.10563922890E+02 -0.11369794101E+02 -0.14019988526E+02  0.20914797710E+02  0.51100000000E-03 0.  1.
         12    1    3    3    0    0  0.15820029480E+02 -0.10917848310E+02 -0.79878562388E+01  0.20815345103E+02  0.00000000000E+00 0. -1.
</event>
<event>
 7    1  0.4477737E-009  0.4778725E+02  0.7816164E-02  0.1312668E+00
        -11   -1    0    0    0    0  0.00000000000E+00  0.00000000000E+00  0.45593999997E+02  0.45594000000E+02  0.51100000000E-03 0. -1.
         11   -1    0    0    0    0 -0.00000000000E+00 -0.00000000000E+00 -0.45593999997E+02  0.45594000000E+02  0.51100000000E-03 0.  1.
    9900012    2    1    2    0    0  0.31622209557E+02  0.26763876360E+02 -0.12936599626E+02  0.47787253174E+02  0.19999918524E+02 0.  0.
         12    1    1    2    0    0 -0.31622209557E+02 -0.26763876360E+02  0.12936599626E+02  0.43400746826E+02  0.00000000000E+00 0. -1.
         11    1    3    3    0    0  0.64588399047E+01  0.26628218843E+01  0.25495734613E+01  0.74369051626E+01  0.51100000000E-03 0. -1.
        -11    1    3    3    0    0  0.24816343508E+02  0.21283648642E+02 -0.17293375412E+02  0.36985205664E+02  0.51100000000E-03 0.  1.
        -12    1    3    3    0    0  0.34702614482E+00  0.28174058340E+01  0.18072023245E+01  0.33651423477E+01  0.00000000000E+00 0.  1.
</event>
<event>
 7    1  0.4477737E-009  0.4778727E+02  0.7816164E-02  0.1312668E+00
        -11   -1    0    0    0    0  0.00000000000E+00  0.00000000000E+00  0.45593999997E+02  0.45594000000E+02  0.51100000000E-03 0. -1.
         11   -1    0    0    0    0 -0.00000000000E+00 -0.00000000000E+00 -0.45593999997E+02  0.45594000000E+02  0.51100000000E-03 0.  1.
    9900012    2    1    2    0    0  0.25895381537E+02  0.14232178326E+02 -0.31788322742E+02  0.47787272499E+02  0.20000006633E+02 0.  0.
         12    1    1    2    0    0 -0.25895381537E+02 -0.14232178326E+02  0.31788322742E+02  0.43400727501E+02  0.00000000000E+00 0. -1.
         11    1    3    3    0    0 -0.10633937059E+01 -0.17472012965E+01 -0.52340223127E+01  0.56194758097E+01  0.51100000000E-03 0. -1.
        -11    1    3    3    0    0  0.20631727296E+02  0.78764394214E+01 -0.14970798403E+02  0.26680166309E+02  0.51100000000E-03 0.  1.
        -12    1    3    3    0    0  0.63270479471E+01  0.81029402008E+01 -0.11583502026E+02  0.15487630381E+02  0.00000000000E+00 0.  1.
</event>
<event>
 7    1  0.4477737E-009  0.4778728E+02  0.7816164E-02  0.1312668E+00
        -11   -1    0    0    0    0  0.00000000000E+00  0.00000000000E+00  0.45593999997E+02  0.45594000000E+02  0.51100000000E-03 0.  1.
         11   -1    0    0    0    0 -0.00000000000E+00 -0.00000000000E+00 -0.45593999997E+02  0.45594000000E+02  0.51100000000E-03 0. -1.
    9900012    2    1    2    0    0  0.34965288076E+02 -0.10042007742E+02  0.23668743485E+02  0.47787277565E+02  0.20000029729E+02 0.  0.
         12    1    1    2    0    0 -0.34965288076E+02  0.10042007742E+02 -0.23668743485E+02  0.43400722435E+02  0.00000000000E+00 0. -1.
         11    1    3    3    0    0  0.29121826722E+01  0.15604158803E+01 -0.28177700632E+01  0.43422959395E+01  0.51100000000E-03 0. -1.
        -11    1    3    3    0    0  0.17642640549E+02 -0.45186635775E+01  0.11930218943E+02  0.21771798509E+02  0.51100000000E-03 0.  1.
         12    1    3    3    0    0  0.14410464855E+02 -0.70837600450E+01  0.14556294606E+02  0.21673183116E+02  0.00000000000E+00 0. -1.
</event>
<event>
 7    1  0.4477737E-009  0.4778726E+02  0.7816164E-02  0.1312668E+00
        -11   -1    0    0    0    0  0.00000000000E+00  0.00000000000E+00  0.45593999997E+02  0.45594000000E+02  0.51100000000E-03 0.  1.
         11   -1    0    0    0    0 -0.00000000000E+00 -0.00000000000E+00 -0.45593999997E+02  0.45594000000E+02  0.51100000000E-03 0. -1.
    9900012    2    1    2    0    0  0.16388344140E+02 -0.18587708370E+02  0.35630652177E+02  0.47787261519E+02  0.19999956571E+02 0.  0.
         12    1    1    2    0    0 -0.16388344140E+02  0.18587708370E+02 -0.35630652177E+02  0.43400738481E+02  0.00000000000E+00 0. -1.
         11    1    3    3    0    0  0.16794060514E+02 -0.62855110509E+01  0.23596142113E+02  0.29636565938E+02  0.51100000000E-03 0. -1.
        -11    1    3    3    0    0  0.16986868664E+01 -0.10784828096E+02  0.10436758547E+02  0.15103773812E+02  0.51100000000E-03 0.  1.
         12    1    3    3    0    0 -0.21044032408E+01 -0.15173692228E+01  0.15977515177E+01  0.30469217697E+01  0.00000000000E+00 0. -1.
</event>
<event>
 7    1  0.4477737E-009  0.4778727E+02  0.7816164E-02  0.1312668E+00
        -11   -1    0    0    0    0  0.00000000000E+00  0.00000000000E+00  0.45593999997E+02  0.45594000000E+02  0.51100000000E-03 0.  1.
         11   -1    0    0    0    0 -0.00000000000E+00 -0.00000000000E+00 -0.45593999997E+02  0.45594000000E+02  0.51100000000E-03 0. -1.
    9900012    2    1    2    0    0  0.32788632489E+02 -0.19982960633E+02  0.20228943933E+02  0.47787270642E+02  0.19999998167E+02 0.  0.
         12    1    1    2    0    0 -0.32788632489E+02  0.19982960633E+02 -0.20228943933E+02  0.43400729358E+02  0.00000000000E+00 0. -1.
         11    1    3    3    0    0  0.14904608781E+02 -0.16428003181E+02  0.18790484713E+02  0.29070757944E+02  0.51100000000E-03 0. -1.
        -11    1    3    3    0    0  0.11316893400E+02 -0.35801473961E+01 -0.46578260719E+00  0.11878825081E+02  0.51100000000E-03 0.  1.
         12    1    3    3    0    0  0.65671303076E+01  0.25189944636E-01  0.19042418269E+01  0.68376876169E+01  0.00000000000E+00 0. -1.
</event>
<event>
 7    1  0.4477737E-009  0.4778727E+02  0.7816164E-02  0.1312668E+00
        -11   -1    0    0    0    0  0.00000000000E+00  0.00000000000E+00  0.45593999997E+02  0.45594000000E+02  0.51100000000E-03 0. -1.
         11   -1    0    0    0    0 -0.00000000000E+00 -0.00000000000E+00 -0.45593999997E+02  0.45594000000E+02  0.51100000000E-03 0.  1.
    9900012    2    1    2    0    0 -0.39318507128E+02  0.15321339290E+02  0.10145680271E+02  0.47787271105E+02  0.20000000278E+02 0.  0.
         12    1    1    2    0    0  0.39318507128E+02 -0.15321339290E+02 -0.10145680271E+02  0.43400728895E+02  0.00000000000E+00 0. -1.
         11    1    3    3    0    0 -0.24936663130E+01  0.11651872242E+01  0.24678693039E+01  0.36968110732E+01  0.51100000000E-03 0. -1.
        -11    1    3    3    0    0 -0.23621431072E+02  0.15290100636E+02  0.11346843646E+02  0.30339908444E+02  0.51100000000E-03 0.  1.
        -12    1    3    3    0    0 -0.13203409743E+02 -0.11339485704E+01 -0.36690326790E+01  0.13750551589E+02  0.00000000000E+00 0.  1.
</event>
<event>
 7    1  0.4477737E-009  0.4778727E+02  0.7816164E-02  0.1312668E+00
        -11   -1    0    0    0    0  0.00000000000E+00  0.00000000000E+00  0.45593999997E+02  0.45594000000E+02  0.51100000000E-03 0.  1.
         11   -1    0    0    0    0 -0.00000000000E+00 -0.00000000000E+00 -0.45593999997E+02  0.45594000000E+02  0.51100000000E-03 0. -1.
    9900012    2    1    2    0    0 -0.36661874160E+02 -0.13041264663E+02  0.19221226998E+02  0.47787272262E+02  0.20000005549E+02 0.  0.
         12    1    1    2    0    0  0.36661874160E+02  0.13041264663E+02 -0.19221226998E+02  0.43400727738E+02  0.00000000000E+00 0. -1.
         11    1    3    3    0    0 -0.78291356248E+01 -0.70004623368E+01  0.12212449869E+02  0.16107320374E+02  0.51100000000E-03 0. -1.
        -11    1    3    3    0    0 -0.20563337645E+02 -0.18206630820E+01  0.84094216655E+01  0.22290895948E+02  0.51100000000E-03 0.  1.
         12    1    3    3    0    0 -0.82694008905E+01 -0.42201392437E+01 -0.14006445366E+01  0.93890559398E+01  0.00000000000E+00 0. -1.
</event>
<event>
 7    1  0.4477737E-009  0.4778727E+02  0.7816164E-02  0.1312668E+00
        -11   -1    0    0    0    0  0.00000000000E+00  0.00000000000E+00  0.45593999997E+02  0.45594000000E+02  0.51100000000E-03 0.  1.
         11   -1    0    0    0    0 -0.00000000000E+00 -0.00000000000E+00 -0.45593999997E+02  0.45594000000E+02  0.51100000000E-03 0. -1.
    9900012    2    1    2    0    0  0.26904366919E+02  0.60550517014E+01  0.33512902635E+02  0.47787271280E+02  0.20000001074E+02 0.  0.
         12    1    1    2    0    0 -0.26904366919E+02 -0.60550517014E+01 -0.33512902635E+02  0.43400728720E+02  0.00000000000E+00 0. -1.
         11    1    3    3    0    0  0.20992437369E+02  0.47050686738E+01  0.23385927638E+02  0.31776118543E+02  0.51100000000E-03 0.  1.
        -11    1    3    3    0    0 -0.20043396959E+01  0.31375410613E+01  0.11214124793E+01  0.38883296848E+01  0.51100000000E-03 0. -1.
         12    1    3    3    0    0  0.79162692458E+01 -0.17875580336E+01  0.90055625174E+01  0.12122823052E+02  0.00000000000E+00 0. -1.
</event>
<event>
 7    1  0.4477737E-009  0.4778727E+02  0.7816164E-02  0.1312668E+00
        -11   -1    0    0    0    0  0.00000000000E+00  0.00000000000E+00  0.45593999997E+02  0.45594000000E+02  0.51100000000E-03 0.  1.
         11   -1    0    0    0    0 -0.00000000000E+00 -0.00000000000E+00 -0.45593999997E+02  0.45594000000E+02  0.51100000000E-03 0. -1.
    9900012    2    1    2    0    0  0.37811560746E+02  0.15522116529E+02  0.14593589036E+02  0.47787273410E+02  0.20000010787E+02 0.  0.
         12    1    1    2    0    0 -0.37811560746E+02 -0.15522116529E+02 -0.14593589036E+02  0.43400726590E+02  0.00000000000E+00 0. -1.
         11    1    3    3    0    0 -0.11874034018E+01  0.46837426221E+00  0.60787712350E+00  0.14137949450E+01  0.51100000000E-03 0. -1.
        -11    1    3    3    0    0  0.35273856820E+02  0.92375108446E+01  0.82248903355E+01  0.37379478366E+02  0.51100000000E-03 0.  1.
        -12    1    3    3    0    0  0.37251073269E+01  0.58162314218E+01  0.57608215773E+01  0.89940000998E+01  0.00000000000E+00 0.  1.
</event>
<event>
 7    1  0.4477737E-009  0.4778727E+02  0.7816164E-02  0.1312668E+00
        -11   -1    0    0    0    0  0.00000000000E+00  0.00000000000E+00  0.45593999997E+02  0.45594000000E+02  0.51100000000E-03 0.  1.
         11   -1    0    0    0    0 -0.00000000000E+00 -0.00000000000E+00 -0.45593999997E+02  0.45594000000E+02  0.51100000000E-03 0. -1.
    9900012    2    1    2    0    0 -0.18326386735E+02  0.39197744632E+02  0.33620731841E+01  0.47787272228E+02  0.20000005397E+02 0.  0.
         12    1    1    2    0    0  0.18326386735E+02 -0.39197744632E+02 -0.33620731841E+01  0.43400727772E+02  0.00000000000E+00 0. -1.
         11    1    3    3    0    0 -0.43970918556E+01  0.29956799514E+02  0.39260614478E+01  0.30531266149E+02  0.51100000000E-03 0. -1.
        -11    1    3    3    0    0 -0.10704230823E+02  0.53967317804E+01  0.92092575590E+00  0.12023035221E+02  0.51100000000E-03 0.  1.
         12    1    3    3    0    0 -0.32250640568E+01  0.38442133379E+01 -0.14849140197E+01  0.52329708582E+01  0.00000000000E+00 0. -1.
</event>
<event>
 7    1  0.4477737E-009  0.4778726E+02  0.7816164E-02  0.1312668E+00
        -11   -1    0    0    0    0  0.00000000000E+00  0.00000000000E+00  0.45593999997E+02  0.45594000000E+02  0.51100000000E-03 0.  1.
         11   -1    0    0    0    0 -0.00000000000E+00 -0.00000000000E+00 -0.45593999997E+02  0.45594000000E+02  0.51100000000E-03 0. -1.
    9900012    2    1    2    0    0  0.26690864963E+02  0.14500910664E+02  0.30999121641E+02  0.47787260086E+02  0.19999950036E+02 0.  0.
         12    1    1    2    0    0 -0.26690864963E+02 -0.14500910664E+02 -0.30999121641E+02  0.43400739914E+02  0.00000000000E+00 0. -1.
         11    1    3    3    0    0  0.15714360039E+02 -0.19909882042E+01  0.11491467934E+02  0.19569337777E+02  0.51100000000E-03 0. -1.
        -11    1    3    3    0    0  0.67463831920E+01  0.10265429067E+02  0.87226466535E+01  0.15065765331E+02  0.51100000000E-03 0.  1.
         12    1    3    3    0    0  0.42301217320E+01  0.62264698012E+01  0.10785007053E+02  0.13152156979E+02  0.00000000000E+00 0. -1.
</event>
<event>
 7    1  0.4477737E-009  0.4778726E+02  0.7816164E-02  0.1312668E+00
        -11   -1    0    0    0    0  0.00000000000E+00  0.00000000000E+00  0.45593999997E+02  0.45594000000E+02  0.51100000000E-03 0.  1.
         11   -1    0    0    0    0 -0.00000000000E+00 -0.00000000000E+00 -0.45593999997E+02  0.45594000000E+02  0.51100000000E-03 0. -1.
    9900012    2    1    2    0    0 -0.15546288523E+02 -0.39574928538E+02  0.87041295159E+01  0.47787263529E+02  0.19999965735E+02 0.  0.
         12    1    1    2    0    0  0.15546288523E+02  0.39574928538E+02 -0.87041295159E+01  0.43400736471E+02  0.00000000000E+00 0. -1.
         11    1    3    3    0    0 -0.15141303725E+02 -0.19440345559E+02  0.69499382257E+01  0.25602495103E+02  0.51100000000E-03 0. -1.
        -11    1    3    3    0    0 -0.29250862617E+00 -0.21113695789E+02  0.15113555886E+01  0.21169740366E+02  0.51100000000E-03 0.  1.
        -12    1    3    3    0    0 -0.11247617209E+00  0.97911281033E+00  0.24283570163E+00  0.10150280600E+01  0.00000000000E+00 0.  1.
</event>
<event>
 7    1  0.4635224E-009  0.4778727E+02  0.7816164E-02  0.1312668E+00
        -11   -1    0    0    0    0  0.00000000000E+00  0.00000000000E+00  0.45593999997E+02  0.45594000000E+02  0.51100000000E-03 0. -1.
         11   -1    0    0    0    0 -0.00000000000E+00 -0.00000000000E+00 -0.45593999997E+02  0.45594000000E+02  0.51100000000E-03 0.  1.
    9900012    2    1    2    0    0  0.28701009155E+02  0.31773743837E+02  0.70925786829E+01  0.47787269634E+02  0.19999993569E+02 0.  0.
         12    1    1    2    0    0 -0.28701009155E+02 -0.31773743837E+02 -0.70925786829E+01  0.43400730366E+02  0.00000000000E+00 0. -1.
         11    1    3    3    0    0  0.11642174483E+02  0.75893087552E+01 -0.51570717909E+01  0.14823401222E+02  0.51100000000E-03 0.  1.
        -11    1    3    3    0    0  0.14926450525E+02  0.15986409407E+02  0.68529693264E+01  0.22920021812E+02  0.51100000000E-03 0. -1.
         12    1    3    3    0    0  0.21323841468E+01  0.81980256746E+01  0.53966811474E+01  0.10043846600E+02  0.00000000000E+00 0. -1.
</event>
<event>
 7    1  0.4477737E-009  0.4778727E+02  0.7816164E-02  0.1312668E+00
        -11   -1    0    0    0    0  0.00000000000E+00  0.00000000000E+00  0.45593999997E+02  0.45594000000E+02  0.51100000000E-03 0.  1.
         11   -1    0    0    0    0 -0.00000000000E+00 -0.00000000000E+00 -0.45593999997E+02  0.45594000000E+02  0.51100000000E-03 0. -1.
    9900012    2    1    2    0    0 -0.74466174757E+01 -0.26069763703E+02  0.33890094310E+02  0.47787272084E+02  0.20000004738E+02 0.  0.
         12    1    1    2    0    0  0.74466174757E+01  0.26069763703E+02 -0.33890094310E+02  0.43400727916E+02  0.00000000000E+00 0. -1.
         11    1    3    3    0    0 -0.74508314340E+01 -0.48646810507E+01  0.58238808300E+01  0.10634735491E+02  0.51100000000E-03 0. -1.
        -11    1    3    3    0    0  0.27075862232E+01 -0.19161073473E+02  0.17623965621E+02  0.26174069692E+02  0.51100000000E-03 0.  1.
         12    1    3    3    0    0 -0.27033722649E+01 -0.20440091790E+01  0.10442247859E+02  0.10978466900E+02  0.00000000000E+00 0. -1.
</event>
<event>
 7    1  0.4477737E-009  0.4778729E+02  0.7816164E-02  0.1312668E+00
        -11   -1    0    0    0    0  0.00000000000E+00  0.00000000000E+00  0.45593999997E+02  0.45594000000E+02  0.51100000000E-03 0.  1.
         11   -1    0    0    0    0 -0.00000000000E+00 -0.00000000000E+00 -0.45593999997E+02  0.45594000000E+02  0.51100000000E-03 0. -1.
    9900012    2    1    2    0    0  0.43242731932E+02 -0.27878848453E+01 -0.24322119326E+01  0.47787287774E+02  0.20000076277E+02 0.  0.
         12    1    1    2    0    0 -0.43242731932E+02  0.27878848453E+01  0.24322119326E+01  0.43400712226E+02  0.00000000000E+00 0. -1.
         11    1    3    3    0    0 -0.17746813378E+01  0.11780681946E+01 -0.90456643993E+00  0.23142124422E+01  0.51100000000E-03 0. -1.
        -11    1    3    3    0    0  0.18999394049E+02  0.36059769364E+00  0.59833663107E+00  0.19012233217E+02  0.51100000000E-03 0.  1.
         12    1    3    3    0    0  0.26018019221E+02 -0.43265507335E+01 -0.21259821237E+01  0.26460842114E+02  0.00000000000E+00 0. -1.
</event>
<event>
 7    1  0.4477737E-009  0.4778727E+02  0.7816164E-02  0.1312668E+00
        -11   -1    0    0    0    0  0.00000000000E+00  0.00000000000E+00  0.45593999997E+02  0.45594000000E+02  0.51100000000E-03 0. -1.
         11   -1    0    0    0    0 -0.00000000000E+00 -0.00000000000E+00 -0.45593999997E+02  0.45594000000E+02  0.51100000000E-03 0.  1.
    9900012    2    1    2    0    0  0.11447961934E+02 -0.41688280149E+02 -0.38281300487E+01  0.47787272887E+02  0.20000008403E+02 0.  0.
         12    1    1    2    0    0 -0.11447961934E+02  0.41688280149E+02  0.38281300487E+01  0.43400727113E+02  0.00000000000E+00 0. -1.
         11    1    3    3    0    0  0.54548853203E+00 -0.76030469207E+01 -0.47040562617E+01  0.89572331549E+01  0.51100000000E-03 0. -1.
        -11    1    3    3    0    0 -0.35445196691E+01 -0.38681445390E+01 -0.73737934986E+00  0.52981025307E+01  0.51100000000E-03 0.  1.
        -12    1    3    3    0    0  0.14446993071E+02 -0.30217088689E+02  0.16133055629E+01  0.33531937202E+02  0.00000000000E+00 0.  1.
</event>
<event>
 7    1  0.4477737E-009  0.4778727E+02  0.7816164E-02  0.1312668E+00
        -11   -1    0    0    0    0  0.00000000000E+00  0.00000000000E+00  0.45593999997E+02  0.45594000000E+02  0.51100000000E-03 0.  1.
         11   -1    0    0    0    0 -0.00000000000E+00 -0.00000000000E+00 -0.45593999997E+02  0.45594000000E+02  0.51100000000E-03 0. -1.
    9900012    2    1    2    0    0 -0.13193172998E+02 -0.33578852673E+02  0.24125178306E+02  0.47787269720E+02  0.19999993960E+02 0.  0.
         12    1    1    2    0    0  0.13193172998E+02  0.33578852673E+02 -0.24125178306E+02  0.43400730280E+02  0.00000000000E+00 0. -1.
         11    1    3    3    0    0 -0.56063071295E+01 -0.19022472586E+02  0.86967782600E+01  0.21654539831E+02  0.51100000000E-03 0. -1.
        -11    1    3    3    0    0 -0.39033046763E+01  0.17499093493E+01  0.21722497522E+01  0.47975659844E+01  0.51100000000E-03 0.  1.
        -12    1    3    3    0    0 -0.36835611925E+01 -0.16306289436E+02  0.13256150293E+02  0.21335163905E+02  0.00000000000E+00 0.  1.
</event>
<event>
 7    1  0.4477737E-009  0.4778727E+02  0.7816164E-02  0.1312668E+00
        -11   -1    0    0    0    0  0.00000000000E+00  0.00000000000E+00  0.45593999997E+02  0.45594000000E+02  0.51100000000E-03 0.  1.
         11   -1    0    0    0    0 -0.00000000000E+00 -0.00000000000E+00 -0.45593999997E+02  0.45594000000E+02  0.51100000000E-03 0. -1.
    9900012    2    1    2    0    0 -0.39773008863E+02 -0.14681187272E+02  0.92840600484E+01  0.47787271150E+02  0.20000000482E+02 0.  0.
         12    1    1    2    0    0  0.39773008863E+02  0.14681187272E+02 -0.92840600484E+01  0.43400728850E+02  0.00000000000E+00 0. -1.
         11    1    3    3    0    0  0.21544747127E+00  0.71213070081E+00 -0.20658511778E+01  0.21957434043E+01  0.51100000000E-03 0. -1.
        -11    1    3    3    0    0 -0.29814963704E+02 -0.10796929479E+02  0.13067145594E+02  0.34296589350E+02  0.51100000000E-03 0.  1.
         12    1    3    3    0    0 -0.10173492630E+02 -0.45963884942E+01 -0.17172343676E+01  0.11294938396E+02  0.00000000000E+00 0. -1.
</event>
<event>
 7    1  0.4477737E-009  0.4778727E+02  0.7816164E-02  0.1312668E+00
        -11   -1    0    0    0    0  0.00000000000E+00  0.00000000000E+00  0.45593999997E+02  0.45594000000E+02  0.51100000000E-03 0.  1.
         11   -1    0    0    0    0 -0.00000000000E+00 -0.00000000000E+00 -0.45593999997E+02  0.45594000000E+02  0.51100000000E-03 0. -1.
    9900012    2    1    2    0    0  0.56027007447E+01  0.35978662260E+02  0.23617130528E+02  0.47787271342E+02  0.20000001359E+02 0.  0.
         12    1    1    2    0    0 -0.56027007447E+01 -0.35978662260E+02 -0.23617130528E+02  0.43400728658E+02  0.00000000000E+00 0. -1.
         11    1    3    3    0    0  0.75352295215E+00 -0.14880612673E+00 -0.36652186510E+00  0.85104561657E+00  0.51100000000E-03 0. -1.
        -11    1    3    3    0    0  0.18199205042E+01 -0.33558648928E+00  0.57805774871E+01  0.60695803214E+01  0.51100000000E-03 0.  1.
        -12    1    3    3    0    0  0.30292572883E+01  0.36463054876E+02  0.18203074906E+02  0.40866645404E+02  0.00000000000E+00 0.  1.
</event>
<event>
 7    1  0.7863368E-009  0.4778726E+02  0.7816164E-02  0.1312668E+00
        -11   -1    0    0    0    0  0.00000000000E+00  0.00000000000E+00  0.45593999997E+02  0.45594000000E+02  0.51100000000E-03 0. -1.
         11   -1    0    0    0    0 -0.00000000000E+00 -0.00000000000E+00 -0.45593999997E+02  0.45594000000E+02  0.51100000000E-03 0.  1.
    9900012    2    1    2    0    0 -0.12361231305E+02  0.32035649540E+02 -0.26543191211E+02  0.47787264055E+02  0.19999968134E+02 0.  0.
         12    1    1    2    0    0  0.12361231305E+02 -0.32035649540E+02  0.26543191211E+02  0.43400735945E+02  0.00000000000E+00 0. -1.
         11    1    3    3    0    0 -0.90643562428E+01  0.39935298716E+01 -0.51155782544E+01  0.11148092934E+02  0.51100000000E-03 0. -1.
        -11    1    3    3    0    0 -0.49021456238E+01  0.87757598575E+01 -0.10011077791E+02  0.14186848543E+02  0.51100000000E-03 0.  1.
         12    1    3    3    0    0  0.16052705613E+01  0.19266359811E+02 -0.11416535166E+02  0.22452322578E+02  0.00000000000E+00 0. -1.
</event>
<event>
 7    1  0.4477737E-009  0.4778728E+02  0.7816164E-02  0.1312668E+00
        -11   -1    0    0    0    0  0.00000000000E+00  0.00000000000E+00  0.45593999997E+02  0.45594000000E+02  0.51100000000E-03 0.  1.
         11   -1    0    0    0    0 -0.00000000000E+00 -0.00000000000E+00 -0.45593999997E+02  0.45594000000E+02  0.51100000000E-03 0. -1.
    9900012    2    1    2    0    0 -0.13452932670E+02  0.23748388372E+01  0.41194679238E+02  0.47787275877E+02  0.20000022033E+02 0.  0.
         12    1    1    2    0    0  0.13452932670E+02 -0.23748388372E+01 -0.41194679238E+02  0.43400724123E+02  0.00000000000E+00 0. -1.
         11    1    3    3    0    0 -0.61220237187E+01  0.38827850127E+01  0.51140529416E+01  0.88717941600E+01  0.51100000000E-03 0. -1.
        -11    1    3    3    0    0  0.31648172391E+01 -0.23629514789E+01  0.11992403736E+02  0.12626058588E+02  0.51100000000E-03 0.  1.
        -12    1    3    3    0    0 -0.10495726190E+02  0.85500530343E+00  0.24088222560E+02  0.26289423129E+02  0.00000000000E+00 0.  1.
</event>
<event>
 7    1  0.4477737E-009  0.4778727E+02  0.7816164E-02  0.1312668E+00
        -11   -1    0    0    0    0  0.00000000000E+00  0.00000000000E+00  0.45593999997E+02  0.45594000000E+02  0.51100000000E-03 0.  1.
         11   -1    0    0    0    0 -0.00000000000E+00 -0.00000000000E+00 -0.45593999997E+02  0.45594000000E+02  0.51100000000E-03 0. -1.
    9900012    2    1    2    0    0 -0.26290147687E+02 -0.15825000875E+02  0.30692355577E+02  0.47787271792E+02  0.20000003410E+02 0.  0.
         12    1    1    2    0    0  0.26290147687E+02  0.15825000875E+02 -0.30692355577E+02  0.43400728208E+02  0.00000000000E+00 0. -1.
         11    1    3    3    0    0 -0.14880219624E+02 -0.16042975664E+01  0.12658350454E+02  0.19601748473E+02  0.51100000000E-03 0.  1.
        -11    1    3    3    0    0 -0.70016622061E+01 -0.11618264391E+01  0.99007496504E+01  0.12181870063E+02  0.51100000000E-03 0. -1.
         12    1    3    3    0    0 -0.44082658565E+01 -0.13058876870E+02  0.81332554728E+01  0.16003653256E+02  0.00000000000E+00 0. -1.
</event>
<event>
 7    1  0.4477737E-009  0.4778727E+02  0.7816164E-02  0.1312668E+00
        -11   -1    0    0    0    0  0.00000000000E+00  0.00000000000E+00  0.45593999997E+02  0.45594000000E+02  0.51100000000E-03 0.  1.
         11   -1    0    0    0    0 -0.00000000000E+00 -0.00000000000E+00 -0.45593999997E+02  0.45594000000E+02  0.51100000000E-03 0. -1.
    9900012    2    1    2    0    0 -0.22744785792E+02 -0.34955521398E+02  0.12017051298E+02  0.47787270987E+02  0.19999999738E+02 0.  0.
         12    1    1    2    0    0  0.22744785792E+02  0.34955521398E+02 -0.12017051298E+02  0.43400729013E+02  0.00000000000E+00 0. -1.
         11    1    3    3    0    0 -0.20299490970E+01 -0.69696108927E+01 -0.84978044869E+00  0.73087821423E+01  0.51100000000E-03 0. -1.
        -11    1    3    3    0    0 -0.13544448455E+02 -0.28093620972E+02  0.10962664464E+02  0.33058790596E+02  0.51100000000E-03 0.  1.
        -12    1    3    3    0    0 -0.71703882407E+01  0.10771046609E+00  0.19041672820E+01  0.74196982489E+01  0.00000000000E+00 0.  1.
</event>
<event>
 7    1  0.4477737E-009  0.4778727E+02  0.7816164E-02  0.1312668E+00
        -11   -1    0    0    0    0  0.00000000000E+00  0.00000000000E+00  0.45593999997E+02  0.45594000000E+02  0.51100000000E-03 0.  1.
         11   -1    0    0    0    0 -0.00000000000E+00 -0.00000000000E+00 -0.45593999997E+02  0.45594000000E+02  0.51100000000E-03 0. -1.
    9900012    2    1    2    0    0  0.16097896000E+02  0.17594659681E+02  0.36261673643E+02  0.47787270971E+02  0.19999999663E+02 0.  0.
         12    1    1    2    0    0 -0.16097896000E+02 -0.17594659681E+02 -0.36261673643E+02  0.43400729029E+02  0.00000000000E+00 0. -1.
         11    1    3    3    0    0  0.16707693948E+02  0.96813930479E+01  0.26431638002E+02  0.32733895218E+02  0.51100000000E-03 0. -1.
        -11    1    3    3    0    0 -0.24504820558E+01  0.85389762879E+01  0.58872415442E+01  0.10657325725E+02  0.51100000000E-03 0.  1.
         12    1    3    3    0    0  0.18406841079E+01 -0.62570965487E+00  0.39427940966E+01  0.43960500277E+01  0.00000000000E+00 0. -1.
</event>
<event>
 7    1  0.4477737E-009  0.4778727E+02  0.7816164E-02  0.1312668E+00
        -11   -1    0    0    0    0  0.00000000000E+00  0.00000000000E+00  0.45593999997E+02  0.45594000000E+02  0.51100000000E-03 0. -1.
         11   -1    0    0    0    0 -0.00000000000E+00 -0.00000000000E+00 -0.45593999997E+02  0.45594000000E+02  0.51100000000E-03 0.  1.
    9900012    2    1    2    0    0  0.40317235729E+02  0.16558449386E+01 -0.15981300765E+02  0.47787270820E+02  0.19999998975E+02 0.  0.
         12    1    1    2    0    0 -0.40317235729E+02 -0.16558449386E+01  0.15981300765E+02  0.43400729180E+02  0.00000000000E+00 0. -1.
         11    1    3    3    0    0  0.35248748705E+02  0.27339831806E+01 -0.75471028836E+01  0.36151178563E+02  0.51100000000E-03 0.  1.
        -11    1    3    3    0    0  0.10894748437E+01  0.18807581217E+01 -0.54044834034E+01  0.58251736168E+01  0.51100000000E-03 0. -1.
         12    1    3    3    0    0  0.39790121800E+01 -0.29588963637E+01 -0.30297144781E+01  0.58109186398E+01  0.00000000000E+00 0. -1.
</event>
<event>
 7    1  0.4477737E-009  0.4778728E+02  0.7816164E-02  0.1312668E+00
        -11   -1    0    0    0    0  0.00000000000E+00  0.00000000000E+00  0.45593999997E+02  0.45594000000E+02  0.51100000000E-03 0.  1.
         11   -1    0    0    0    0 -0.00000000000E+00 -0.00000000000E+00 -0.45593999997E+02  0.45594000000E+02  0.51100000000E-03 0. -1.
    9900012    2    1    2    0    0 -0.26568222173E+02  0.34284924909E+02 -0.15153906967E+01  0.47787275186E+02  0.20000018883E+02 0.  0.
         12    1    1    2    0    0  0.26568222173E+02 -0.34284924909E+02  0.15153906967E+01  0.43400724814E+02  0.00000000000E+00 0. -1.
         11    1    3    3    0    0 -0.24034704424E+02  0.26779596071E+02 -0.30057108714E+01  0.36108836600E+02  0.51100000000E-03 0. -1.
        -11    1    3    3    0    0 -0.48116266215E+00  0.86256725471E+01  0.26929280421E+01  0.90490665871E+01  0.51100000000E-03 0.  1.
         12    1    3    3    0    0 -0.20523550865E+01 -0.11203437092E+01 -0.12026078673E+01  0.26293719992E+01  0.00000000000E+00 0. -1.
</event>
<event>
 7    1  0.4477737E-009  0.4778727E+02  0.7816164E-02  0.1312668E+00
        -11   -1    0    0    0    0  0.00000000000E+00  0.00000000000E+00  0.45593999997E+02  0.45594000000E+02  0.51100000000E-03 0. -1.
         11   -1    0    0    0    0 -0.00000000000E+00 -0.00000000000E+00 -0.45593999997E+02  0.45594000000E+02  0.51100000000E-03 0.  1.
    9900012    2    1    2    0    0 -0.12259643983E+02  0.15151367435E+01 -0.41605636456E+02  0.47787268498E+02  0.19999988391E+02 0.  0.
         12    1    1    2    0    0  0.12259643983E+02 -0.15151367435E+01  0.41605636456E+02  0.43400731502E+02  0.00000000000E+00 0. -1.
         11    1    3    3    0    0 -0.11631549139E+01 -0.31504748530E+01 -0.45649582579E+00  0.33892196526E+01  0.51100000000E-03 0.  1.
        -11    1    3    3    0    0 -0.10043171924E+02  0.53674381826E+01 -0.41540624637E+02  0.43073172514E+02  0.51100000000E-03 0. -1.
         12    1    3    3    0    0 -0.10533171455E+01 -0.70182658616E+00  0.39148400658E+00  0.13248763314E+01  0.00000000000E+00 0. -1.
</event>
<event>
 7    1  0.4477737E-009  0.4778727E+02  0.7816164E-02  0.1312668E+00
        -11   -1    0    0    0    0  0.00000000000E+00  0.00000000000E+00  0.45593999997E+02  0.45594000000E+02  0.51100000000E-03 0.  1.
         11   -1    0    0    0    0 -0.00000000000E+00 -0.00000000000E+00 -0.45593999997E+02  0.45594000000E+02  0.51100000000E-03 0. -1.
    9900012    2    1    2    0    0  0.23525116008E+02  0.28917197099E+02  0.22225836481E+02  0.47787272143E+02  0.20000005008E+02 0.  0.
         12    1    1    2    0    0 -0.23525116008E+02 -0.28917197099E+02 -0.22225836481E+02  0.43400727857E+02  0.00000000000E+00 0. -1.
         11    1    3    3    0    0  0.63838720071E+01 -0.12261358711E+01  0.46928849907E+01  0.80175058949E+01  0.51100000000E-03 0. -1.
        -11    1    3    3    0    0  0.73242004057E+01  0.21141448717E+02  0.10753916095E+02  0.24824412925E+02  0.51100000000E-03 0.  1.
        -12    1    3    3    0    0  0.98170435952E+01  0.90018842533E+01  0.67790353952E+01  0.14945353323E+02  0.00000000000E+00 0.  1.
</event>
<event>
 7    1  0.4477737E-009  0.4778727E+02  0.7816164E-02  0.1312668E+00
        -11   -1    0    0    0    0  0.00000000000E+00  0.00000000000E+00  0.45593999997E+02  0.45594000000E+02  0.51100000000E-03 0.  1.
         11   -1    0    0    0    0 -0.00000000000E+00 -0.00000000000E+00 -0.45593999997E+02  0.45594000000E+02  0.51100000000E-03 0. -1.
    9900012    2    1    2    0    0  0.27936330069E+01 -0.27548539847E+02  0.33420008968E+02  0.47787269217E+02  0.19999991668E+02 0.  0.
         12    1    1    2    0    0 -0.27936330069E+01  0.27548539847E+02 -0.33420008968E+02  0.43400730783E+02  0.00000000000E+00 0. -1.
         11    1    3    3    0    0  0.19490176541E+01 -0.24298834803E+01  0.14866300392E+02  0.15189137275E+02  0.51100000000E-03 0. -1.
        -11    1    3    3    0    0 -0.31677436094E+01 -0.19885609198E+02  0.14984353511E+02  0.25099858628E+02  0.51100000000E-03 0.  1.
         12    1    3    3    0    0  0.40123589621E+01 -0.52330471689E+01  0.35693550644E+01  0.74982733138E+01  0.00000000000E+00 0. -1.
</event>
<event>
 7    1  0.4477737E-009  0.4778727E+02  0.7816164E-02  0.1312668E+00
        -11   -1    0    0    0    0  0.00000000000E+00  0.00000000000E+00  0.45593999997E+02  0.45594000000E+02  0.51100000000E-03 0.  1.
         11   -1    0    0    0    0 -0.00000000000E+00 -0.00000000000E+00 -0.45593999997E+02  0.45594000000E+02  0.51100000000E-03 0. -1.
    9900012    2    1    2    0    0 -0.32294311827E+01  0.50716785815E+01  0.42982229204E+02  0.47787272164E+02  0.20000005102E+02 0.  0.
         12    1    1    2    0    0  0.32294311827E+01 -0.50716785815E+01 -0.42982229204E+02  0.43400727836E+02  0.00000000000E+00 0. -1.
         11    1    3    3    0    0  0.36355866510E+00 -0.72134589040E+01  0.96096653683E+01  0.12021307459E+02  0.51100000000E-03 0. -1.
        -11    1    3    3    0    0 -0.24261351644E+01  0.91792970344E+01  0.26067971542E+02  0.27743193155E+02  0.51100000000E-03 0.  1.
         12    1    3    3    0    0 -0.11668546834E+01  0.31058404511E+01  0.73045922939E+01  0.80227715497E+01  0.00000000000E+00 0. -1.
</event>
<event>
 7    1  0.4477737E-009  0.4778729E+02  0.7816164E-02  0.1312668E+00
        -11   -1    0    0    0    0  0.00000000000E+00  0.00000000000E+00  0.45593999997E+02  0.45594000000E+02  0.51100000000E-03 0.  1.
         11   -1    0    0    0    0 -0.00000000000E+00 -0.00000000000E+00 -0.45593999997E+02  0.45594000000E+02  0.51100000000E-03 0. -1.
    9900012    2    1    2    0    0 -0.37720433305E+02 -0.82277178411E+01  0.19826638174E+02  0.47787285595E+02  0.20000066340E+02 0.  0.
         12    1    1    2    0    0  0.37720433305E+02  0.82277178411E+01 -0.19826638174E+02  0.43400714405E+02  0.00000000000E+00 0. -1.
         11    1    3    3    0    0 -0.70545543602E+01  0.25892764163E+01  0.60788883012E+01  0.96656077316E+01  0.51100000000E-03 0. -1.
        -11    1    3    3    0    0 -0.51013873344E+01 -0.68801762833E+01 -0.52151631562E+00  0.85809648615E+01  0.51100000000E-03 0.  1.
        -12    1    3    3    0    0 -0.25564491611E+02 -0.39368179741E+01  0.14269266188E+02  0.29540713001E+02  0.00000000000E+00 0.  1.
</event>
<event>
 7    1  0.4477737E-009  0.4778727E+02  0.7816164E-02  0.1312668E+00
        -11   -1    0    0    0    0  0.00000000000E+00  0.00000000000E+00  0.45593999997E+02  0.45594000000E+02  0.51100000000E-03 0.  1.
         11   -1    0    0    0    0 -0.00000000000E+00 -0.00000000000E+00 -0.45593999997E+02  0.45594000000E+02  0.51100000000E-03 0. -1.
    9900012    2    1    2    0    0 -0.38217462987E+02 -0.17011176415E+02  0.11561529434E+02  0.47787267714E+02  0.19999984814E+02 0.  0.
         12    1    1    2    0    0  0.38217462987E+02  0.17011176415E+02 -0.11561529434E+02  0.43400732286E+02  0.00000000000E+00 0. -1.
         11    1    3    3    0    0 -0.99795951947E+01 -0.97433154489E+01  0.89241914388E+01  0.16557950033E+02  0.51100000000E-03 0. -1.
        -11    1    3    3    0    0 -0.23310389521E+01 -0.37083570409E+01  0.25711394093E+01  0.50790168992E+01  0.51100000000E-03 0.  1.
         12    1    3    3    0    0 -0.25906828840E+02 -0.35595039248E+01  0.66198585766E-01  0.26150300782E+02  0.00000000000E+00 0. -1.
</event>
<event>
 7    1  0.4477737E-009  0.4778727E+02  0.7816164E-02  0.1312668E+00
        -11   -1    0    0    0    0  0.00000000000E+00  0.00000000000E+00  0.45593999997E+02  0.45594000000E+02  0.51100000000E-03 0. -1.
         11   -1    0    0    0    0 -0.00000000000E+00 -0.00000000000E+00 -0.45593999997E+02  0.45594000000E+02  0.51100000000E-03 0.  1.
    9900012    2    1    2    0    0 -0.36854457670E+02 -0.22910120314E+02 -0.70634442781E+00  0.47787267456E+02  0.19999983637E+02 0.  0.
         12    1    1    2    0    0  0.36854457670E+02  0.22910120314E+02  0.70634442781E+00  0.43400732544E+02  0.00000000000E+00 0. -1.
         11    1    3    3    0    0 -0.16757010862E+02 -0.14852230602E+02  0.76579061830E+01  0.23664946530E+02  0.51100000000E-03 0. -1.
        -11    1    3    3    0    0 -0.18093936502E+02 -0.91948082570E+01 -0.71537047458E+01  0.21520002994E+02  0.51100000000E-03 0.  1.
         12    1    3    3    0    0 -0.20035103056E+01  0.11369185454E+01 -0.12105458650E+01  0.26023179311E+01  0.00000000000E+00 0. -1.
</event>
<event>
 7    1  0.4477737E-009  0.4778728E+02  0.7816164E-02  0.1312668E+00
        -11   -1    0    0    0    0  0.00000000000E+00  0.00000000000E+00  0.45593999997E+02  0.45594000000E+02  0.51100000000E-03 0.  1.
         11   -1    0    0    0    0 -0.00000000000E+00 -0.00000000000E+00 -0.45593999997E+02  0.45594000000E+02  0.51100000000E-03 0. -1.
    9900012    2    1    2    0    0 -0.21556953368E+02 -0.46976395401E+01  0.37374488894E+02  0.47787280239E+02  0.20000041919E+02 0.  0.
         12    1    1    2    0    0  0.21556953368E+02  0.46976395401E+01 -0.37374488894E+02  0.43400719761E+02  0.00000000000E+00 0. -1.
         11    1    3    3    0    0 -0.90760992565E+01  0.58428211380E+01  0.89202775410E+01  0.14003052818E+02  0.51100000000E-03 0. -1.
        -11    1    3    3    0    0 -0.30551441746E+01 -0.48658640703E+01  0.16808673469E+02  0.17763503121E+02  0.51100000000E-03 0.  1.
        -12    1    3    3    0    0 -0.94257099367E+01 -0.56745966078E+01  0.11645537884E+02  0.16020724299E+02  0.00000000000E+00 0.  1.
</event>
<event>
 7    1  0.4477737E-009  0.4778727E+02  0.7816164E-02  0.1312668E+00
        -11   -1    0    0    0    0  0.00000000000E+00  0.00000000000E+00  0.45593999997E+02  0.45594000000E+02  0.51100000000E-03 0.  1.
         11   -1    0    0    0    0 -0.00000000000E+00 -0.00000000000E+00 -0.45593999997E+02  0.45594000000E+02  0.51100000000E-03 0. -1.
    9900012    2    1    2    0    0 -0.11367189086E+02  0.19447301564E+02  0.37097340414E+02  0.47787271992E+02  0.20000004321E+02 0.  0.
         12    1    1    2    0    0  0.11367189086E+02 -0.19447301564E+02 -0.37097340414E+02  0.43400728008E+02  0.00000000000E+00 0. -1.
         11    1    3    3    0    0 -0.11910784073E+02  0.17855478691E+01  0.12412355006E+02  0.17295129819E+02  0.51100000000E-03 0. -1.
        -11    1    3    3    0    0  0.40023285708E+00  0.15771288377E+02  0.23323179797E+02  0.28157848631E+02  0.51100000000E-03 0.  1.
         12    1    3    3    0    0  0.14336212918E+00  0.18904653178E+01  0.13618056113E+01  0.23342935422E+01  0.00000000000E+00 0. -1.
</event>
<event>
 7    1  0.4477737E-009  0.4778727E+02  0.7816164E-02  0.1312668E+00
        -11   -1    0    0    0    0  0.00000000000E+00  0.00000000000E+00  0.45593999997E+02  0.45594000000E+02  0.51100000000E-03 0. -1.
         11   -1    0    0    0    0 -0.00000000000E+00 -0.00000000000E+00 -0.45593999997E+02  0.45594000000E+02  0.51100000000E-03 0.  1.
    9900012    2    1    2    0    0  0.25786757030E+02 -0.16857965906E+02 -0.30569194990E+02  0.47787268037E+02  0.19999986286E+02 0.  0.
         12    1    1    2    0    0 -0.25786757030E+02  0.16857965906E+02  0.30569194990E+02  0.43400731963E+02  0.00000000000E+00 0. -1.
         11    1    3    3    0    0  0.27113225553E+02 -0.18521436953E+02 -0.26528590458E+02  0.42212992533E+02  0.51100000000E-03 0. -1.
        -11    1    3    3    0    0 -0.15513972260E+01 -0.51245992819E+00 -0.14586432433E+01  0.21902257653E+01  0.51100000000E-03 0.  1.
         12    1    3    3    0    0  0.22492870378E+00  0.21759309757E+01 -0.25819612887E+01  0.33840497380E+01  0.00000000000E+00 0. -1.
</event>
<event>
 7    1  0.4477737E-009  0.4778727E+02  0.7816164E-02  0.1312668E+00
        -11   -1    0    0    0    0  0.00000000000E+00  0.00000000000E+00  0.45593999997E+02  0.45594000000E+02  0.51100000000E-03 0. -1.
         11   -1    0    0    0    0 -0.00000000000E+00 -0.00000000000E+00 -0.45593999997E+02  0.45594000000E+02  0.51100000000E-03 0.  1.
    9900012    2    1    2    0    0 -0.31679009652E+02 -0.24331596587E+02 -0.16971647356E+02  0.47787273520E+02  0.20000011286E+02 0.  0.
         12    1    1    2    0    0  0.31679009652E+02  0.24331596587E+02  0.16971647356E+02  0.43400726480E+02  0.00000000000E+00 0. -1.
         11    1    3    3    0    0 -0.77775981023E+01 -0.60942530848E+01 -0.11034110644E+02  0.14811568144E+02  0.51100000000E-03 0. -1.
        -11    1    3    3    0    0 -0.57902087692E+01 -0.62431056139E+01 -0.72923402519E+01  0.11210758757E+02  0.51100000000E-03 0.  1.
         12    1    3    3    0    0 -0.18111202781E+02 -0.11994237889E+02  0.13548035403E+01  0.21764946619E+02  0.00000000000E+00 0. -1.
</event>
<event>
 7    1  0.4477737E-009  0.4778727E+02  0.7816164E-02  0.1312668E+00
        -11   -1    0    0    0    0  0.00000000000E+00  0.00000000000E+00  0.45593999997E+02  0.45594000000E+02  0.51100000000E-03 0.  1.
         11   -1    0    0    0    0 -0.00000000000E+00 -0.00000000000E+00 -0.45593999997E+02  0.45594000000E+02  0.51100000000E-03 0. -1.
    9900012    2    1    2    0    0 -0.25045663286E+02  0.99356051891E+01  0.34023841404E+02  0.47787270930E+02  0.19999999480E+02 0.  0.
         12    1    1    2    0    0  0.25045663286E+02 -0.99356051891E+01 -0.34023841404E+02  0.43400729070E+02  0.00000000000E+00 0. -1.
         11    1    3    3    0    0 -0.23426243324E+01  0.40803865937E+01  0.42746351463E+01  0.63568820511E+01  0.51100000000E-03 0. -1.
        -11    1    3    3    0    0 -0.10753216921E+02  0.82642803347E+01  0.24815382379E+02  0.28279554566E+02  0.51100000000E-03 0.  1.
        -12    1    3    3    0    0 -0.11949822032E+02 -0.24090617392E+01  0.49338238786E+01  0.13150834313E+02  0.00000000000E+00 0.  1.
</event>
<event>
 7    1  0.4477737E-009  0.4778727E+02  0.7816164E-02  0.1312668E+00
        -11   -1    0    0    0    0  0.00000000000E+00  0.00000000000E+00  0.45593999997E+02  0.45594000000E+02  0.51100000000E-03 0. -1.
         11   -1    0    0    0    0 -0.00000000000E+00 -0.00000000000E+00 -0.45593999997E+02  0.45594000000E+02  0.51100000000E-03 0.  1.
    9900012    2    1    2    0    0  0.12090893965E+02 -0.26340557712E+02 -0.32304932832E+02  0.47787269790E+02  0.19999994282E+02 0.  0.
         12    1    1    2    0    0 -0.12090893965E+02  0.26340557712E+02  0.32304932832E+02  0.43400730210E+02  0.00000000000E+00 0. -1.
         11    1    3    3    0    0  0.94980528364E+01 -0.11608459300E+02 -0.93093679981E+01  0.17653148948E+02  0.51100000000E-03 0. -1.
        -11    1    3    3    0    0  0.15232993286E+01 -0.11680448954E+01 -0.13273298100E+02  0.13411383689E+02  0.51100000000E-03 0.  1.
        -12    1    3    3    0    0  0.10695417998E+01 -0.13564053516E+02 -0.97222667339E+01  0.16722737153E+02  0.00000000000E+00 0.  1.
</event>
<event>
 7    1  0.4477737E-009  0.4778727E+02  0.7816164E-02  0.1312668E+00
        -11   -1    0    0    0    0  0.00000000000E+00  0.00000000000E+00  0.45593999997E+02  0.45594000000E+02  0.51100000000E-03 0.  1.
         11   -1    0    0    0    0 -0.00000000000E+00 -0.00000000000E+00 -0.45593999997E+02  0.45594000000E+02  0.51100000000E-03 0. -1.
    9900012    2    1    2    0    0 -0.35918339951E+02  0.77090767996E+01  0.23109879427E+02  0.47787268012E+02  0.19999986175E+02 0.  0.
         12    1    1    2    0    0  0.35918339951E+02 -0.77090767996E+01 -0.23109879427E+02  0.43400731988E+02  0.00000000000E+00 0. -1.
         11    1    3    3    0    0 -0.29589601416E+01  0.35540210639E+01  0.28738067431E+01  0.54447475883E+01  0.51100000000E-03 0. -1.
        -11    1    3    3    0    0 -0.11076849780E+02  0.30306551916E+01  0.16518166053E+02  0.20117934336E+02  0.51100000000E-03 0.  1.
        -12    1    3    3    0    0 -0.21882530029E+02  0.11244005441E+01  0.37179066310E+01  0.22224586088E+02  0.00000000000E+00 0.  1.
</event>
<event>
 7    1  0.4477737E-009  0.4778727E+02  0.7816164E-02  0.1312668E+00
        -11   -1    0    0    0    0  0.00000000000E+00  0.00000000000E+00  0.45593999997E+02  0.45594000000E+02  0.51100000000E-03 0.  1.
         11   -1    0    0    0    0 -0.00000000000E+00 -0.00000000000E+00 -0.45593999997E+02  0.45594000000E+02  0.51100000000E-03 0. -1.
    9900012    2    1    2    0    0  0.13941031117E+02 -0.31390385235E+02  0.26531399317E+02  0.47787265173E+02  0.19999973230E+02 0.  0.
         12    1    1    2    0    0 -0.13941031117E+02  0.31390385235E+02 -0.26531399317E+02  0.43400734827E+02  0.00000000000E+00 0. -1.
         11    1    3    3    0    0  0.73730039557E+01 -0.40723093926E+01 -0.10422852035E+00  0.84235239042E+01  0.51100000000E-03 0. -1.
        -11    1    3    3    0    0  0.12369456065E+01 -0.17837860997E+02  0.14127982893E+02  0.22788576530E+02  0.51100000000E-03 0.  1.
        -12    1    3    3    0    0  0.53310815551E+01 -0.94802148454E+01  0.12507644944E+02  0.16575164739E+02  0.00000000000E+00 0.  1.
</event>
<event>
 7    1  0.4970557E-009  0.4778727E+02  0.7816164E-02  0.1312668E+00
        -11   -1    0    0    0    0  0.00000000000E+00  0.00000000000E+00  0.45593999997E+02  0.45594000000E+02  0.51100000000E-03 0. -1.
         11   -1    0    0    0    0 -0.00000000000E+00 -0.00000000000E+00 -0.45593999997E+02  0.45594000000E+02  0.51100000000E-03 0.  1.
    9900012    2    1    2    0    0 -0.42192086236E+02  0.10150310191E+02  0.64972282792E+00  0.47787273305E+02  0.20000010306E+02 0.  0.
         12    1    1    2    0    0  0.42192086236E+02 -0.10150310191E+02 -0.64972282792E+00  0.43400726695E+02  0.00000000000E+00 0. -1.
         11    1    3    3    0    0 -0.34738255650E+01 -0.27493175404E+01  0.38961726191E+01  0.58996925626E+01  0.51100000000E-03 0. -1.
        -11    1    3    3    0    0 -0.33047703492E+02  0.79527969909E+01 -0.89216341828E+00  0.34002847556E+02  0.51100000000E-03 0.  1.
         12    1    3    3    0    0 -0.56705571792E+01  0.49468307402E+01 -0.23542863729E+01  0.78847331864E+01  0.00000000000E+00 0. -1.
</event>
<event>
 7    1  0.4477737E-009  0.4778727E+02  0.7816164E-02  0.1312668E+00
        -11   -1    0    0    0    0  0.00000000000E+00  0.00000000000E+00  0.45593999997E+02  0.45594000000E+02  0.51100000000E-03 0.  1.
         11   -1    0    0    0    0 -0.00000000000E+00 -0.00000000000E+00 -0.45593999997E+02  0.45594000000E+02  0.51100000000E-03 0. -1.
    9900012    2    1    2    0    0 -0.55055556515E+01  0.14899774006E+02  0.40389461127E+02  0.47787274446E+02  0.20000015511E+02 0.  0.
         12    1    1    2    0    0  0.55055556515E+01 -0.14899774006E+02 -0.40389461127E+02  0.43400725554E+02  0.00000000000E+00 0. -1.
         11    1    3    3    0    0 -0.34726186067E+01  0.74609800716E+01  0.26882234134E+01  0.86574735921E+01  0.51100000000E-03 0. -1.
        -11    1    3    3    0    0 -0.32705707982E+01  0.39519386731E+01  0.10587355552E+02  0.11764631335E+02  0.51100000000E-03 0.  1.
         12    1    3    3    0    0  0.12376337534E+01  0.34868552618E+01  0.27113882162E+02  0.27365169519E+02  0.00000000000E+00 0. -1.
</event>
<event>
 7    1  0.4477737E-009  0.4778727E+02  0.7816164E-02  0.1312668E+00
        -11   -1    0    0    0    0  0.00000000000E+00  0.00000000000E+00  0.45593999997E+02  0.45594000000E+02  0.51100000000E-03 0.  1.
         11   -1    0    0    0    0 -0.00000000000E+00 -0.00000000000E+00 -0.45593999997E+02  0.45594000000E+02  0.51100000000E-03 0. -1.
    9900012    2    1    2    0    0  0.21230925501E+02 -0.18117306886E+02  0.33236040408E+02  0.47787269724E+02  0.19999993980E+02 0.  0.
         12    1    1    2    0    0 -0.21230925501E+02  0.18117306886E+02 -0.33236040408E+02  0.43400730276E+02  0.00000000000E+00 0. -1.
         11    1    3    3    0    0  0.64389394467E+00 -0.10904139410E+01  0.61580126010E+00  0.14081240811E+01  0.51100000000E-03 0. -1.
        -11    1    3    3    0    0  0.11790349808E+01  0.39111757759E+01  0.65382183374E+01  0.77094564481E+01  0.51100000000E-03 0.  1.
        -12    1    3    3    0    0  0.19407996576E+02 -0.20938068721E+02  0.26082020811E+02  0.38669689195E+02  0.00000000000E+00 0.  1.
</event>
<event>
 7    1  0.4477737E-009  0.4778727E+02  0.7816164E-02  0.1312668E+00
        -11   -1    0    0    0    0  0.00000000000E+00  0.00000000000E+00  0.45593999997E+02  0.45594000000E+02  0.51100000000E-03 0. -1.
         11   -1    0    0    0    0 -0.00000000000E+00 -0.00000000000E+00 -0.45593999997E+02  0.45594000000E+02  0.51100000000E-03 0.  1.
    9900012    2    1    2    0    0 -0.22184197794E+02  0.24316168181E+01 -0.37223277070E+02  0.47787265582E+02  0.19999975096E+02 0.  0.
         12    1    1    2    0    0  0.22184197794E+02 -0.24316168181E+01  0.37223277070E+02  0.43400734418E+02  0.00000000000E+00 0. -1.
         11    1    3    3    0    0 -0.91469374262E+01  0.45467201214E+01 -0.39342579795E+01  0.10946118684E+02  0.51100000000E-03 0. -1.
        -11    1    3    3    0    0 -0.46798867418E+01 -0.20771663103E+01 -0.23111657948E+02  0.23672023428E+02  0.51100000000E-03 0.  1.
         12    1    3    3    0    0 -0.83573736263E+01 -0.37936992938E-01 -0.10177361143E+02  0.13169123470E+02  0.00000000000E+00 0. -1.
</event>
<event>
 7    1  0.4477737E-009  0.4778727E+02  0.7816164E-02  0.1312668E+00
        -11   -1    0    0    0    0  0.00000000000E+00  0.00000000000E+00  0.45593999997E+02  0.45594000000E+02  0.51100000000E-03 0.  1.
         11   -1    0    0    0    0 -0.00000000000E+00 -0.00000000000E+00 -0.45593999997E+02  0.45594000000E+02  0.51100000000E-03 0. -1.
    9900012    2    1    2    0    0  0.12477908665E+02  0.33755744804E+02  0.24258492118E+02  0.47787274755E+02  0.20000016917E+02 0.  0.
         12    1    1    2    0    0 -0.12477908665E+02 -0.33755744804E+02 -0.24258492118E+02  0.43400725245E+02  0.00000000000E+00 0. -1.
         11    1    3    3    0    0  0.56598389095E+01  0.10337727661E+01  0.51945698363E+01  0.77515171843E+01  0.51100000000E-03 0. -1.
        -11    1    3    3    0    0 -0.13106611484E+01  0.20341583112E+02  0.10540186295E+02  0.22947622177E+02  0.51100000000E-03 0.  1.
        -12    1    3    3    0    0  0.81287309043E+01  0.12380388926E+02  0.85237359865E+01  0.17088135394E+02  0.00000000000E+00 0.  1.
</event>
<event>
 7    1  0.4477737E-009  0.4778728E+02  0.7816164E-02  0.1312668E+00
        -11   -1    0    0    0    0  0.00000000000E+00  0.00000000000E+00  0.45593999997E+02  0.45594000000E+02  0.51100000000E-03 0.  1.
         11   -1    0    0    0    0 -0.00000000000E+00 -0.00000000000E+00 -0.45593999997E+02  0.45594000000E+02  0.51100000000E-03 0. -1.
    9900012    2    1    2    0    0  0.80627262653E+01  0.32457164865E+02  0.27661302213E+02  0.47787277125E+02  0.20000027725E+02 0.  0.
         12    1    1    2    0    0 -0.80627262653E+01 -0.32457164865E+02 -0.27661302213E+02  0.43400722875E+02  0.00000000000E+00 0. -1.
         11    1    3    3    0    0  0.72544715795E+00  0.73968486740E+00 -0.11050624223E+01  0.15147839781E+01  0.51100000000E-03 0. -1.
        -11    1    3    3    0    0  0.36088599984E+00  0.10732242133E+02  0.10131456747E+01  0.10785996677E+02  0.51100000000E-03 0.  1.
        -12    1    3    3    0    0  0.69763931075E+01  0.20985237865E+02  0.27753218961E+02  0.35486496470E+02  0.00000000000E+00 0.  1.
</event>
<event>
 7    1  0.4477737E-009  0.4778730E+02  0.7816164E-02  0.1312668E+00
        -11   -1    0    0    0    0  0.00000000000E+00  0.00000000000E+00  0.45593999997E+02  0.45594000000E+02  0.51100000000E-03 0. -1.
         11   -1    0    0    0    0 -0.00000000000E+00 -0.00000000000E+00 -0.45593999997E+02  0.45594000000E+02  0.51100000000E-03 0.  1.
    9900012    2    1    2    0    0  0.33076112857E+02  0.27710993881E+02 -0.46575068196E+01  0.47787299621E+02  0.20000130291E+02 0.  0.
         12    1    1    2    0    0 -0.33076112857E+02 -0.27710993881E+02  0.46575068196E+01  0.43400700379E+02  0.00000000000E+00 0. -1.
         11    1    3    3    0    0 -0.58308216579E+00  0.63809233099E+00  0.50537015370E+00  0.10012721350E+01  0.51100000000E-03 0.  1.
        -11    1    3    3    0    0  0.11883586447E+02  0.16569793265E+02  0.42731236249E+01  0.20833560941E+02  0.51100000000E-03 0. -1.
        -12    1    3    3    0    0  0.21775608575E+02  0.10503108286E+02 -0.94360005983E+01  0.25952466545E+02  0.00000000000E+00 0.  1.
</event>
<event>
 7    1  0.4477737E-009  0.4778727E+02  0.7816164E-02  0.1312668E+00
        -11   -1    0    0    0    0  0.00000000000E+00  0.00000000000E+00  0.45593999997E+02  0.45594000000E+02  0.51100000000E-03 0.  1.
         11   -1    0    0    0    0 -0.00000000000E+00 -0.00000000000E+00 -0.45593999997E+02  0.45594000000E+02  0.51100000000E-03 0. -1.
    9900012    2    1    2    0    0  0.10061212533E+02 -0.40103187838E+01  0.42027523624E+02  0.47787269633E+02  0.19999993566E+02 0.  0.
         12    1    1    2    0    0 -0.10061212533E+02  0.40103187838E+01 -0.42027523624E+02  0.43400730367E+02  0.00000000000E+00 0. -1.
         11    1    3    3    0    0  0.29720714083E+00 -0.76055195742E+01  0.13888352483E+02  0.15837253393E+02  0.51100000000E-03 0. -1.
        -11    1    3    3    0    0  0.10133519893E+02  0.46016259467E+01  0.14549178848E+02  0.18317799873E+02  0.51100000000E-03 0.  1.
        -12    1    3    3    0    0 -0.36951450058E+00 -0.10064251563E+01  0.13589992293E+02  0.13632216367E+02  0.00000000000E+00 0.  1.
</event>
<event>
 7    1  0.4477737E-009  0.4778727E+02  0.7816164E-02  0.1312668E+00
        -11   -1    0    0    0    0  0.00000000000E+00  0.00000000000E+00  0.45593999997E+02  0.45594000000E+02  0.51100000000E-03 0.  1.
         11   -1    0    0    0    0 -0.00000000000E+00 -0.00000000000E+00 -0.45593999997E+02  0.45594000000E+02  0.51100000000E-03 0. -1.
    9900012    2    1    2    0    0 -0.18666837636E+02 -0.38924206945E+02  0.44809113031E+01  0.47787270977E+02  0.19999999692E+02 0.  0.
         12    1    1    2    0    0  0.18666837636E+02  0.38924206945E+02 -0.44809113031E+01  0.43400729023E+02  0.00000000000E+00 0. -1.
         11    1    3    3    0    0 -0.11526829676E+02 -0.22991475182E+02 -0.58520529539E+01  0.26376547489E+02  0.51100000000E-03 0. -1.
        -11    1    3    3    0    0  0.18454714321E-01 -0.14933261772E+01  0.36865609437E+01  0.39775740723E+01  0.51100000000E-03 0.  1.
         12    1    3    3    0    0 -0.71584626739E+01 -0.14439405586E+02  0.66464033133E+01  0.17433149416E+02  0.00000000000E+00 0. -1.
</event>
<event>
 7    1  0.4477737E-009  0.4778727E+02  0.7816164E-02  0.1312668E+00
        -11   -1    0    0    0    0  0.00000000000E+00  0.00000000000E+00  0.45593999997E+02  0.45594000000E+02  0.51100000000E-03 0. -1.
         11   -1    0    0    0    0 -0.00000000000E+00 -0.00000000000E+00 -0.45593999997E+02  0.45594000000E+02  0.51100000000E-03 0.  1.
    9900012    2    1    2    0    0 -0.36004589881E+02 -0.13927753206E+01 -0.24194066366E+02  0.47787272323E+02  0.20000005829E+02 0.  0.
         12    1    1    2    0    0  0.36004589881E+02  0.13927753206E+01  0.24194066366E+02  0.43400727677E+02  0.00000000000E+00 0. -1.
         11    1    3    3    0    0 -0.11656476791E+02 -0.13079076678E+01 -0.53037919747E+01  0.12873005990E+02  0.51100000000E-03 0. -1.
        -11    1    3    3    0    0 -0.19393329762E+02 -0.70579095668E+01 -0.11596022851E+02  0.23672411642E+02  0.51100000000E-03 0.  1.
        -12    1    3    3    0    0 -0.49547833274E+01  0.69730419140E+01 -0.72942515400E+01  0.11241854691E+02  0.00000000000E+00 0.  1.
</event>
<event>
 7    1  0.4477737E-009  0.4778727E+02  0.7816164E-02  0.1312668E+00
        -11   -1    0    0    0    0  0.00000000000E+00  0.00000000000E+00  0.45593999997E+02  0.45594000000E+02  0.51100000000E-03 0.  1.
         11   -1    0    0    0    0 -0.00000000000E+00 -0.00000000000E+00 -0.45593999997E+02  0.45594000000E+02  0.51100000000E-03 0. -1.
    9900012    2    1    2    0    0  0.22750038562E+02  0.95241734298E+01  0.35712027228E+02  0.47787273937E+02  0.20000013187E+02 0.  0.
         12    1    1    2    0    0 -0.22750038562E+02 -0.95241734298E+01 -0.35712027228E+02  0.43400726063E+02  0.00000000000E+00 0. -1.
         11    1    3    3    0    0  0.16667001170E+01  0.11170510565E+00 -0.17205960058E+00  0.16792772487E+01  0.51100000000E-03 0. -1.
        -11    1    3    3    0    0  0.15003763481E+02  0.11792746518E+02  0.15137330415E+02  0.24358172374E+02  0.51100000000E-03 0.  1.
        -12    1    3    3    0    0  0.60795749638E+01 -0.23802781941E+01  0.20746756413E+02  0.21749824314E+02  0.00000000000E+00 0.  1.
</event>
<event>
 7    1  0.4477737E-009  0.4778728E+02  0.7816164E-02  0.1312668E+00
        -11   -1    0    0    0    0  0.00000000000E+00  0.00000000000E+00  0.45593999997E+02  0.45594000000E+02  0.51100000000E-03 0.  1.
         11   -1    0    0    0    0 -0.00000000000E+00 -0.00000000000E+00 -0.45593999997E+02  0.45594000000E+02  0.51100000000E-03 0. -1.
    9900012    2    1    2    0    0  0.21896426479E+02 -0.15805200829E+02  0.33975942609E+02  0.47787279476E+02  0.20000038442E+02 0.  0.
         12    1    1    2    0    0 -0.21896426479E+02  0.15805200829E+02 -0.33975942609E+02  0.43400720524E+02  0.00000000000E+00 0. -1.
         11    1    3    3    0    0  0.10460120038E+02 -0.11060020891E+02  0.11881247509E+02  0.19310676217E+02  0.51100000000E-03 0.  1.
        -11    1    3    3    0    0 -0.89811004750E+00  0.30948924779E+01  0.53990398333E+01  0.62876539735E+01  0.51100000000E-03 0. -1.
         12    1    3    3    0    0  0.12334416489E+02 -0.78400724166E+01  0.16695655267E+02  0.22188949286E+02  0.00000000000E+00 0. -1.
</event>
<event>
 7    1  0.4477737E-009  0.4778727E+02  0.7816164E-02  0.1312668E+00
        -11   -1    0    0    0    0  0.00000000000E+00  0.00000000000E+00  0.45593999997E+02  0.45594000000E+02  0.51100000000E-03 0. -1.
         11   -1    0    0    0    0 -0.00000000000E+00 -0.00000000000E+00 -0.45593999997E+02  0.45594000000E+02  0.51100000000E-03 0.  1.
    9900012    2    1    2    0    0  0.31675843811E+02 -0.14881678917E+02 -0.25667098512E+02  0.47787269654E+02  0.19999993661E+02 0.  0.
         12    1    1    2    0    0 -0.31675843811E+02  0.14881678917E+02  0.25667098512E+02  0.43400730346E+02  0.00000000000E+00 0. -1.
         11    1    3    3    0    0  0.24634452591E+02 -0.56044390101E+01 -0.98218483043E+01  0.27105990029E+02  0.51100000000E-03 0. -1.
        -11    1    3    3    0    0  0.52547835488E+01 -0.10052324558E+02 -0.13473407680E+02  0.17612344930E+02  0.51100000000E-03 0.  1.
        -12    1    3    3    0    0  0.17866076714E+01  0.77508465103E+00 -0.23718425283E+01  0.30689346958E+01  0.00000000000E+00 0.  1.
</event>
<event>
 7    1  0.4477737E-009  0.4778727E+02  0.7816164E-02  0.1312668E+00
        -11   -1    0    0    0    0  0.00000000000E+00  0.00000000000E+00  0.45593999997E+02  0.45594000000E+02  0.51100000000E-03 0.  1.
         11   -1    0    0    0    0 -0.00000000000E+00 -0.00000000000E+00 -0.45593999997E+02  0.45594000000E+02  0.51100000000E-03 0. -1.
    9900012    2    1    2    0    0 -0.30800399459E+02  0.17383540487E+02  0.25154944490E+02  0.47787270525E+02  0.19999997631E+02 0.  0.
         12    1    1    2    0    0  0.30800399459E+02 -0.17383540487E+02 -0.25154944490E+02  0.43400729475E+02  0.00000000000E+00 0. -1.
         11    1    3    3    0    0 -0.65237013762E+01 -0.10241378108E+01 -0.24397102985E+00  0.66081056307E+01  0.51100000000E-03 0. -1.
        -11    1    3    3    0    0 -0.93611272643E+01  0.76508714175E+01  0.17249796436E+02  0.21064710168E+02  0.51100000000E-03 0.  1.
        -12    1    3    3    0    0 -0.14915570818E+02  0.10756806880E+02  0.81491190830E+01  0.20114454726E+02  0.00000000000E+00 0.  1.
</event>
<event>
 7    1  0.4477737E-009  0.4778728E+02  0.7816164E-02  0.1312668E+00
        -11   -1    0    0    0    0  0.00000000000E+00  0.00000000000E+00  0.45593999997E+02  0.45594000000E+02  0.51100000000E-03 0. -1.
         11   -1    0    0    0    0 -0.00000000000E+00 -0.00000000000E+00 -0.45593999997E+02  0.45594000000E+02  0.51100000000E-03 0.  1.
    9900012    2    1    2    0    0 -0.17560772828E+02 -0.25631348387E+02 -0.30303058499E+02  0.47787284374E+02  0.20000060775E+02 0.  0.
         12    1    1    2    0    0  0.17560772828E+02  0.25631348387E+02  0.30303058499E+02  0.43400715626E+02  0.00000000000E+00 0. -1.
         11    1    3    3    0    0 -0.47426075865E+01 -0.17621620883E+02 -0.21746269670E+02  0.28388626139E+02  0.51100000000E-03 0. -1.
        -11    1    3    3    0    0 -0.67502578708E+01 -0.19283384678E+01  0.34340613461E+00  0.70286839880E+01  0.51100000000E-03 0.  1.
        -12    1    3    3    0    0 -0.60679073710E+01 -0.60813890364E+01 -0.89001949634E+01  0.12369974247E+02  0.00000000000E+00 0.  1.
</event>
<event>
 7    1  0.4477737E-009  0.4778727E+02  0.7816164E-02  0.1312668E+00
        -11   -1    0    0    0    0  0.00000000000E+00  0.00000000000E+00  0.45593999997E+02  0.45594000000E+02  0.51100000000E-03 0. -1.
         11   -1    0    0    0    0 -0.00000000000E+00 -0.00000000000E+00 -0.45593999997E+02  0.45594000000E+02  0.51100000000E-03 0.  1.
    9900012    2    1    2    0    0 -0.12857030572E+02  0.11116256947E+02 -0.39934305738E+02  0.47787272144E+02  0.20000005012E+02 0.  0.
         12    1    1    2    0    0  0.12857030572E+02 -0.11116256947E+02  0.39934305738E+02  0.43400727856E+02  0.00000000000E+00 0. -1.
         11    1    3    3    0    0  0.40567297134E+01  0.11167133248E+01 -0.49259583480E+01  0.64783617162E+01  0.51100000000E-03 0. -1.
        -11    1    3    3    0    0 -0.21821695935E+01  0.44408108427E+01 -0.15317432020E+02  0.16096781946E+02  0.51100000000E-03 0.  1.
         12    1    3    3    0    0 -0.14731590692E+02  0.55587327797E+01 -0.19690915370E+02  0.25212128481E+02  0.00000000000E+00 0. -1.
</event>
<event>
 7    1  0.4477737E-009  0.4778727E+02  0.7816164E-02  0.1312668E+00
        -11   -1    0    0    0    0  0.00000000000E+00  0.00000000000E+00  0.45593999997E+02  0.45594000000E+02  0.51100000000E-03 0.  1.
         11   -1    0    0    0    0 -0.00000000000E+00 -0.00000000000E+00 -0.45593999997E+02  0.45594000000E+02  0.51100000000E-03 0. -1.
    9900012    2    1    2    0    0 -0.11859005706E+02 -0.28687329383E+02  0.30331901766E+02  0.47787272492E+02  0.20000006601E+02 0.  0.
         12    1    1    2    0    0  0.11859005706E+02  0.28687329383E+02 -0.30331901766E+02  0.43400727508E+02  0.00000000000E+00 0. -1.
         11    1    3    3    0    0  0.22358845190E+01 -0.76138407812E+01  0.33974401188E+01  0.86320536749E+01  0.51100000000E-03 0. -1.
        -11    1    3    3    0    0 -0.14589133305E+02 -0.15684866882E+02  0.15299945889E+02  0.26323871375E+02  0.51100000000E-03 0.  1.
        -12    1    3    3    0    0  0.49424307984E+00 -0.53886217205E+01  0.11634515758E+02  0.12831347442E+02  0.00000000000E+00 0.  1.
</event>
<event>
 7    1  0.4477737E-009  0.4778726E+02  0.7816164E-02  0.1312668E+00
        -11   -1    0    0    0    0  0.00000000000E+00  0.00000000000E+00  0.45593999997E+02  0.45594000000E+02  0.51100000000E-03 0.  1.
         11   -1    0    0    0    0 -0.00000000000E+00 -0.00000000000E+00 -0.45593999997E+02  0.45594000000E+02  0.51100000000E-03 0. -1.
    9900012    2    1    2    0    0  0.23594565684E+02 -0.86792805242E+01  0.35377823021E+02  0.47787264961E+02  0.19999972263E+02 0.  0.
         12    1    1    2    0    0 -0.23594565684E+02  0.86792805242E+01 -0.35377823021E+02  0.43400735039E+02  0.00000000000E+00 0. -1.
         11    1    3    3    0    0  0.14760611601E+02 -0.62783605934E-01  0.14330937311E+02  0.20573170905E+02  0.51100000000E-03 0. -1.
        -11    1    3    3    0    0  0.81027121908E+01 -0.47928582371E+01  0.49165376783E+01  0.10620629827E+02  0.51100000000E-03 0.  1.
         12    1    3    3    0    0  0.73124189166E+00 -0.38236386812E+01  0.16130348032E+02  0.16593464229E+02  0.00000000000E+00 0. -1.
</event>
<event>
 7    1  0.4477737E-009  0.4778727E+02  0.7816164E-02  0.1312668E+00
        -11   -1    0    0    0    0  0.00000000000E+00  0.00000000000E+00  0.45593999997E+02  0.45594000000E+02  0.51100000000E-03 0.  1.
         11   -1    0    0    0    0 -0.00000000000E+00 -0.00000000000E+00 -0.45593999997E+02  0.45594000000E+02  0.51100000000E-03 0. -1.
    9900012    2    1    2    0    0 -0.39971552658E+02 -0.43181744039E+01  0.16347846787E+02  0.47787265598E+02  0.19999975168E+02 0.  0.
         12    1    1    2    0    0  0.39971552658E+02  0.43181744039E+01 -0.16347846787E+02  0.43400734402E+02  0.00000000000E+00 0. -1.
         11    1    3    3    0    0 -0.17123353460E+00 -0.10412372341E+00 -0.82130126381E-01  0.21658322171E+00  0.51100000000E-03 0. -1.
        -11    1    3    3    0    0  0.47874374306E+00 -0.26722424850E+01 -0.18761357662E+01  0.32999941128E+01  0.51100000000E-03 0.  1.
        -12    1    3    3    0    0 -0.40279062866E+02 -0.15418081954E+01  0.18306112680E+02  0.44270688264E+02  0.00000000000E+00 0.  1.
</event>
<event>
 7    1  0.4477737E-009  0.4778727E+02  0.7816164E-02  0.1312668E+00
        -11   -1    0    0    0    0  0.00000000000E+00  0.00000000000E+00  0.45593999997E+02  0.45594000000E+02  0.51100000000E-03 0. -1.
         11   -1    0    0    0    0 -0.00000000000E+00 -0.00000000000E+00 -0.45593999997E+02  0.45594000000E+02  0.51100000000E-03 0.  1.
    9900012    2    1    2    0    0 -0.36023997533E+02 -0.19663357036E+02 -0.14115490594E+02  0.47787273244E+02  0.20000010030E+02 0.  0.
         12    1    1    2    0    0  0.36023997533E+02  0.19663357036E+02  0.14115490594E+02  0.43400726756E+02  0.00000000000E+00 0. -1.
         11    1    3    3    0    0 -0.29205166034E+02 -0.15376278851E+02 -0.55348017469E+01  0.33466486296E+02  0.51100000000E-03 0. -1.
        -11    1    3    3    0    0  0.17172198490E+01 -0.74324795142E+00 -0.29649092988E+01  0.35059875839E+01  0.51100000000E-03 0.  1.
        -12    1    3    3    0    0 -0.85360513484E+01 -0.35438302335E+01 -0.56157795486E+01  0.10814799364E+02  0.00000000000E+00 0.  1.
</event>
<event>
 7    1  0.4477737E-009  0.4778727E+02  0.7816164E-02  0.1312668E+00
        -11   -1    0    0    0    0  0.00000000000E+00  0.00000000000E+00  0.45593999997E+02  0.45594000000E+02  0.51100000000E-03 0.  1.
         11   -1    0    0    0    0 -0.00000000000E+00 -0.00000000000E+00 -0.45593999997E+02  0.45594000000E+02  0.51100000000E-03 0. -1.
    9900012    2    1    2    0    0 -0.21962786301E+02  0.18588629095E+02  0.32491876821E+02  0.47787272206E+02  0.20000005295E+02 0.  0.
         12    1    1    2    0    0  0.21962786301E+02 -0.18588629095E+02 -0.32491876821E+02  0.43400727794E+02  0.00000000000E+00 0. -1.
         11    1    3    3    0    0 -0.32003420943E+01  0.18403769181E+01 -0.11507904011E+01  0.38669749844E+01  0.51100000000E-03 0. -1.
        -11    1    3    3    0    0 -0.15841594535E+02  0.16944678491E+02  0.33793730194E+02  0.40988955187E+02  0.51100000000E-03 0.  1.
        -12    1    3    3    0    0 -0.29208496721E+01 -0.19642631421E+00 -0.15106297279E+00  0.29313420349E+01  0.00000000000E+00 0.  1.
</event>
<event>
 7    1  0.4477737E-009  0.4778727E+02  0.7816164E-02  0.1312668E+00
        -11   -1    0    0    0    0  0.00000000000E+00  0.00000000000E+00  0.45593999997E+02  0.45594000000E+02  0.51100000000E-03 0.  1.
         11   -1    0    0    0    0 -0.00000000000E+00 -0.00000000000E+00 -0.45593999997E+02  0.45594000000E+02  0.51100000000E-03 0. -1.
    9900012    2    1    2    0    0  0.36969343166E+02 -0.14482184331E+02  0.17525904238E+02  0.47787270554E+02  0.19999997764E+02 0.  0.
         12    1    1    2    0    0 -0.36969343166E+02  0.14482184331E+02 -0.17525904238E+02  0.43400729446E+02  0.00000000000E+00 0. -1.
         11    1    3    3    0    0  0.57246356522E+01 -0.56246057607E+01 -0.16409415374E+01  0.81914792745E+01  0.51100000000E-03 0. -1.
        -11    1    3    3    0    0  0.14074221040E+02  0.18548205446E+01  0.10083853237E+02  0.17412873212E+02  0.51100000000E-03 0.  1.
        -12    1    3    3    0    0  0.17170486473E+02 -0.10712399115E+02  0.90829925378E+01  0.22182918067E+02  0.00000000000E+00 0.  1.
</event>
<event>
 7    1  0.4477737E-009  0.4778728E+02  0.7816164E-02  0.1312668E+00
        -11   -1    0    0    0    0  0.00000000000E+00  0.00000000000E+00  0.45593999997E+02  0.45594000000E+02  0.51100000000E-03 0.  1.
         11   -1    0    0    0    0 -0.00000000000E+00 -0.00000000000E+00 -0.45593999997E+02  0.45594000000E+02  0.51100000000E-03 0. -1.
    9900012    2    1    2    0    0  0.24466344249E+02  0.10499446676E+02  0.34275100698E+02  0.47787275245E+02  0.20000019153E+02 0.  0.
         12    1    1    2    0    0 -0.24466344249E+02 -0.10499446676E+02 -0.34275100698E+02  0.43400724755E+02  0.00000000000E+00 0. -1.
         11    1    3    3    0    0  0.22572874177E+01  0.56183193204E+01  0.15515870547E+01  0.62504624726E+01  0.51100000000E-03 0. -1.
        -11    1    3    3    0    0  0.19254748691E+02 -0.66402520986E+00  0.25570393068E+02  0.32016109673E+02  0.51100000000E-03 0.  1.
        -12    1    3    3    0    0  0.29543081395E+01  0.55451525658E+01  0.71531205748E+01  0.95207031001E+01  0.00000000000E+00 0.  1.
</event>
<event>
 7    1  0.4477737E-009  0.4778727E+02  0.7816164E-02  0.1312668E+00
        -11   -1    0    0    0    0  0.00000000000E+00  0.00000000000E+00  0.45593999997E+02  0.45594000000E+02  0.51100000000E-03 0.  1.
         11   -1    0    0    0    0 -0.00000000000E+00 -0.00000000000E+00 -0.45593999997E+02  0.45594000000E+02  0.51100000000E-03 0. -1.
    9900012    2    1    2    0    0  0.33516557938E+02  0.16566491920E+02  0.22041205562E+02  0.47787273588E+02  0.20000011595E+02 0.  0.
         12    1    1    2    0    0 -0.33516557938E+02 -0.16566491920E+02 -0.22041205562E+02  0.43400726412E+02  0.00000000000E+00 0. -1.
         11    1    3    3    0    0  0.29511154881E+02  0.12338065383E+02  0.18218703979E+02  0.36811102873E+02  0.51100000000E-03 0. -1.
        -11    1    3    3    0    0  0.53892800153E+01  0.46142134168E+00  0.43332006075E+01  0.69306476252E+01  0.51100000000E-03 0.  1.
         12    1    3    3    0    0 -0.13838769582E+01  0.37670051952E+01 -0.51069902475E+00  0.40455230898E+01  0.00000000000E+00 0. -1.
</event>
<event>
 7    1  0.4477737E-009  0.4778727E+02  0.7816164E-02  0.1312668E+00
        -11   -1    0    0    0    0  0.00000000000E+00  0.00000000000E+00  0.45593999997E+02  0.45594000000E+02  0.51100000000E-03 0.  1.
         11   -1    0    0    0    0 -0.00000000000E+00 -0.00000000000E+00 -0.45593999997E+02  0.45594000000E+02  0.51100000000E-03 0. -1.
    9900012    2    1    2    0    0 -0.17516498169E+01  0.35214914662E+02  0.25307403741E+02  0.47787272174E+02  0.20000005149E+02 0.  0.
         12    1    1    2    0    0  0.17516498169E+01 -0.35214914662E+02 -0.25307403741E+02  0.43400727826E+02  0.00000000000E+00 0. -1.
         11    1    3    3    0    0 -0.35060251351E+01  0.86876717273E+01  0.13063816132E+02  0.16075793744E+02  0.51100000000E-03 0. -1.
        -11    1    3    3    0    0  0.27962761804E+01  0.24393878691E+02  0.63556125570E+01  0.25362852547E+02  0.51100000000E-03 0.  1.
        -12    1    3    3    0    0 -0.10419008623E+01  0.21333642440E+01  0.58879750513E+01  0.63486258835E+01  0.00000000000E+00 0.  1.
</event>
<event>
 7    1  0.4477737E-009  0.4778727E+02  0.7816164E-02  0.1312668E+00
        -11   -1    0    0    0    0  0.00000000000E+00  0.00000000000E+00  0.45593999997E+02  0.45594000000E+02  0.51100000000E-03 0.  1.
         11   -1    0    0    0    0 -0.00000000000E+00 -0.00000000000E+00 -0.45593999997E+02  0.45594000000E+02  0.51100000000E-03 0. -1.
    9900012    2    1    2    0    0  0.17925281561E+02  0.23843598166E+02  0.31524437472E+02  0.47787273618E+02  0.20000011733E+02 0.  0.
         12    1    1    2    0    0 -0.17925281561E+02 -0.23843598166E+02 -0.31524437472E+02  0.43400726382E+02  0.00000000000E+00 0. -1.
         11    1    3    3    0    0 -0.18636912146E+01  0.63053138215E+00 -0.10837956440E+01  0.22462252839E+01  0.51100000000E-03 0. -1.
        -11    1    3    3    0    0  0.18771825237E+02  0.20777605345E+02  0.25180413810E+02  0.37658246726E+02  0.51100000000E-03 0.  1.
         12    1    3    3    0    0  0.10171475389E+01  0.24354614392E+01  0.74278193064E+01  0.78828016077E+01  0.00000000000E+00 0. -1.
</event>
<event>
 7    1  0.4477737E-009  0.4778727E+02  0.7816164E-02  0.1312668E+00
        -11   -1    0    0    0    0  0.00000000000E+00  0.00000000000E+00  0.45593999997E+02  0.45594000000E+02  0.51100000000E-03 0.  1.
         11   -1    0    0    0    0 -0.00000000000E+00 -0.00000000000E+00 -0.45593999997E+02  0.45594000000E+02  0.51100000000E-03 0. -1.
    9900012    2    1    2    0    0  0.23370270413E+02  0.16010702249E+01  0.36536151423E+02  0.47787270446E+02  0.19999997269E+02 0.  0.
         12    1    1    2    0    0 -0.23370270413E+02 -0.16010702249E+01 -0.36536151423E+02  0.43400729554E+02  0.00000000000E+00 0. -1.
         11    1    3    3    0    0 -0.58844558938E+00  0.48097123607E+01  0.12623536418E+02  0.13521585453E+02  0.51100000000E-03 0. -1.
        -11    1    3    3    0    0  0.14210993686E+02 -0.82020180561E+00  0.16483344766E+02  0.21779020352E+02  0.51100000000E-03 0.  1.
         12    1    3    3    0    0  0.97477223160E+01 -0.23884403302E+01  0.74292702391E+01  0.12486664641E+02  0.00000000000E+00 0. -1.
</event>
<event>
 7    1  0.4477737E-009  0.4778727E+02  0.7816164E-02  0.1312668E+00
        -11   -1    0    0    0    0  0.00000000000E+00  0.00000000000E+00  0.45593999997E+02  0.45594000000E+02  0.51100000000E-03 0. -1.
         11   -1    0    0    0    0 -0.00000000000E+00 -0.00000000000E+00 -0.45593999997E+02  0.45594000000E+02  0.51100000000E-03 0.  1.
    9900012    2    1    2    0    0  0.39246801250E+02 -0.11133871149E+02 -0.14810427005E+02  0.47787271398E+02  0.20000001613E+02 0.  0.
         12    1    1    2    0    0 -0.39246801250E+02  0.11133871149E+02  0.14810427005E+02  0.43400728602E+02  0.00000000000E+00 0. -1.
         11    1    3    3    0    0  0.18605220268E+02 -0.12883963683E+02 -0.10742935023E+02  0.25051175513E+02  0.51100000000E-03 0. -1.
        -11    1    3    3    0    0  0.19361953793E+02  0.26444054516E+01 -0.58191370377E+01  0.20389715324E+02  0.51100000000E-03 0.  1.
         12    1    3    3    0    0  0.12796271889E+01 -0.89431291740E+00  0.17516450561E+01  0.23463805615E+01  0.00000000000E+00 0. -1.
</event>
<event>
 7    1  0.4477737E-009  0.4778727E+02  0.7816164E-02  0.1312668E+00
        -11   -1    0    0    0    0  0.00000000000E+00  0.00000000000E+00  0.45593999997E+02  0.45594000000E+02  0.51100000000E-03 0. -1.
         11   -1    0    0    0    0 -0.00000000000E+00 -0.00000000000E+00 -0.45593999997E+02  0.45594000000E+02  0.51100000000E-03 0.  1.
    9900012    2    1    2    0    0  0.13853587977E+02  0.11156984868E+02 -0.39588172757E+02  0.47787266902E+02  0.19999981115E+02 0.  0.
         12    1    1    2    0    0 -0.13853587977E+02 -0.11156984868E+02  0.39588172757E+02  0.43400733098E+02  0.00000000000E+00 0. -1.
         11    1    3    3    0    0 -0.33782084425E+01  0.37557292043E+01 -0.74325287997E+01  0.89866722849E+01  0.51100000000E-03 0. -1.
        -11    1    3    3    0    0  0.10944099360E+02  0.23864362416E+00 -0.10627026807E+02  0.15256603836E+02  0.51100000000E-03 0.  1.
        -12    1    3    3    0    0  0.62876970598E+01  0.71626120393E+01 -0.21528617150E+02  0.23543990782E+02  0.00000000000E+00 0.  1.
</event>
<event>
 7    1  0.4477737E-009  0.4778727E+02  0.7816164E-02  0.1312668E+00
        -11   -1    0    0    0    0  0.00000000000E+00  0.00000000000E+00  0.45593999997E+02  0.45594000000E+02  0.51100000000E-03 0.  1.
         11   -1    0    0    0    0 -0.00000000000E+00 -0.00000000000E+00 -0.45593999997E+02  0.45594000000E+02  0.51100000000E-03 0. -1.
    9900012    2    1    2    0    0 -0.76749987087E+00  0.10243795303E+02  0.42167509715E+02  0.47787271045E+02  0.20000000002E+02 0.  0.
         12    1    1    2    0    0  0.76749987087E+00 -0.10243795303E+02 -0.42167509715E+02  0.43400728955E+02  0.00000000000E+00 0. -1.
         11    1    3    3    0    0 -0.52921134837E+01 -0.23051183686E+01  0.73643440902E+01  0.93570080665E+01  0.51100000000E-03 0. -1.
        -11    1    3    3    0    0  0.17384472881E+01  0.12084253362E+02  0.20575671193E+02  0.23925083565E+02  0.51100000000E-03 0.  1.
         12    1    3    3    0    0  0.27861663247E+01  0.46466030900E+00  0.14227494432E+02  0.14505179413E+02  0.00000000000E+00 0. -1.
</event>
<event>
 7    1  0.4477737E-009  0.4778727E+02  0.7816164E-02  0.1312668E+00
        -11   -1    0    0    0    0  0.00000000000E+00  0.00000000000E+00  0.45593999997E+02  0.45594000000E+02  0.51100000000E-03 0.  1.
         11   -1    0    0    0    0 -0.00000000000E+00 -0.00000000000E+00 -0.45593999997E+02  0.45594000000E+02  0.51100000000E-03 0. -1.
    9900012    2    1    2    0    0 -0.26171608802E+02 -0.29724268406E+02  0.17752129181E+02  0.47787270397E+02  0.19999997049E+02 0.  0.
         12    1    1    2    0    0  0.26171608802E+02  0.29724268406E+02 -0.17752129181E+02  0.43400729603E+02  0.00000000000E+00 0. -1.
         11    1    3    3    0    0  0.65196394819E+00 -0.57748374283E+01  0.67607344931E+01  0.89152305333E+01  0.51100000000E-03 0. -1.
        -11    1    3    3    0    0 -0.25118803215E+02 -0.24708207030E+02  0.95255142737E+01  0.36499112209E+02  0.51100000000E-03 0.  1.
        -12    1    3    3    0    0 -0.17047695352E+01  0.75877605208E+00  0.14658804145E+01  0.23729276548E+01  0.00000000000E+00 0.  1.
</event>
<event>
 7    1  0.4477737E-009  0.4778727E+02  0.7816164E-02  0.1312668E+00
        -11   -1    0    0    0    0  0.00000000000E+00  0.00000000000E+00  0.45593999997E+02  0.45594000000E+02  0.51100000000E-03 0.  1.
         11   -1    0    0    0    0 -0.00000000000E+00 -0.00000000000E+00 -0.45593999997E+02  0.45594000000E+02  0.51100000000E-03 0. -1.
    9900012    2    1    2    0    0  0.36567482899E+02  0.21317843479E+02 -0.95912690253E+01  0.47787266162E+02  0.19999977738E+02 0.  0.
         12    1    1    2    0    0 -0.36567482899E+02 -0.21317843479E+02  0.95912690253E+01  0.43400733838E+02  0.00000000000E+00 0. -1.
         11    1    3    3    0    0  0.19226308839E+02  0.18022894586E+02 -0.10189056154E+02  0.28254071324E+02  0.51100000000E-03 0. -1.
        -11    1    3    3    0    0  0.17193085176E+02  0.18098536882E+01  0.21005677071E+01  0.17415227049E+02  0.51100000000E-03 0.  1.
        -12    1    3    3    0    0  0.14808888478E+00  0.14850952056E+01 -0.15027805779E+01  0.21179677884E+01  0.00000000000E+00 0.  1.
</event>
<event>
 7    1  0.4477737E-009  0.4778727E+02  0.7816164E-02  0.1312668E+00
        -11   -1    0    0    0    0  0.00000000000E+00  0.00000000000E+00  0.45593999997E+02  0.45594000000E+02  0.51100000000E-03 0. -1.
         11   -1    0    0    0    0 -0.00000000000E+00 -0.00000000000E+00 -0.45593999997E+02  0.45594000000E+02  0.51100000000E-03 0.  1.
    9900012    2    1    2    0    0 -0.14496801313E+02 -0.39687149187E+02 -0.99194965783E+01  0.47787268771E+02  0.19999989632E+02 0.  0.
         12    1    1    2    0    0  0.14496801313E+02  0.39687149187E+02  0.99194965783E+01  0.43400731229E+02  0.00000000000E+00 0. -1.
         11    1    3    3    0    0 -0.53588591272E-01  0.69022122393E-01 -0.27075507006E+00  0.28450722237E+00  0.51100000000E-03 0. -1.
        -11    1    3    3    0    0 -0.18551936190E+02 -0.34258111633E+02 -0.51539643327E+01  0.39298293826E+02  0.51100000000E-03 0.  1.
        -12    1    3    3    0    0  0.41087234683E+01 -0.54980596766E+01 -0.44947771755E+01  0.82044677221E+01  0.00000000000E+00 0.  1.
</event>
<event>
 7    1  0.4477737E-009  0.4778727E+02  0.7816164E-02  0.1312668E+00
        -11   -1    0    0    0    0  0.00000000000E+00  0.00000000000E+00  0.45593999997E+02  0.45594000000E+02  0.51100000000E-03 0.  1.
         11   -1    0    0    0    0 -0.00000000000E+00 -0.00000000000E+00 -0.45593999997E+02  0.45594000000E+02  0.51100000000E-03 0. -1.
    9900012    2    1    2    0    0  0.59627312699E+01 -0.34639538276E+02  0.25459213234E+02  0.47787270574E+02  0.19999997856E+02 0.  0.
         12    1    1    2    0    0 -0.59627312699E+01  0.34639538276E+02 -0.25459213234E+02  0.43400729426E+02  0.00000000000E+00 0. -1.
         11    1    3    3    0    0  0.10869013290E+00 -0.77996658792E+01  0.10264212949E+02  0.12891883846E+02  0.51100000000E-03 0. -1.
        -11    1    3    3    0    0 -0.11708682787E+00 -0.24363642947E+02  0.90912506796E+01  0.26004838899E+02  0.51100000000E-03 0.  1.
        -12    1    3    3    0    0  0.59711279649E+01 -0.24762294500E+01  0.61037496052E+01  0.88905478293E+01  0.00000000000E+00 0.  1.
</event>
<event>
 7    1  0.4477737E-009  0.4778727E+02  0.7816164E-02  0.1312668E+00
        -11   -1    0    0    0    0  0.00000000000E+00  0.00000000000E+00  0.45593999997E+02  0.45594000000E+02  0.51100000000E-03 0. -1.
         11   -1    0    0    0    0 -0.00000000000E+00 -0.00000000000E+00 -0.45593999997E+02  0.45594000000E+02  0.51100000000E-03 0.  1.
    9900012    2    1    2    0    0 -0.26266692368E+02  0.32871342985E+02 -0.10637609063E+02  0.47787273691E+02  0.20000012066E+02 0.  0.
         12    1    1    2    0    0  0.26266692368E+02 -0.32871342985E+02  0.10637609063E+02  0.43400726309E+02  0.00000000000E+00 0. -1.
         11    1    3    3    0    0 -0.69267261867E+01  0.91475388837E+01  0.24491299592E+01  0.11732657035E+02  0.51100000000E-03 0. -1.
        -11    1    3    3    0    0 -0.12449047223E+02  0.14363683633E+02 -0.15078332329E+02  0.24262116362E+02  0.51100000000E-03 0.  1.
        -12    1    3    3    0    0 -0.68909189580E+01  0.93601204682E+01  0.19915933071E+01  0.11792500293E+02  0.00000000000E+00 0.  1.
</event>
<event>
 7    1  0.4477737E-009  0.4778729E+02  0.7816164E-02  0.1312668E+00
        -11   -1    0    0    0    0  0.00000000000E+00  0.00000000000E+00  0.45593999997E+02  0.45594000000E+02  0.51100000000E-03 0.  1.
         11   -1    0    0    0    0 -0.00000000000E+00 -0.00000000000E+00 -0.45593999997E+02  0.45594000000E+02  0.51100000000E-03 0. -1.
    9900012    2    1    2    0    0 -0.81886179601E+01  0.42425365146E+02  0.40812401210E+01  0.47787290411E+02  0.20000088301E+02 0.  0.
         12    1    1    2    0    0  0.81886179601E+01 -0.42425365146E+02 -0.40812401210E+01  0.43400709589E+02  0.00000000000E+00 0. -1.
         11    1    3    3    0    0 -0.35253977883E+01  0.39969243942E+02  0.25384232520E+01  0.40204632615E+02  0.51100000000E-03 0.  1.
        -11    1    3    3    0    0 -0.45685492763E+01  0.38800911137E+01  0.13312234636E+01  0.61399434616E+01  0.51100000000E-03 0. -1.
         12    1    3    3    0    0 -0.94670895411E-01 -0.14239699094E+01  0.21159340546E+00  0.14427143344E+01  0.00000000000E+00 0. -1.
</event>
<event>
 7    1  0.4477737E-009  0.4778727E+02  0.7816164E-02  0.1312668E+00
        -11   -1    0    0    0    0  0.00000000000E+00  0.00000000000E+00  0.45593999997E+02  0.45594000000E+02  0.51100000000E-03 0.  1.
         11   -1    0    0    0    0 -0.00000000000E+00 -0.00000000000E+00 -0.45593999997E+02  0.45594000000E+02  0.51100000000E-03 0. -1.
    9900012    2    1    2    0    0 -0.27077349562E+02  0.27117462002E+02  0.20373610820E+02  0.47787267027E+02  0.19999981684E+02 0.  0.
         12    1    1    2    0    0  0.27077349562E+02 -0.27117462002E+02 -0.20373610820E+02  0.43400732973E+02  0.00000000000E+00 0. -1.
         11    1    3    3    0    0 -0.49461223970E+01  0.58444398028E+01 -0.24820826199E+01  0.80487475900E+01  0.51100000000E-03 0. -1.
        -11    1    3    3    0    0 -0.19457842627E+02  0.15849545121E+02  0.22460206160E+02  0.33679022867E+02  0.51100000000E-03 0.  1.
        -12    1    3    3    0    0 -0.26733845380E+01  0.54234770774E+01  0.39548727974E+00  0.60594965703E+01  0.00000000000E+00 0.  1.
</event>
<event>
 7    1  0.4477737E-009  0.4778727E+02  0.7816164E-02  0.1312668E+00
        -11   -1    0    0    0    0  0.00000000000E+00  0.00000000000E+00  0.45593999997E+02  0.45594000000E+02  0.51100000000E-03 0.  1.
         11   -1    0    0    0    0 -0.00000000000E+00 -0.00000000000E+00 -0.45593999997E+02  0.45594000000E+02  0.51100000000E-03 0. -1.
    9900012    2    1    2    0    0 -0.37608584656E+02 -0.20491281983E+02 -0.70231628465E+01  0.47787273123E+02  0.20000009477E+02 0.  0.
         12    1    1    2    0    0  0.37608584656E+02  0.20491281983E+02  0.70231628465E+01  0.43400726877E+02  0.00000000000E+00 0. -1.
         11    1    3    3    0    0 -0.17012929606E+02 -0.14948442476E+01 -0.57341124831E+01  0.18015392844E+02  0.51100000000E-03 0.  1.
        -11    1    3    3    0    0 -0.12984217973E+01 -0.67647156940E+01 -0.59877384346E+00  0.69141744237E+01  0.51100000000E-03 0. -1.
        -12    1    3    3    0    0 -0.19297233252E+02 -0.12231722041E+02 -0.69027651989E+00  0.22857705855E+02  0.00000000000E+00 0.  1.
</event>
<event>
 7    1  0.4477737E-009  0.4778727E+02  0.7816164E-02  0.1312668E+00
        -11   -1    0    0    0    0  0.00000000000E+00  0.00000000000E+00  0.45593999997E+02  0.45594000000E+02  0.51100000000E-03 0.  1.
         11   -1    0    0    0    0 -0.00000000000E+00 -0.00000000000E+00 -0.45593999997E+02  0.45594000000E+02  0.51100000000E-03 0. -1.
    9900012    2    1    2    0    0  0.40765026656E+02 -0.22766064762E+01  0.14719136846E+02  0.47787270457E+02  0.19999997324E+02 0.  0.
         12    1    1    2    0    0 -0.40765026656E+02  0.22766064762E+01 -0.14719136846E+02  0.43400729543E+02  0.00000000000E+00 0. -1.
         11    1    3    3    0    0  0.13409980752E+02  0.81386954427E-01 -0.25561916569E+01  0.13651678419E+02  0.51100000000E-03 0. -1.
        -11    1    3    3    0    0  0.48172456643E+01 -0.39352896519E+01  0.68515052839E+01  0.92539443132E+01  0.51100000000E-03 0.  1.
        -12    1    3    3    0    0  0.22537800240E+02  0.15772962213E+01  0.10423823219E+02  0.24881647726E+02  0.00000000000E+00 0.  1.
</event>
<event>
 7    1  0.4477737E-009  0.4778725E+02  0.7816164E-02  0.1312668E+00
        -11   -1    0    0    0    0  0.00000000000E+00  0.00000000000E+00  0.45593999997E+02  0.45594000000E+02  0.51100000000E-03 0. -1.
         11   -1    0    0    0    0 -0.00000000000E+00 -0.00000000000E+00 -0.45593999997E+02  0.45594000000E+02  0.51100000000E-03 0.  1.
    9900012    2    1    2    0    0  0.28506852675E+02  0.32510211192E+02 -0.37511083815E+01  0.47787247757E+02  0.19999893824E+02 0.  0.
         12    1    1    2    0    0 -0.28506852675E+02 -0.32510211192E+02  0.37511083815E+01  0.43400752243E+02  0.00000000000E+00 0. -1.
         11    1    3    3    0    0  0.24629316638E+01 -0.11146475148E+01 -0.25328762294E+01  0.37045827993E+01  0.51100000000E-03 0. -1.
        -11    1    3    3    0    0  0.15085357640E+02  0.22507258914E+02  0.44831523220E+01  0.27463491657E+02  0.51100000000E-03 0.  1.
        -12    1    3    3    0    0  0.10958563371E+02  0.11117599792E+02 -0.57013844742E+01  0.16619173301E+02  0.00000000000E+00 0.  1.
</event>
<event>
 7    1  0.4477737E-009  0.4778727E+02  0.7816164E-02  0.1312668E+00
        -11   -1    0    0    0    0  0.00000000000E+00  0.00000000000E+00  0.45593999997E+02  0.45594000000E+02  0.51100000000E-03 0.  1.
         11   -1    0    0    0    0 -0.00000000000E+00 -0.00000000000E+00 -0.45593999997E+02  0.45594000000E+02  0.51100000000E-03 0. -1.
    9900012    2    1    2    0    0  0.36051032428E+01  0.39962853506E+02 -0.16540767307E+02  0.47787269443E+02  0.19999992700E+02 0.  0.
         12    1    1    2    0    0 -0.36051032428E+01 -0.39962853506E+02  0.16540767307E+02  0.43400730557E+02  0.00000000000E+00 0. -1.
         11    1    3    3    0    0  0.79846641066E+01  0.95386340638E+01 -0.76239495535E+01  0.14589894028E+02  0.51100000000E-03 0. -1.
        -11    1    3    3    0    0  0.13598213223E+01  0.15404246081E+02 -0.16485983990E+01  0.15551777657E+02  0.51100000000E-03 0.  1.
         12    1    3    3    0    0 -0.57393821862E+01  0.15019973361E+02 -0.72682193548E+01  0.17645597758E+02  0.00000000000E+00 0. -1.
</event>
<event>
 7    1  0.4477737E-009  0.4778729E+02  0.7816164E-02  0.1312668E+00
        -11   -1    0    0    0    0  0.00000000000E+00  0.00000000000E+00  0.45593999997E+02  0.45594000000E+02  0.51100000000E-03 0.  1.
         11   -1    0    0    0    0 -0.00000000000E+00 -0.00000000000E+00 -0.45593999997E+02  0.45594000000E+02  0.51100000000E-03 0. -1.
    9900012    2    1    2    0    0  0.15719850219E+02 -0.35977546581E+02  0.18496598038E+02  0.47787289316E+02  0.20000083307E+02 0.  0.
         12    1    1    2    0    0 -0.15719850219E+02  0.35977546581E+02 -0.18496598038E+02  0.43400710684E+02  0.00000000000E+00 0. -1.
         11    1    3    3    0    0  0.33107507249E+00 -0.33330885795E+01  0.45752591218E+01  0.56702809873E+01  0.51100000000E-03 0. -1.
        -11    1    3    3    0    0 -0.29588358546E+01 -0.35752181571E+01 -0.82286027804E+00  0.47131723694E+01  0.51100000000E-03 0.  1.
        -12    1    3    3    0    0  0.18347611001E+02 -0.29069239845E+02  0.14744199194E+02  0.37403835959E+02  0.00000000000E+00 0.  1.
</event>
<event>
 7    1  0.4477737E-009  0.4778727E+02  0.7816164E-02  0.1312668E+00
        -11   -1    0    0    0    0  0.00000000000E+00  0.00000000000E+00  0.45593999997E+02  0.45594000000E+02  0.51100000000E-03 0.  1.
         11   -1    0    0    0    0 -0.00000000000E+00 -0.00000000000E+00 -0.45593999997E+02  0.45594000000E+02  0.51100000000E-03 0. -1.
    9900012    2    1    2    0    0  0.19370731658E+02 -0.33841053576E+02  0.19057311536E+02  0.47787271030E+02  0.19999999935E+02 0.  0.
         12    1    1    2    0    0 -0.19370731658E+02  0.33841053576E+02 -0.19057311536E+02  0.43400728970E+02  0.00000000000E+00 0. -1.
         11    1    3    3    0    0  0.11316608712E+02 -0.46386658479E+01  0.21296373610E+01  0.12414435514E+02  0.51100000000E-03 0. -1.
        -11    1    3    3    0    0  0.47817611409E+01 -0.20864423158E+02  0.15193418258E+02  0.26249368601E+02  0.51100000000E-03 0.  1.
        -12    1    3    3    0    0  0.32723618050E+01 -0.83379645705E+01  0.17342559173E+01  0.91234669150E+01  0.00000000000E+00 0.  1.
</event>
<event>
 7    1  0.4477737E-009  0.4778727E+02  0.7816164E-02  0.1312668E+00
        -11   -1    0    0    0    0  0.00000000000E+00  0.00000000000E+00  0.45593999997E+02  0.45594000000E+02  0.51100000000E-03 0.  1.
         11   -1    0    0    0    0 -0.00000000000E+00 -0.00000000000E+00 -0.45593999997E+02  0.45594000000E+02  0.51100000000E-03 0. -1.
    9900012    2    1    2    0    0 -0.22897343219E+02 -0.23910347940E+02  0.28064750526E+02  0.47787270891E+02  0.19999999302E+02 0.  0.
         12    1    1    2    0    0  0.22897343219E+02  0.23910347940E+02 -0.28064750526E+02  0.43400729109E+02  0.00000000000E+00 0. -1.
         11    1    3    3    0    0 -0.87994084269E+01 -0.20391516609E+02  0.10088031156E+02  0.24392865988E+02  0.51100000000E-03 0. -1.
        -11    1    3    3    0    0 -0.78683617732E+01 -0.26657990012E+00  0.83586276051E+01  0.11482544907E+02  0.51100000000E-03 0.  1.
         12    1    3    3    0    0 -0.62295730188E+01 -0.32522514311E+01  0.96180917649E+01  0.11911859996E+02  0.00000000000E+00 0. -1.
</event>
<event>
 7    1  0.4477737E-009  0.4778727E+02  0.7816164E-02  0.1312668E+00
        -11   -1    0    0    0    0  0.00000000000E+00  0.00000000000E+00  0.45593999997E+02  0.45594000000E+02  0.51100000000E-03 0.  1.
         11   -1    0    0    0    0 -0.00000000000E+00 -0.00000000000E+00 -0.45593999997E+02  0.45594000000E+02  0.51100000000E-03 0. -1.
    9900012    2    1    2    0    0  0.15106546373E+02  0.31819218978E+02  0.25356507868E+02  0.47787274995E+02  0.20000018012E+02 0.  0.
         12    1    1    2    0    0 -0.15106546373E+02 -0.31819218978E+02 -0.25356507868E+02  0.43400725005E+02  0.00000000000E+00 0. -1.
         11    1    3    3    0    0 -0.31040212353E+01  0.94677174503E+01  0.32964435642E+01  0.10494720672E+02  0.51100000000E-03 0. -1.
        -11    1    3    3    0    0  0.11428597914E+02  0.15703892683E+02  0.19351439032E+02  0.27417207891E+02  0.51100000000E-03 0.  1.
        -12    1    3    3    0    0  0.67819696948E+01  0.66476088443E+01  0.27086252721E+01  0.98753464320E+01  0.00000000000E+00 0.  1.
</event>
<event>
 7    1  0.4477737E-009  0.4778727E+02  0.7816164E-02  0.1312668E+00
        -11   -1    0    0    0    0  0.00000000000E+00  0.00000000000E+00  0.45593999997E+02  0.45594000000E+02  0.51100000000E-03 0.  1.
         11   -1    0    0    0    0 -0.00000000000E+00 -0.00000000000E+00 -0.45593999997E+02  0.45594000000E+02  0.51100000000E-03 0. -1.
    9900012    2    1    2    0    0  0.10314415214E+01 -0.34681888055E+02 -0.26071558405E+02  0.47787269726E+02  0.19999993990E+02 0.  0.
         12    1    1    2    0    0 -0.10314415214E+01  0.34681888055E+02  0.26071558405E+02  0.43400730274E+02  0.00000000000E+00 0. -1.
         11    1    3    3    0    0  0.13020169639E+01 -0.86006738979E+00  0.13345461425E+01  0.20532846263E+01  0.51100000000E-03 0. -1.
        -11    1    3    3    0    0  0.48590335788E+01 -0.26718315238E+02 -0.16624794487E+02  0.31841205513E+02  0.51100000000E-03 0.  1.
        -12    1    3    3    0    0 -0.51296090213E+01 -0.71035054267E+01 -0.10781310060E+02  0.13892779587E+02  0.00000000000E+00 0.  1.
</event>
<event>
 7    1  0.4477737E-009  0.4778727E+02  0.7816164E-02  0.1312668E+00
        -11   -1    0    0    0    0  0.00000000000E+00  0.00000000000E+00  0.45593999997E+02  0.45594000000E+02  0.51100000000E-03 0. -1.
         11   -1    0    0    0    0 -0.00000000000E+00 -0.00000000000E+00 -0.45593999997E+02  0.45594000000E+02  0.51100000000E-03 0.  1.
    9900012    2    1    2    0    0  0.74745775322E+01  0.33834583807E+02 -0.26133795633E+02  0.47787266770E+02  0.19999980513E+02 0.  0.
         12    1    1    2    0    0 -0.74745775322E+01 -0.33834583807E+02  0.26133795633E+02  0.43400733230E+02  0.00000000000E+00 0. -1.
         11    1    3    3    0    0 -0.20884163359E+01  0.11887825225E+02 -0.15276008212E+01  0.12166159455E+02  0.51100000000E-03 0. -1.
        -11    1    3    3    0    0  0.11140813898E+02  0.18581965745E+02 -0.22922247487E+02  0.31541030664E+02  0.51100000000E-03 0.  1.
        -12    1    3    3    0    0 -0.15778200297E+01  0.33647928369E+01 -0.16839473253E+01  0.40800766507E+01  0.00000000000E+00 0.  1.
</event>
<event>
 7    1  0.4477737E-009  0.4778727E+02  0.7816164E-02  0.1312668E+00
        -11   -1    0    0    0    0  0.00000000000E+00  0.00000000000E+00  0.45593999997E+02  0.45594000000E+02  0.51100000000E-03 0.  1.
         11   -1    0    0    0    0 -0.00000000000E+00 -0.00000000000E+00 -0.45593999997E+02  0.45594000000E+02  0.51100000000E-03 0. -1.
    9900012    2    1    2    0    0  0.40769285532E+02 -0.41863915756E+01  0.14281555975E+02  0.47787270072E+02  0.19999995565E+02 0.  0.
         12    1    1    2    0    0 -0.40769285532E+02  0.41863915756E+01 -0.14281555975E+02  0.43400729928E+02  0.00000000000E+00 0. -1.
         11    1    3    3    0    0  0.22979009365E+02 -0.10352063535E+02  0.58554194655E+01  0.25874428075E+02  0.51100000000E-03 0. -1.
        -11    1    3    3    0    0  0.17721443267E+02  0.52967968091E+01  0.92792321019E+01  0.20693229728E+02  0.51100000000E-03 0.  1.
        -12    1    3    3    0    0  0.68832899903E-01  0.86887515037E+00 -0.85309559270E+00  0.12196122684E+01  0.00000000000E+00 0.  1.
</event>
<event>
 7    1  0.4477737E-009  0.4778727E+02  0.7816164E-02  0.1312668E+00
        -11   -1    0    0    0    0  0.00000000000E+00  0.00000000000E+00  0.45593999997E+02  0.45594000000E+02  0.51100000000E-03 0.  1.
         11   -1    0    0    0    0 -0.00000000000E+00 -0.00000000000E+00 -0.45593999997E+02  0.45594000000E+02  0.51100000000E-03 0. -1.
    9900012    2    1    2    0    0 -0.25901497628E+02  0.14109828361E+02  0.31837849188E+02  0.47787268709E+02  0.19999989350E+02 0.  0.
         12    1    1    2    0    0  0.25901497628E+02 -0.14109828361E+02 -0.31837849188E+02  0.43400731291E+02  0.00000000000E+00 0. -1.
         11    1    3    3    0    0 -0.16766656033E+02  0.15022294766E+02  0.23829739758E+02  0.32781802753E+02  0.51100000000E-03 0. -1.
        -11    1    3    3    0    0 -0.39835610130E+01  0.15477291533E+01  0.82505520852E+01  0.92917078004E+01  0.51100000000E-03 0.  1.
         12    1    3    3    0    0 -0.51512805812E+01 -0.24601955583E+01 -0.24244265512E+00  0.57137581549E+01  0.00000000000E+00 0. -1.
</event>
<event>
 7    1  0.4477737E-009  0.4778726E+02  0.7816164E-02  0.1312668E+00
        -11   -1    0    0    0    0  0.00000000000E+00  0.00000000000E+00  0.45593999997E+02  0.45594000000E+02  0.51100000000E-03 0.  1.
         11   -1    0    0    0    0 -0.00000000000E+00 -0.00000000000E+00 -0.45593999997E+02  0.45594000000E+02  0.51100000000E-03 0. -1.
    9900012    2    1    2    0    0 -0.86453693426E+01 -0.24218996455E+02  0.34961718340E+02  0.47787263259E+02  0.19999964502E+02 0.  0.
         12    1    1    2    0    0  0.86453693426E+01  0.24218996455E+02 -0.34961718340E+02  0.43400736741E+02  0.00000000000E+00 0. -1.
         11    1    3    3    0    0  0.80281624095E+00 -0.13487284091E+02  0.72839019180E+01  0.15349481212E+02  0.51100000000E-03 0. -1.
        -11    1    3    3    0    0 -0.50878089995E+01 -0.11418765016E+02  0.20591382154E+02  0.24088981177E+02  0.51100000000E-03 0.  1.
         12    1    3    3    0    0 -0.43603765840E+01  0.68705265264E+00  0.70864342689E+01  0.83488008689E+01  0.00000000000E+00 0. -1.
</event>
<event>
 7    1  0.4477737E-009  0.4778727E+02  0.7816164E-02  0.1312668E+00
        -11   -1    0    0    0    0  0.00000000000E+00  0.00000000000E+00  0.45593999997E+02  0.45594000000E+02  0.51100000000E-03 0.  1.
         11   -1    0    0    0    0 -0.00000000000E+00 -0.00000000000E+00 -0.45593999997E+02  0.45594000000E+02  0.51100000000E-03 0. -1.
    9900012    2    1    2    0    0 -0.96749528770E+01  0.35334279104E+02  0.23270310951E+02  0.47787269997E+02  0.19999995226E+02 0.  0.
         12    1    1    2    0    0  0.96749528770E+01 -0.35334279104E+02 -0.23270310951E+02  0.43400730003E+02  0.00000000000E+00 0. -1.
         11    1    3    3    0    0 -0.12757644460E+00  0.42006421180E+01  0.12586410200E+02  0.13269491020E+02  0.51100000000E-03 0. -1.
        -11    1    3    3    0    0 -0.48831144473E+01  0.11495703336E+02  0.25003890065E+01  0.12737658629E+02  0.51100000000E-03 0.  1.
         12    1    3    3    0    0 -0.46642619851E+01  0.19637933651E+02  0.81835117451E+01  0.21780120349E+02  0.00000000000E+00 0. -1.
</event>
<event>
 7    1  0.4477737E-009  0.4778730E+02  0.7816164E-02  0.1312668E+00
        -11   -1    0    0    0    0  0.00000000000E+00  0.00000000000E+00  0.45593999997E+02  0.45594000000E+02  0.51100000000E-03 0.  1.
         11   -1    0    0    0    0 -0.00000000000E+00 -0.00000000000E+00 -0.45593999997E+02  0.45594000000E+02  0.51100000000E-03 0. -1.
    9900012    2    1    2    0    0  0.24856524910E+02 -0.17967087709E+02  0.30707622989E+02  0.47787295156E+02  0.20000109933E+02 0.  0.
         12    1    1    2    0    0 -0.24856524910E+02  0.17967087709E+02 -0.30707622989E+02  0.43400704844E+02  0.00000000000E+00 0. -1.
         11    1    3    3    0    0 -0.10823791587E+01 -0.13216272991E+01  0.82310603021E+00  0.18962455429E+01  0.51100000000E-03 0. -1.
        -11    1    3    3    0    0  0.15710516726E+01  0.28487461421E+01  0.10927288214E+01  0.34318529220E+01  0.51100000000E-03 0.  1.
        -12    1    3    3    0    0  0.24367852396E+02 -0.19494206552E+02  0.28791788138E+02  0.42459196691E+02  0.00000000000E+00 0.  1.
</event>
<event>
 7    1  0.4477737E-009  0.4778727E+02  0.7816164E-02  0.1312668E+00
        -11   -1    0    0    0    0  0.00000000000E+00  0.00000000000E+00  0.45593999997E+02  0.45594000000E+02  0.51100000000E-03 0.  1.
         11   -1    0    0    0    0 -0.00000000000E+00 -0.00000000000E+00 -0.45593999997E+02  0.45594000000E+02  0.51100000000E-03 0. -1.
    9900012    2    1    2    0    0  0.64225626442E+01  0.41721374423E+02 -0.10084668843E+02  0.47787274887E+02  0.20000017519E+02 0.  0.
         12    1    1    2    0    0 -0.64225626442E+01 -0.41721374423E+02  0.10084668843E+02  0.43400725113E+02  0.00000000000E+00 0. -1.
         11    1    3    3    0    0 -0.38926118520E+01  0.54311635889E+01 -0.38965413899E+01  0.77351793789E+01  0.51100000000E-03 0. -1.
        -11    1    3    3    0    0  0.10618387636E+02  0.15828627483E+02 -0.20090587990E+01  0.19165905183E+02  0.51100000000E-03 0.  1.
        -12    1    3    3    0    0 -0.30321313966E+00  0.20461583351E+02 -0.41790686542E+01  0.20886190324E+02  0.00000000000E+00 0.  1.
</event>
<event>
 7    1  0.4477737E-009  0.4778728E+02  0.7816164E-02  0.1312668E+00
        -11   -1    0    0    0    0  0.00000000000E+00  0.00000000000E+00  0.45593999997E+02  0.45594000000E+02  0.51100000000E-03 0.  1.
         11   -1    0    0    0    0 -0.00000000000E+00 -0.00000000000E+00 -0.45593999997E+02  0.45594000000E+02  0.51100000000E-03 0. -1.
    9900012    2    1    2    0    0  0.39342503671E+02  0.15298054728E+01 -0.18260606586E+02  0.47787278200E+02  0.20000032626E+02 0.  0.
         12    1    1    2    0    0 -0.39342503671E+02 -0.15298054728E+01  0.18260606586E+02  0.43400721800E+02  0.00000000000E+00 0. -1.
         11    1    3    3    0    0  0.11071200448E+02 -0.70440799418E+01 -0.96878102729E+01  0.16310861710E+02  0.51100000000E-03 0. -1.
        -11    1    3    3    0    0  0.21886434499E+02  0.44637367583E+01 -0.42465541268E+01  0.22737066282E+02  0.51100000000E-03 0.  1.
        -12    1    3    3    0    0  0.63848687242E+01  0.41101486564E+01 -0.43262421860E+01  0.87393502078E+01  0.00000000000E+00 0.  1.
</event>
<event>
 7    1  0.4477737E-009  0.4778727E+02  0.7816164E-02  0.1312668E+00
        -11   -1    0    0    0    0  0.00000000000E+00  0.00000000000E+00  0.45593999997E+02  0.45594000000E+02  0.51100000000E-03 0. -1.
         11   -1    0    0    0    0 -0.00000000000E+00 -0.00000000000E+00 -0.45593999997E+02  0.45594000000E+02  0.51100000000E-03 0.  1.
    9900012    2    1    2    0    0  0.35407581560E+02 -0.15027845015E+02 -0.20101999727E+02  0.47787270158E+02  0.19999995961E+02 0.  0.
         12    1    1    2    0    0 -0.35407581560E+02  0.15027845015E+02  0.20101999727E+02  0.43400729842E+02  0.00000000000E+00 0. -1.
         11    1    3    3    0    0  0.80246878221E-01 -0.44974533894E+01  0.67604140808E+00  0.45486875907E+01  0.51100000000E-03 0. -1.
        -11    1    3    3    0    0  0.85343530926E+01 -0.22331906158E+01 -0.91442106457E+00  0.88689621253E+01  0.51100000000E-03 0.  1.
         12    1    3    3    0    0  0.26792981589E+02 -0.82972010102E+01 -0.19863620071E+02  0.34369620443E+02  0.00000000000E+00 0. -1.
</event>
<event>
 7    1  0.4477737E-009  0.4778727E+02  0.7816164E-02  0.1312668E+00
        -11   -1    0    0    0    0  0.00000000000E+00  0.00000000000E+00  0.45593999997E+02  0.45594000000E+02  0.51100000000E-03 0.  1.
         11   -1    0    0    0    0 -0.00000000000E+00 -0.00000000000E+00 -0.45593999997E+02  0.45594000000E+02  0.51100000000E-03 0. -1.
    9900012    2    1    2    0    0 -0.25499402609E+02  0.82720180946E+01  0.34131768716E+02  0.47787268987E+02  0.19999990620E+02 0.  0.
         12    1    1    2    0    0  0.25499402609E+02 -0.82720180946E+01 -0.34131768716E+02  0.43400731013E+02  0.00000000000E+00 0. -1.
         11    1    3    3    0    0 -0.46176119689E+01  0.36188672264E+01 -0.78113488245E+00  0.59185059148E+01  0.51100000000E-03 0. -1.
        -11    1    3    3    0    0 -0.46212230699E+01  0.47995816258E+01  0.78515100266E+01  0.10297470389E+02  0.51100000000E-03 0.  1.
         12    1    3    3    0    0 -0.16260567570E+02 -0.14643075763E+00  0.27061393572E+02  0.31571292684E+02  0.00000000000E+00 0. -1.
</event>
<event>
 7    1  0.4477737E-009  0.4778727E+02  0.7816164E-02  0.1312668E+00
        -11   -1    0    0    0    0  0.00000000000E+00  0.00000000000E+00  0.45593999997E+02  0.45594000000E+02  0.51100000000E-03 0.  1.
         11   -1    0    0    0    0 -0.00000000000E+00 -0.00000000000E+00 -0.45593999997E+02  0.45594000000E+02  0.51100000000E-03 0. -1.
    9900012    2    1    2    0    0  0.49778972098E+01  0.31782211605E+02  0.29133052915E+02  0.47787271812E+02  0.20000003499E+02 0.  0.
         12    1    1    2    0    0 -0.49778972098E+01 -0.31782211605E+02 -0.29133052915E+02  0.43400728188E+02  0.00000000000E+00 0. -1.
         11    1    3    3    0    0  0.44679913512E+01  0.44551539240E-01  0.30834994667E+00  0.44788404196E+01  0.51100000000E-03 0. -1.
        -11    1    3    3    0    0  0.21174607951E+01  0.22211849090E+02  0.17069764338E+02  0.28093179511E+02  0.51100000000E-03 0.  1.
         12    1    3    3    0    0 -0.16075549365E+01  0.95258109753E+01  0.11754938630E+02  0.15215251881E+02  0.00000000000E+00 0. -1.
</event>
<event>
 7    1  0.4477737E-009  0.4778727E+02  0.7816164E-02  0.1312668E+00
        -11   -1    0    0    0    0  0.00000000000E+00  0.00000000000E+00  0.45593999997E+02  0.45594000000E+02  0.51100000000E-03 0.  1.
         11   -1    0    0    0    0 -0.00000000000E+00 -0.00000000000E+00 -0.45593999997E+02  0.45594000000E+02  0.51100000000E-03 0. -1.
    9900012    2    1    2    0    0  0.17810366098E+02  0.72442176308E+01  0.38909323546E+02  0.47787270877E+02  0.19999999236E+02 0.  0.
         12    1    1    2    0    0 -0.17810366098E+02 -0.72442176308E+01 -0.38909323546E+02  0.43400729123E+02  0.00000000000E+00 0. -1.
         11    1    3    3    0    0  0.30290520464E+00 -0.28127774299E+01  0.24136769302E+01  0.37187773552E+01  0.51100000000E-03 0. -1.
        -11    1    3    3    0    0  0.14674975674E+02  0.13706470280E+02  0.29619718494E+02  0.35784772774E+02  0.51100000000E-03 0.  1.
        -12    1    3    3    0    0  0.28324852193E+01 -0.36494752189E+01  0.68759281212E+01  0.82837207473E+01  0.00000000000E+00 0.  1.
</event>
<event>
 7    1  0.4477737E-009  0.4778727E+02  0.7816164E-02  0.1312668E+00
        -11   -1    0    0    0    0  0.00000000000E+00  0.00000000000E+00  0.45593999997E+02  0.45594000000E+02  0.51100000000E-03 0. -1.
         11   -1    0    0    0    0 -0.00000000000E+00 -0.00000000000E+00 -0.45593999997E+02  0.45594000000E+02  0.51100000000E-03 0.  1.
    9900012    2    1    2    0    0  0.12538483413E+02  0.32442410747E+02 -0.25959586079E+02  0.47787266241E+02  0.19999978100E+02 0.  0.
         12    1    1    2    0    0 -0.12538483413E+02 -0.32442410747E+02  0.25959586079E+02  0.43400733759E+02  0.00000000000E+00 0. -1.
         11    1    3    3    0    0  0.79213880445E+00  0.56392041706E+01 -0.12577345131E+02  0.13806437570E+02  0.51100000000E-03 0.  1.
        -11    1    3    3    0    0  0.78953674053E+01  0.15191674440E+02 -0.19403357152E+01  0.17230458546E+02  0.51100000000E-03 0. -1.
        -12    1    3    3    0    0  0.38509772032E+01  0.11611532137E+02 -0.11441905233E+02  0.16750370126E+02  0.00000000000E+00 0.  1.
</event>
<event>
 7    1  0.4477737E-009  0.4778727E+02  0.7816164E-02  0.1312668E+00
        -11   -1    0    0    0    0  0.00000000000E+00  0.00000000000E+00  0.45593999997E+02  0.45594000000E+02  0.51100000000E-03 0. -1.
         11   -1    0    0    0    0 -0.00000000000E+00 -0.00000000000E+00 -0.45593999997E+02  0.45594000000E+02  0.51100000000E-03 0.  1.
    9900012    2    1    2    0    0 -0.11370133783E+02  0.18165603905E+02 -0.37740615367E+02  0.47787272405E+02  0.20000006204E+02 0.  0.
         12    1    1    2    0    0  0.11370133783E+02 -0.18165603905E+02  0.37740615367E+02  0.43400727595E+02  0.00000000000E+00 0. -1.
         11    1    3    3    0    0  0.17392703494E+01  0.63719644241E+01 -0.12963940402E+02  0.14549595973E+02  0.51100000000E-03 0. -1.
        -11    1    3    3    0    0 -0.97383994730E+01 -0.15562738167E+00 -0.10925298335E+02  0.14636351600E+02  0.51100000000E-03 0.  1.
        -12    1    3    3    0    0 -0.33710046594E+01  0.11949266863E+02 -0.13851376630E+02  0.18601324833E+02  0.00000000000E+00 0.  1.
</event>
<event>
 7    1  0.4477737E-009  0.4778727E+02  0.7816164E-02  0.1312668E+00
        -11   -1    0    0    0    0  0.00000000000E+00  0.00000000000E+00  0.45593999997E+02  0.45594000000E+02  0.51100000000E-03 0.  1.
         11   -1    0    0    0    0 -0.00000000000E+00 -0.00000000000E+00 -0.45593999997E+02  0.45594000000E+02  0.51100000000E-03 0. -1.
    9900012    2    1    2    0    0 -0.92783733101E+01  0.42052166595E+02 -0.53991254054E+01  0.47787268649E+02  0.19999989080E+02 0.  0.
         12    1    1    2    0    0  0.92783733101E+01 -0.42052166595E+02  0.53991254054E+01  0.43400731351E+02  0.00000000000E+00 0. -1.
         11    1    3    3    0    0 -0.10408887896E+02  0.23494272992E+02  0.37166730026E+01  0.25964195907E+02  0.51100000000E-03 0. -1.
        -11    1    3    3    0    0 -0.27729841136E+01  0.50147842346E+01 -0.28116388928E+01  0.63830098965E+01  0.51100000000E-03 0.  1.
         12    1    3    3    0    0  0.39034986999E+01  0.13543109369E+02 -0.63041595153E+01  0.15440062846E+02  0.00000000000E+00 0. -1.
</event>
<event>
 7    1  0.4477737E-009  0.4778726E+02  0.7816164E-02  0.1312668E+00
        -11   -1    0    0    0    0  0.00000000000E+00  0.00000000000E+00  0.45593999997E+02  0.45594000000E+02  0.51100000000E-03 0.  1.
         11   -1    0    0    0    0 -0.00000000000E+00 -0.00000000000E+00 -0.45593999997E+02  0.45594000000E+02  0.51100000000E-03 0. -1.
    9900012    2    1    2    0    0  0.12780218584E+02 -0.36736414191E+02  0.19254254828E+02  0.47787257568E+02  0.19999938554E+02 0.  0.
         12    1    1    2    0    0 -0.12780218584E+02  0.36736414191E+02 -0.19254254828E+02  0.43400742432E+02  0.00000000000E+00 0. -1.
         11    1    3    3    0    0  0.17750744741E+00 -0.10895675720E+02  0.68131818414E+00  0.10918399746E+02  0.51100000000E-03 0. -1.
        -11    1    3    3    0    0  0.75974025118E+01 -0.16675727842E+02  0.19026798635E+02  0.26416273215E+02  0.51100000000E-03 0.  1.
        -12    1    3    3    0    0  0.50053086249E+01 -0.91650106289E+01 -0.45386199052E+00  0.10452584607E+02  0.00000000000E+00 0.  1.
</event>
<event>
 7    1  0.4477737E-009  0.4778727E+02  0.7816164E-02  0.1312668E+00
        -11   -1    0    0    0    0  0.00000000000E+00  0.00000000000E+00  0.45593999997E+02  0.45594000000E+02  0.51100000000E-03 0.  1.
         11   -1    0    0    0    0 -0.00000000000E+00 -0.00000000000E+00 -0.45593999997E+02  0.45594000000E+02  0.51100000000E-03 0. -1.
    9900012    2    1    2    0    0 -0.11886348898E+02  0.38072257537E+01  0.41567332812E+02  0.47787269416E+02  0.19999992577E+02 0.  0.
         12    1    1    2    0    0  0.11886348898E+02 -0.38072257537E+01 -0.41567332812E+02  0.43400730584E+02  0.00000000000E+00 0. -1.
         11    1    3    3    0    0  0.34246639678E+01  0.39480472034E+01  0.62618294678E+01  0.81563416160E+01  0.51100000000E-03 0. -1.
        -11    1    3    3    0    0 -0.68270355695E+01 -0.46603843908E+01  0.14018014085E+02  0.16273669423E+02  0.51100000000E-03 0.  1.
        -12    1    3    3    0    0 -0.84839772963E+01  0.45195629411E+01  0.21287489259E+02  0.23357258377E+02  0.00000000000E+00 0.  1.
</event>
<event>
 7    1  0.4477737E-009  0.4778728E+02  0.7816164E-02  0.1312668E+00
        -11   -1    0    0    0    0  0.00000000000E+00  0.00000000000E+00  0.45593999997E+02  0.45594000000E+02  0.51100000000E-03 0.  1.
         11   -1    0    0    0    0 -0.00000000000E+00 -0.00000000000E+00 -0.45593999997E+02  0.45594000000E+02  0.51100000000E-03 0. -1.
    9900012    2    1    2    0    0  0.45143607433E+01  0.36507854359E+02  0.23030849044E+02  0.47787275461E+02  0.20000020138E+02 0.  0.
         12    1    1    2    0    0 -0.45143607433E+01 -0.36507854359E+02 -0.23030849044E+02  0.43400724539E+02  0.00000000000E+00 0. -1.
         11    1    3    3    0    0 -0.22849795701E+01  0.20623638776E+01 -0.19325090012E+01  0.36344281118E+01  0.51100000000E-03 0. -1.
        -11    1    3    3    0    0  0.21947011321E+01  0.17106062119E+02  0.17943837683E+02  0.24888057082E+02  0.51100000000E-03 0.  1.
         12    1    3    3    0    0  0.46046391813E+01  0.17339428362E+02  0.70195203623E+01  0.19264790267E+02  0.00000000000E+00 0. -1.
</event>
<event>
 7    1  0.4477737E-009  0.4778727E+02  0.7816164E-02  0.1312668E+00
        -11   -1    0    0    0    0  0.00000000000E+00  0.00000000000E+00  0.45593999997E+02  0.45594000000E+02  0.51100000000E-03 0. -1.
         11   -1    0    0    0    0 -0.00000000000E+00 -0.00000000000E+00 -0.45593999997E+02  0.45594000000E+02  0.51100000000E-03 0.  1.
    9900012    2    1    2    0    0 -0.26471195946E+02  0.31914559299E+02 -0.12820307805E+02  0.47787267261E+02  0.19999982748E+02 0.  0.
         12    1    1    2    0    0  0.26471195946E+02 -0.31914559299E+02  0.12820307805E+02  0.43400732739E+02  0.00000000000E+00 0. -1.
         11    1    3    3    0    0 -0.26979246934E+02  0.24556974738E+02 -0.13208057082E+02  0.38799195166E+02  0.51100000000E-03 0. -1.
        -11    1    3    3    0    0 -0.21403110878E+01  0.35623468460E+01 -0.74842803834E+00  0.42227232201E+01  0.51100000000E-03 0.  1.
         12    1    3    3    0    0  0.26483620756E+01  0.37952377156E+01  0.11361773155E+01  0.47653488743E+01  0.00000000000E+00 0. -1.
</event>
<event>
 7    1  0.4477737E-009  0.4778728E+02  0.7816164E-02  0.1312668E+00
        -11   -1    0    0    0    0  0.00000000000E+00  0.00000000000E+00  0.45593999997E+02  0.45594000000E+02  0.51100000000E-03 0. -1.
         11   -1    0    0    0    0 -0.00000000000E+00 -0.00000000000E+00 -0.45593999997E+02  0.45594000000E+02  0.51100000000E-03 0.  1.
    9900012    2    1    2    0    0  0.17972594977E+02  0.38095918870E+02  0.10455112815E+02  0.47787278937E+02  0.20000035986E+02 0.  0.
         12    1    1    2    0    0 -0.17972594977E+02 -0.38095918870E+02 -0.10455112815E+02  0.43400721063E+02  0.00000000000E+00 0. -1.
         11    1    3    3    0    0  0.72778714211E+01  0.63841725007E+01  0.57655527835E+01  0.11267948797E+02  0.51100000000E-03 0. -1.
        -11    1    3    3    0    0 -0.13881866661E+01  0.17290544260E+02  0.12287984908E+01  0.17389650055E+02  0.51100000000E-03 0.  1.
        -12    1    3    3    0    0  0.12082910222E+02  0.14421202110E+02  0.34607615412E+01  0.19129680085E+02  0.00000000000E+00 0.  1.
</event>
<event>
 7    1  0.4477737E-009  0.4778727E+02  0.7816164E-02  0.1312668E+00
        -11   -1    0    0    0    0  0.00000000000E+00  0.00000000000E+00  0.45593999997E+02  0.45594000000E+02  0.51100000000E-03 0. -1.
         11   -1    0    0    0    0 -0.00000000000E+00 -0.00000000000E+00 -0.45593999997E+02  0.45594000000E+02  0.51100000000E-03 0.  1.
    9900012    2    1    2    0    0 -0.86469280418E+01 -0.41880135547E+02 -0.74100108572E+01  0.47787269835E+02  0.19999994485E+02 0.  0.
         12    1    1    2    0    0  0.86469280418E+01  0.41880135547E+02  0.74100108572E+01  0.43400730165E+02  0.00000000000E+00 0. -1.
         11    1    3    3    0    0 -0.17562417107E+01 -0.22683973869E+02  0.50266608685E+01  0.23300523066E+02  0.51100000000E-03 0. -1.
        -11    1    3    3    0    0 -0.73652423304E+01 -0.15154726176E+02 -0.11204987851E+02  0.20235223573E+02  0.51100000000E-03 0.  1.
         12    1    3    3    0    0  0.47455599926E+00 -0.40414355016E+01 -0.12316838751E+01  0.42515231950E+01  0.00000000000E+00 0. -1.
</event>
<event>
 7    1  0.4477737E-009  0.4778728E+02  0.7816164E-02  0.1312668E+00
        -11   -1    0    0    0    0  0.00000000000E+00  0.00000000000E+00  0.45593999997E+02  0.45594000000E+02  0.51100000000E-03 0. -1.
         11   -1    0    0    0    0 -0.00000000000E+00 -0.00000000000E+00 -0.45593999997E+02  0.45594000000E+02  0.51100000000E-03 0.  1.
    9900012    2    1    2    0    0 -0.10687996456E+02  0.34474568288E+00 -0.42062698805E+02  0.47787277096E+02  0.20000027593E+02 0.  0.
         12    1    1    2    0    0  0.10687996456E+02 -0.34474568288E+00  0.42062698805E+02  0.43400722904E+02  0.00000000000E+00 0. -1.
         11    1    3    3    0    0  0.44024111588E+01 -0.15349353036E+00 -0.41440293821E+01  0.60479553616E+01  0.51100000000E-03 0. -1.
        -11    1    3    3    0    0 -0.11010303608E+02 -0.84775895323E+00 -0.16238721814E+02  0.19637758711E+02  0.51100000000E-03 0.  1.
         12    1    3    3    0    0 -0.40801040072E+01  0.13459981665E+01 -0.21679947609E+02  0.22101563024E+02  0.00000000000E+00 0. -1.
</event>
<event>
 7    1  0.4477737E-009  0.4778727E+02  0.7816164E-02  0.1312668E+00
        -11   -1    0    0    0    0  0.00000000000E+00  0.00000000000E+00  0.45593999997E+02  0.45594000000E+02  0.51100000000E-03 0. -1.
         11   -1    0    0    0    0 -0.00000000000E+00 -0.00000000000E+00 -0.45593999997E+02  0.45594000000E+02  0.51100000000E-03 0.  1.
    9900012    2    1    2    0    0 -0.15634618096E+02  0.31886646436E+02 -0.24948418162E+02  0.47787273362E+02  0.20000010566E+02 0.  0.
         12    1    1    2    0    0  0.15634618096E+02 -0.31886646436E+02  0.24948418162E+02  0.43400726638E+02  0.00000000000E+00 0. -1.
         11    1    3    3    0    0 -0.80638935556E+01  0.29588413860E+02 -0.21514967208E+02  0.37461906362E+02  0.51100000000E-03 0.  1.
        -11    1    3    3    0    0 -0.30568181524E+01 -0.16019177990E+01 -0.17600601698E-01  0.34511719595E+01  0.51100000000E-03 0. -1.
        -12    1    3    3    0    0 -0.45139063880E+01  0.39001503744E+01 -0.34158503528E+01  0.68741950406E+01  0.00000000000E+00 0.  1.
</event>
<event>
 7    1  0.4477737E-009  0.4778727E+02  0.7816164E-02  0.1312668E+00
        -11   -1    0    0    0    0  0.00000000000E+00  0.00000000000E+00  0.45593999997E+02  0.45594000000E+02  0.51100000000E-03 0.  1.
         11   -1    0    0    0    0 -0.00000000000E+00 -0.00000000000E+00 -0.45593999997E+02  0.45594000000E+02  0.51100000000E-03 0. -1.
    9900012    2    1    2    0    0  0.39725912755E+02  0.53788805470E+01  0.16629590080E+02  0.47787265370E+02  0.19999974129E+02 0.  0.
         12    1    1    2    0    0 -0.39725912755E+02 -0.53788805470E+01 -0.16629590080E+02  0.43400734630E+02  0.00000000000E+00 0. -1.
         11    1    3    3    0    0  0.30701177849E+01  0.20746089531E+01 -0.31550626278E+01  0.48666257271E+01  0.51100000000E-03 0. -1.
        -11    1    3    3    0    0  0.26463261227E+02 -0.20786284208E+01  0.13196895167E+02  0.29644273194E+02  0.51100000000E-03 0.  1.
        -12    1    3    3    0    0  0.10192533743E+02  0.53829000147E+01  0.65877575412E+01  0.13276366449E+02  0.00000000000E+00 0.  1.
</event>
<event>
 7    1  0.4477737E-009  0.4778727E+02  0.7816164E-02  0.1312668E+00
        -11   -1    0    0    0    0  0.00000000000E+00  0.00000000000E+00  0.45593999997E+02  0.45594000000E+02  0.51100000000E-03 0.  1.
         11   -1    0    0    0    0 -0.00000000000E+00 -0.00000000000E+00 -0.45593999997E+02  0.45594000000E+02  0.51100000000E-03 0. -1.
    9900012    2    1    2    0    0 -0.13784090077E+02 -0.16258081678E+02  0.37806042521E+02  0.47787271778E+02  0.20000003344E+02 0.  0.
         12    1    1    2    0    0  0.13784090077E+02  0.16258081678E+02 -0.37806042521E+02  0.43400728222E+02  0.00000000000E+00 0. -1.
         11    1    3    3    0    0  0.15962568519E+01  0.23294973462E+01  0.51097005860E+01  0.58381190604E+01  0.51100000000E-03 0. -1.
        -11    1    3    3    0    0 -0.15640405597E+02 -0.13657203780E+02  0.29473518101E+02  0.36053152037E+02  0.51100000000E-03 0.  1.
        -12    1    3    3    0    0  0.26005866723E+00 -0.49303752440E+01  0.32228238338E+01  0.58960006801E+01  0.00000000000E+00 0.  1.
</event>
<event>
 7    1  0.4477737E-009  0.4778727E+02  0.7816164E-02  0.1312668E+00
        -11   -1    0    0    0    0  0.00000000000E+00  0.00000000000E+00  0.45593999997E+02  0.45594000000E+02  0.51100000000E-03 0. -1.
         11   -1    0    0    0    0 -0.00000000000E+00 -0.00000000000E+00 -0.45593999997E+02  0.45594000000E+02  0.51100000000E-03 0.  1.
    9900012    2    1    2    0    0  0.20053177214E+02  0.26592019151E+01 -0.38398203883E+02  0.47787270367E+02  0.19999996912E+02 0.  0.
         12    1    1    2    0    0 -0.20053177214E+02 -0.26592019151E+01  0.38398203883E+02  0.43400729633E+02  0.00000000000E+00 0. -1.
         11    1    3    3    0    0  0.87220999946E+01 -0.24381712548E-01 -0.29831572950E+01  0.92181804328E+01  0.51100000000E-03 0. -1.
        -11    1    3    3    0    0  0.76661899877E+01  0.28082532979E+01 -0.33403125667E+02  0.34386415342E+02  0.51100000000E-03 0.  1.
        -12    1    3    3    0    0  0.36648872321E+01 -0.12466967032E+00 -0.20119209213E+01  0.41826745922E+01  0.00000000000E+00 0.  1.
</event>
<event>
 7    1  0.4477737E-009  0.4778727E+02  0.7816164E-02  0.1312668E+00
        -11   -1    0    0    0    0  0.00000000000E+00  0.00000000000E+00  0.45593999997E+02  0.45594000000E+02  0.51100000000E-03 0. -1.
         11   -1    0    0    0    0 -0.00000000000E+00 -0.00000000000E+00 -0.45593999997E+02  0.45594000000E+02  0.51100000000E-03 0.  1.
    9900012    2    1    2    0    0 -0.22308890110E+02 -0.32162684433E+02 -0.18748292510E+02  0.47787270514E+02  0.19999997582E+02 0.  0.
         12    1    1    2    0    0  0.22308890110E+02  0.32162684433E+02  0.18748292510E+02  0.43400729486E+02  0.00000000000E+00 0. -1.
         11    1    3    3    0    0  0.26140266774E+00  0.19142864735E+01 -0.19287940082E+01  0.27300312534E+01  0.51100000000E-03 0. -1.
        -11    1    3    3    0    0 -0.10967929261E+02 -0.19646822939E+02 -0.13517375608E+02  0.26249048887E+02  0.51100000000E-03 0.  1.
         12    1    3    3    0    0 -0.11602363516E+02 -0.14430147968E+02 -0.33021228938E+01  0.18808190374E+02  0.00000000000E+00 0. -1.
</event>
<event>
 7    1  0.4477737E-009  0.4778727E+02  0.7816164E-02  0.1312668E+00
        -11   -1    0    0    0    0  0.00000000000E+00  0.00000000000E+00  0.45593999997E+02  0.45594000000E+02  0.51100000000E-03 0.  1.
         11   -1    0    0    0    0 -0.00000000000E+00 -0.00000000000E+00 -0.45593999997E+02  0.45594000000E+02  0.51100000000E-03 0. -1.
    9900012    2    1    2    0    0  0.84378086208E+01  0.21535415606E+02  0.36724006173E+02  0.47787269948E+02  0.19999995000E+02 0.  0.
         12    1    1    2    0    0 -0.84378086208E+01 -0.21535415606E+02 -0.36724006173E+02  0.43400730052E+02  0.00000000000E+00 0. -1.
         11    1    3    3    0    0  0.10357110795E+02  0.52178380949E+01  0.14019817521E+02  0.18194803159E+02  0.51100000000E-03 0.  1.
        -11    1    3    3    0    0 -0.26611894826E+01  0.11787289131E+02  0.87961200409E+01  0.14946365530E+02  0.51100000000E-03 0. -1.
        -12    1    3    3    0    0  0.74188730812E+00  0.45302883804E+01  0.13908068611E+02  0.14646101259E+02  0.00000000000E+00 0.  1.
</event>
<event>
 7    1  0.4477737E-009  0.4778727E+02  0.7816164E-02  0.1312668E+00
        -11   -1    0    0    0    0  0.00000000000E+00  0.00000000000E+00  0.45593999997E+02  0.45594000000E+02  0.51100000000E-03 0. -1.
         11   -1    0    0    0    0 -0.00000000000E+00 -0.00000000000E+00 -0.45593999997E+02  0.45594000000E+02  0.51100000000E-03 0.  1.
    9900012    2    1    2    0    0 -0.80730227423E+01  0.25758961207E+02 -0.33984198990E+02  0.47787267752E+02  0.19999984989E+02 0.  0.
         12    1    1    2    0    0  0.80730227423E+01 -0.25758961207E+02  0.33984198990E+02  0.43400732248E+02  0.00000000000E+00 0. -1.
         11    1    3    3    0    0 -0.44906014225E+01  0.11147345755E+02 -0.53208188914E+01  0.13143056435E+02  0.51100000000E-03 0. -1.
        -11    1    3    3    0    0 -0.31509609912E+01  0.16269915246E+02 -0.28440084378E+02  0.32916213284E+02  0.51100000000E-03 0.  1.
        -12    1    3    3    0    0 -0.43146032866E+00 -0.16582997939E+01 -0.22329572025E+00  0.17279980325E+01  0.00000000000E+00 0.  1.
</event>
<event>
 7    1  0.4477737E-009  0.4778727E+02  0.7816164E-02  0.1312668E+00
        -11   -1    0    0    0    0  0.00000000000E+00  0.00000000000E+00  0.45593999997E+02  0.45594000000E+02  0.51100000000E-03 0.  1.
         11   -1    0    0    0    0 -0.00000000000E+00 -0.00000000000E+00 -0.45593999997E+02  0.45594000000E+02  0.51100000000E-03 0. -1.
    9900012    2    1    2    0    0  0.21020123763E+02  0.30247951639E+02  0.22952976088E+02  0.47787270828E+02  0.19999999013E+02 0.  0.
         12    1    1    2    0    0 -0.21020123763E+02 -0.30247951639E+02 -0.22952976088E+02  0.43400729172E+02  0.00000000000E+00 0. -1.
         11    1    3    3    0    0  0.40503378225E+01  0.14501320659E+01  0.10397319710E+02  0.11252216532E+02  0.51100000000E-03 0. -1.
        -11    1    3    3    0    0  0.13242725875E+02  0.25381336679E+02  0.79893671854E+01  0.29722248039E+02  0.51100000000E-03 0.  1.
        -12    1    3    3    0    0  0.37270600656E+01  0.34164828943E+01  0.45662891927E+01  0.68128062566E+01  0.00000000000E+00 0.  1.
</event>
<event>
 7    1  0.4477737E-009  0.4778727E+02  0.7816164E-02  0.1312668E+00
        -11   -1    0    0    0    0  0.00000000000E+00  0.00000000000E+00  0.45593999997E+02  0.45594000000E+02  0.51100000000E-03 0. -1.
         11   -1    0    0    0    0 -0.00000000000E+00 -0.00000000000E+00 -0.45593999997E+02  0.45594000000E+02  0.51100000000E-03 0.  1.
    9900012    2    1    2    0    0  0.86609324907E+01 -0.40797136371E+02 -0.12008549529E+02  0.47787270173E+02  0.19999996027E+02 0.  0.
         12    1    1    2    0    0 -0.86609324907E+01  0.40797136371E+02  0.12008549529E+02  0.43400729827E+02  0.00000000000E+00 0. -1.
         11    1    3    3    0    0  0.40244385638E+01 -0.36741787861E+01  0.25092101286E+01  0.59993192311E+01  0.51100000000E-03 0. -1.
        -11    1    3    3    0    0  0.20986142402E+01 -0.14940564437E+02 -0.12081344234E+02  0.19328308932E+02  0.51100000000E-03 0.  1.
        -12    1    3    3    0    0  0.25378796867E+01 -0.22182393148E+02 -0.24364154237E+01  0.22459642010E+02  0.00000000000E+00 0.  1.
</event>
<event>
 7    1  0.4477737E-009  0.4778727E+02  0.7816164E-02  0.1312668E+00
        -11   -1    0    0    0    0  0.00000000000E+00  0.00000000000E+00  0.45593999997E+02  0.45594000000E+02  0.51100000000E-03 0.  1.
         11   -1    0    0    0    0 -0.00000000000E+00 -0.00000000000E+00 -0.45593999997E+02  0.45594000000E+02  0.51100000000E-03 0. -1.
    9900012    2    1    2    0    0 -0.25932343944E+02 -0.30142461914E+02  0.17394505198E+02  0.47787270930E+02  0.19999999479E+02 0.  0.
         12    1    1    2    0    0  0.25932343944E+02  0.30142461914E+02 -0.17394505198E+02  0.43400729070E+02  0.00000000000E+00 0. -1.
         11    1    3    3    0    0 -0.33175154362E+00 -0.24388004306E+01 -0.84233372718E+00  0.26014098093E+01  0.51100000000E-03 0. -1.
        -11    1    3    3    0    0 -0.24355919781E+01 -0.14103205156E+02  0.44237909217E+01  0.14980067768E+02  0.51100000000E-03 0.  1.
        -12    1    3    3    0    0 -0.23165000423E+02 -0.13600456327E+02  0.13813048004E+02  0.30205793352E+02  0.00000000000E+00 0.  1.
</event>
<event>
 7    1  0.4477737E-009  0.4778727E+02  0.7816164E-02  0.1312668E+00
        -11   -1    0    0    0    0  0.00000000000E+00  0.00000000000E+00  0.45593999997E+02  0.45594000000E+02  0.51100000000E-03 0. -1.
         11   -1    0    0    0    0 -0.00000000000E+00 -0.00000000000E+00 -0.45593999997E+02  0.45594000000E+02  0.51100000000E-03 0.  1.
    9900012    2    1    2    0    0  0.91872777263E+01 -0.83712135312E+01 -0.41582929444E+02  0.47787270638E+02  0.19999998148E+02 0.  0.
         12    1    1    2    0    0 -0.91872777263E+01  0.83712135312E+01  0.41582929444E+02  0.43400729362E+02  0.00000000000E+00 0. -1.
         11    1    3    3    0    0  0.19450140897E+01 -0.61025971544E+01 -0.32475970667E+01  0.71813410173E+01  0.51100000000E-03 0. -1.
        -11    1    3    3    0    0  0.86061301206E+01 -0.45509343994E+01 -0.35064025827E+02  0.36390416142E+02  0.51100000000E-03 0.  1.
         12    1    3    3    0    0 -0.13638664840E+01  0.22823180226E+01 -0.32713065504E+01  0.42155134787E+01  0.00000000000E+00 0. -1.
</event>
<event>
 7    1  0.4477737E-009  0.4778728E+02  0.7816164E-02  0.1312668E+00
        -11   -1    0    0    0    0  0.00000000000E+00  0.00000000000E+00  0.45593999997E+02  0.45594000000E+02  0.51100000000E-03 0. -1.
         11   -1    0    0    0    0 -0.00000000000E+00 -0.00000000000E+00 -0.45593999997E+02  0.45594000000E+02  0.51100000000E-03 0.  1.
    9900012    2    1    2    0    0  0.26420992101E+02 -0.12297677031E+02 -0.32160863094E+02  0.47787276516E+02  0.20000024949E+02 0.  0.
         12    1    1    2    0    0 -0.26420992101E+02  0.12297677031E+02  0.32160863094E+02  0.43400723484E+02  0.00000000000E+00 0. -1.
         11    1    3    3    0    0  0.32346060618E+01 -0.75159495594E+01 -0.23032203550E+01  0.85004116617E+01  0.51100000000E-03 0. -1.
        -11    1    3    3    0    0  0.22352810632E+02 -0.55716920651E+01 -0.30294206496E+02  0.38058255913E+02  0.51100000000E-03 0.  1.
        -12    1    3    3    0    0  0.83357540684E+00  0.78996459381E+00  0.43656375704E+00  0.12286089420E+01  0.00000000000E+00 0.  1.
</event>
<event>
 7    1  0.4477737E-009  0.4778727E+02  0.7816164E-02  0.1312668E+00
        -11   -1    0    0    0    0  0.00000000000E+00  0.00000000000E+00  0.45593999997E+02  0.45594000000E+02  0.51100000000E-03 0. -1.
         11   -1    0    0    0    0 -0.00000000000E+00 -0.00000000000E+00 -0.45593999997E+02  0.45594000000E+02  0.51100000000E-03 0.  1.
    9900012    2    1    2    0    0  0.17150512564E+02 -0.38543537494E+02 -0.10192090645E+02  0.47787273330E+02  0.20000010420E+02 0.  0.
         12    1    1    2    0    0 -0.17150512564E+02  0.38543537494E+02  0.10192090645E+02  0.43400726670E+02  0.00000000000E+00 0. -1.
         11    1    3    3    0    0  0.10558965027E+02 -0.23623483469E+02 -0.14694005835E+02  0.29756923924E+02  0.51100000000E-03 0. -1.
        -11    1    3    3    0    0  0.69628229968E+01 -0.13589983097E+02  0.23155863477E+01  0.15444432171E+02  0.51100000000E-03 0.  1.
         12    1    3    3    0    0 -0.37127545922E+00 -0.13300709273E+01  0.21863288430E+01  0.25859172353E+01  0.00000000000E+00 0. -1.
</event>
<event>
 7    1  0.4477737E-009  0.4778722E+02  0.7816164E-02  0.1312668E+00
        -11   -1    0    0    0    0  0.00000000000E+00  0.00000000000E+00  0.45593999997E+02  0.45594000000E+02  0.51100000000E-03 0.  1.
         11   -1    0    0    0    0 -0.00000000000E+00 -0.00000000000E+00 -0.45593999997E+02  0.45594000000E+02  0.51100000000E-03 0. -1.
    9900012    2    1    2    0    0  0.22138531986E+02  0.20080890828E+02 -0.31468568945E+02  0.47787221132E+02  0.19999772426E+02 0.  0.
         12    1    1    2    0    0 -0.22138531986E+02 -0.20080890828E+02  0.31468568945E+02  0.43400778868E+02  0.00000000000E+00 0. -1.
         11    1    3    3    0    0  0.61623455092E+01  0.21732744588E+00 -0.67036038498E+01  0.91082401280E+01  0.51100000000E-03 0. -1.
        -11    1    3    3    0    0  0.17730930836E+02  0.15332269432E+02 -0.15162701989E+02  0.27917233497E+02  0.51100000000E-03 0.  1.
        -12    1    3    3    0    0 -0.17547443600E+01  0.45312939504E+01 -0.96022631064E+01  0.10761747507E+02  0.00000000000E+00 0.  1.
</event>
<event>
 7    1  0.4477737E-009  0.4778728E+02  0.7816164E-02  0.1312668E+00
        -11   -1    0    0    0    0  0.00000000000E+00  0.00000000000E+00  0.45593999997E+02  0.45594000000E+02  0.51100000000E-03 0.  1.
         11   -1    0    0    0    0 -0.00000000000E+00 -0.00000000000E+00 -0.45593999997E+02  0.45594000000E+02  0.51100000000E-03 0. -1.
    9900012    2    1    2    0    0  0.29593109640E+02  0.27329041145E+02  0.16155293837E+02  0.47787284026E+02  0.20000059190E+02 0.  0.
         12    1    1    2    0    0 -0.29593109640E+02 -0.27329041145E+02 -0.16155293837E+02  0.43400715974E+02  0.00000000000E+00 0. -1.
         11    1    3    3    0    0 -0.27974123745E+00  0.53176209075E+01  0.24057806814E+01  0.58432121495E+01  0.51100000000E-03 0. -1.
        -11    1    3    3    0    0  0.24353485714E+02  0.22151963139E+02  0.15162401755E+02  0.36245001926E+02  0.51100000000E-03 0.  1.
        -12    1    3    3    0    0  0.55193651633E+01 -0.14054290196E+00 -0.14128885995E+01  0.56990699511E+01  0.00000000000E+00 0.  1.
</event>
<event>
 7    1  0.4477737E-009  0.4778727E+02  0.7816164E-02  0.1312668E+00
        -11   -1    0    0    0    0  0.00000000000E+00  0.00000000000E+00  0.45593999997E+02  0.45594000000E+02  0.51100000000E-03 0.  1.
         11   -1    0    0    0    0 -0.00000000000E+00 -0.00000000000E+00 -0.45593999997E+02  0.45594000000E+02  0.51100000000E-03 0. -1.
    9900012    2    1    2    0    0 -0.21400939184E+02  0.15770296716E+02  0.34306280639E+02  0.47787270193E+02  0.19999996117E+02 0.  0.
         12    1    1    2    0    0  0.21400939184E+02 -0.15770296716E+02 -0.34306280639E+02  0.43400729807E+02  0.00000000000E+00 0. -1.
         11    1    3    3    0    0 -0.73585673545E+01  0.76798307754E+01  0.28152197520E+02  0.30094427054E+02  0.51100000000E-03 0. -1.
        -11    1    3    3    0    0 -0.73196719662E+01  0.58572412232E+01  0.45911132912E+01  0.10438543670E+02  0.51100000000E-03 0.  1.
         12    1    3    3    0    0 -0.67226998635E+01  0.22332247178E+01  0.15629698279E+01  0.72542994684E+01  0.00000000000E+00 0. -1.
</event>
<event>
 7    1  0.4477737E-009  0.4778727E+02  0.7816164E-02  0.1312668E+00
        -11   -1    0    0    0    0  0.00000000000E+00  0.00000000000E+00  0.45593999997E+02  0.45594000000E+02  0.51100000000E-03 0. -1.
         11   -1    0    0    0    0 -0.00000000000E+00 -0.00000000000E+00 -0.45593999997E+02  0.45594000000E+02  0.51100000000E-03 0.  1.
    9900012    2    1    2    0    0  0.56544219290E+01  0.39389353875E+02 -0.17324247224E+02  0.47787271574E+02  0.20000002413E+02 0.  0.
         12    1    1    2    0    0 -0.56544219290E+01 -0.39389353875E+02  0.17324247224E+02  0.43400728426E+02  0.00000000000E+00 0. -1.
         11    1    3    3    0    0 -0.36708208476E+01  0.20151835554E+02 -0.10650613547E+02  0.23086943737E+02  0.51100000000E-03 0. -1.
        -11    1    3    3    0    0  0.60413424225E+01  0.17713380300E+02 -0.20489428019E+01  0.18827103516E+02  0.51100000000E-03 0.  1.
         12    1    3    3    0    0  0.32839003541E+01  0.15241380207E+01 -0.46246908748E+01  0.58732243214E+01  0.00000000000E+00 0. -1.
</event>
<event>
 7    1  0.4477737E-009  0.4778728E+02  0.7816164E-02  0.1312668E+00
        -11   -1    0    0    0    0  0.00000000000E+00  0.00000000000E+00  0.45593999997E+02  0.45594000000E+02  0.51100000000E-03 0. -1.
         11   -1    0    0    0    0 -0.00000000000E+00 -0.00000000000E+00 -0.45593999997E+02  0.45594000000E+02  0.51100000000E-03 0.  1.
    9900012    2    1    2    0    0  0.43180795598E+02  0.40334053931E+01 -0.16651604312E+01  0.47787283107E+02  0.20000055000E+02 0.  0.
         12    1    1    2    0    0 -0.43180795598E+02 -0.40334053931E+01  0.16651604312E+01  0.43400716893E+02  0.00000000000E+00 0. -1.
         11    1    3    3    0    0  0.24979901641E+01 -0.28137155703E+01 -0.44492591462E+01  0.58269080465E+01  0.51100000000E-03 0. -1.
        -11    1    3    3    0    0  0.20228080128E+02  0.59691573834E+01 -0.11106653227E+01  0.21119650642E+02  0.51100000000E-03 0.  1.
         12    1    3    3    0    0  0.20454725306E+02  0.87796358006E+00  0.38947640378E+01  0.20840724419E+02  0.00000000000E+00 0. -1.
</event>
<event>
 7    1  0.4477737E-009  0.4778729E+02  0.7816164E-02  0.1312668E+00
        -11   -1    0    0    0    0  0.00000000000E+00  0.00000000000E+00  0.45593999997E+02  0.45594000000E+02  0.51100000000E-03 0. -1.
         11   -1    0    0    0    0 -0.00000000000E+00 -0.00000000000E+00 -0.45593999997E+02  0.45594000000E+02  0.51100000000E-03 0.  1.
    9900012    2    1    2    0    0  0.42059293753E+02  0.44217261514E+01  0.97511934490E+01  0.47787290019E+02  0.20000086515E+02 0.  0.
         12    1    1    2    0    0 -0.42059293753E+02 -0.44217261514E+01 -0.97511934490E+01  0.43400709981E+02  0.00000000000E+00 0. -1.
         11    1    3    3    0    0  0.20111234319E+02  0.57636202254E+01  0.27756683591E+01  0.21104155966E+02  0.51100000000E-03 0.  1.
        -11    1    3    3    0    0  0.12614928947E+02 -0.74396430408E+00  0.10757029906E+02  0.16595288725E+02  0.51100000000E-03 0. -1.
        -12    1    3    3    0    0  0.93331304871E+01 -0.59792976999E+00 -0.37815048159E+01  0.10087845329E+02  0.00000000000E+00 0.  1.
</event>
<event>
 7    1  0.4477737E-009  0.4778725E+02  0.7816164E-02  0.1312668E+00
        -11   -1    0    0    0    0  0.00000000000E+00  0.00000000000E+00  0.45593999997E+02  0.45594000000E+02  0.51100000000E-03 0.  1.
         11   -1    0    0    0    0 -0.00000000000E+00 -0.00000000000E+00 -0.45593999997E+02  0.45594000000E+02  0.51100000000E-03 0. -1.
    9900012    2    1    2    0    0  0.34947013517E+02 -0.21507901282E+02  0.14132992665E+02  0.47787250549E+02  0.19999906551E+02 0.  0.
         12    1    1    2    0    0 -0.34947013517E+02  0.21507901282E+02 -0.14132992665E+02  0.43400749451E+02  0.00000000000E+00 0. -1.
         11    1    3    3    0    0  0.15553328446E+02 -0.13428468850E+02  0.97108976259E+01  0.22727325720E+02  0.51100000000E-03 0. -1.
        -11    1    3    3    0    0  0.12759683417E+02  0.94302469577E+00  0.52516919556E+01  0.13830368222E+02  0.51100000000E-03 0.  1.
        -12    1    3    3    0    0  0.66340016529E+01 -0.90224571274E+01 -0.82959691689E+00  0.11229556607E+02  0.00000000000E+00 0.  1.
</event>
<event>
 7    1  0.4477737E-009  0.4778727E+02  0.7816164E-02  0.1312668E+00
        -11   -1    0    0    0    0  0.00000000000E+00  0.00000000000E+00  0.45593999997E+02  0.45594000000E+02  0.51100000000E-03 0.  1.
         11   -1    0    0    0    0 -0.00000000000E+00 -0.00000000000E+00 -0.45593999997E+02  0.45594000000E+02  0.51100000000E-03 0. -1.
    9900012    2    1    2    0    0  0.18298272884E+01  0.31823036745E+02  0.29454535903E+02  0.47787267047E+02  0.19999981773E+02 0.  0.
         12    1    1    2    0    0 -0.18298272884E+01 -0.31823036745E+02 -0.29454535903E+02  0.43400732953E+02  0.00000000000E+00 0. -1.
         11    1    3    3    0    0 -0.51003552713E+01  0.51261570756E+01  0.13422377603E+02  0.15246354681E+02  0.51100000000E-03 0. -1.
        -11    1    3    3    0    0  0.33434682450E+01  0.22223532205E+02  0.13892800512E+02  0.26421091383E+02  0.51100000000E-03 0.  1.
         12    1    3    3    0    0  0.35867143147E+01  0.44733474650E+01  0.21393577880E+01  0.61198209829E+01  0.00000000000E+00 0. -1.
</event>
<event>
 7    1  0.4477737E-009  0.4778727E+02  0.7816164E-02  0.1312668E+00
        -11   -1    0    0    0    0  0.00000000000E+00  0.00000000000E+00  0.45593999997E+02  0.45594000000E+02  0.51100000000E-03 0.  1.
         11   -1    0    0    0    0 -0.00000000000E+00 -0.00000000000E+00 -0.45593999997E+02  0.45594000000E+02  0.51100000000E-03 0. -1.
    9900012    2    1    2    0    0 -0.12442819886E+02 -0.87168480464E+01  0.40654838457E+02  0.47787273087E+02  0.20000009314E+02 0.  0.
         12    1    1    2    0    0  0.12442819886E+02  0.87168480464E+01 -0.40654838457E+02  0.43400726913E+02  0.00000000000E+00 0. -1.
         11    1    3    3    0    0  0.42381199329E+01  0.22475047968E+01  0.53288598995E+01  0.71700548441E+01  0.51100000000E-03 0. -1.
        -11    1    3    3    0    0 -0.15432350126E+02 -0.96439576411E+01  0.31427464710E+02  0.36315959133E+02  0.51100000000E-03 0.  1.
         12    1    3    3    0    0 -0.12485896930E+01 -0.13203952021E+01  0.38985138478E+01  0.43012591101E+01  0.00000000000E+00 0. -1.
</event>
<event>
 7    1  0.4540537E-009  0.4778727E+02  0.7816164E-02  0.1312668E+00
        -11   -1    0    0    0    0  0.00000000000E+00  0.00000000000E+00  0.45593999997E+02  0.45594000000E+02  0.51100000000E-03 0.  1.
         11   -1    0    0    0    0 -0.00000000000E+00 -0.00000000000E+00 -0.45593999997E+02  0.45594000000E+02  0.51100000000E-03 0. -1.
    9900012    2    1    2    0    0 -0.30685364555E+02  0.12664818766E+01  0.30666394186E+02  0.47787270668E+02  0.19999998282E+02 0.  0.
         12    1    1    2    0    0  0.30685364555E+02 -0.12664818766E+01 -0.30666394186E+02  0.43400729332E+02  0.00000000000E+00 0. -1.
         11    1    3    3    0    0  0.15385351074E+01 -0.90038434930E+00  0.47869935472E+00  0.18457886083E+01  0.51100000000E-03 0. -1.
        -11    1    3    3    0    0 -0.25366278391E+02  0.36303937902E+01  0.29217788565E+02  0.38862668557E+02  0.51100000000E-03 0.  1.
        -12    1    3    3    0    0 -0.68576212712E+01 -0.14635275643E+01  0.96990626573E+00  0.70788135019E+01  0.00000000000E+00 0.  1.
</event>
<event>
 7    1  0.4477737E-009  0.4778727E+02  0.7816164E-02  0.1312668E+00
        -11   -1    0    0    0    0  0.00000000000E+00  0.00000000000E+00  0.45593999997E+02  0.45594000000E+02  0.51100000000E-03 0.  1.
         11   -1    0    0    0    0 -0.00000000000E+00 -0.00000000000E+00 -0.45593999997E+02  0.45594000000E+02  0.51100000000E-03 0. -1.
    9900012    2    1    2    0    0 -0.69009889266E+01 -0.61591432363E+01  0.42403589539E+02  0.47787273055E+02  0.20000009165E+02 0.  0.
         12    1    1    2    0    0  0.69009889266E+01  0.61591432363E+01 -0.42403589539E+02  0.43400726945E+02  0.00000000000E+00 0. -1.
         11    1    3    3    0    0  0.71194641955E+00  0.35480857080E+01  0.47334730535E-01  0.36191187786E+01  0.51100000000E-03 0. -1.
        -11    1    3    3    0    0 -0.60183751983E+01 -0.60729070996E+01  0.28534361273E+02  0.29787762826E+02  0.51100000000E-03 0.  1.
         12    1    3    3    0    0 -0.15945601479E+01 -0.36343218448E+01  0.13821893535E+02  0.14380391450E+02  0.00000000000E+00 0. -1.
</event>
<event>
 7    1  0.4477737E-009  0.4778727E+02  0.7816164E-02  0.1312668E+00
        -11   -1    0    0    0    0  0.00000000000E+00  0.00000000000E+00  0.45593999997E+02  0.45594000000E+02  0.51100000000E-03 0.  1.
         11   -1    0    0    0    0 -0.00000000000E+00 -0.00000000000E+00 -0.45593999997E+02  0.45594000000E+02  0.51100000000E-03 0. -1.
    9900012    2    1    2    0    0 -0.49108339682E+00  0.35760475751E+02  0.24588011829E+02  0.47787272880E+02  0.20000008369E+02 0.  0.
         12    1    1    2    0    0  0.49108339682E+00 -0.35760475751E+02 -0.24588011829E+02  0.43400727120E+02  0.00000000000E+00 0. -1.
         11    1    3    3    0    0  0.14266926405E+01 -0.27779150113E+00  0.61235816925E+01  0.62937169474E+01  0.51100000000E-03 0. -1.
        -11    1    3    3    0    0  0.55732127917E+00  0.33851576327E+02  0.16822418343E+02  0.37805205805E+02  0.51100000000E-03 0.  1.
        -12    1    3    3    0    0 -0.24750973165E+01  0.21866909255E+01  0.16420117933E+01  0.36883501270E+01  0.00000000000E+00 0.  1.
</event>
<event>
 7    1  0.4477737E-009  0.4778727E+02  0.7816164E-02  0.1312668E+00
        -11   -1    0    0    0    0  0.00000000000E+00  0.00000000000E+00  0.45593999997E+02  0.45594000000E+02  0.51100000000E-03 0.  1.
         11   -1    0    0    0    0 -0.00000000000E+00 -0.00000000000E+00 -0.45593999997E+02  0.45594000000E+02  0.51100000000E-03 0. -1.
    9900012    2    1    2    0    0  0.31750197039E+02 -0.17591356231E+02  0.23792706777E+02  0.47787265884E+02  0.19999976471E+02 0.  0.
         12    1    1    2    0    0 -0.31750197039E+02  0.17591356231E+02 -0.23792706777E+02  0.43400734116E+02  0.00000000000E+00 0. -1.
         11    1    3    3    0    0  0.18095753071E+02 -0.13094790041E+02  0.20731326998E+02  0.30474870382E+02  0.51100000000E-03 0. -1.
        -11    1    3    3    0    0  0.11108061560E+02 -0.50839971901E+00  0.50086012142E+01  0.12195638084E+02  0.51100000000E-03 0.  1.
         12    1    3    3    0    0  0.25463824076E+01 -0.39881664706E+01 -0.19472214345E+01  0.51167574183E+01  0.00000000000E+00 0. -1.
</event>
<event>
 7    1  0.4477737E-009  0.4778727E+02  0.7816164E-02  0.1312668E+00
        -11   -1    0    0    0    0  0.00000000000E+00  0.00000000000E+00  0.45593999997E+02  0.45594000000E+02  0.51100000000E-03 0.  1.
         11   -1    0    0    0    0 -0.00000000000E+00 -0.00000000000E+00 -0.45593999997E+02  0.45594000000E+02  0.51100000000E-03 0. -1.
    9900012    2    1    2    0    0 -0.27955009185E+02  0.16742026884E+02  0.28667840141E+02  0.47787273496E+02  0.20000011179E+02 0.  0.
         12    1    1    2    0    0  0.27955009185E+02 -0.16742026884E+02 -0.28667840141E+02  0.43400726504E+02  0.00000000000E+00 0. -1.
         11    1    3    3    0    0 -0.12914297719E+02  0.74726632802E+01  0.39640852152E+01  0.15438061858E+02  0.51100000000E-03 0. -1.
        -11    1    3    3    0    0 -0.84486628900E+01  0.11071111997E+02  0.18182781914E+02  0.22903340016E+02  0.51100000000E-03 0.  1.
        -12    1    3    3    0    0 -0.65920485761E+01 -0.18017483929E+01  0.65209730115E+01  0.94458716229E+01  0.00000000000E+00 0.  1.
</event>
<event>
 7    1  0.4477737E-009  0.4778727E+02  0.7816164E-02  0.1312668E+00
        -11   -1    0    0    0    0  0.00000000000E+00  0.00000000000E+00  0.45593999997E+02  0.45594000000E+02  0.51100000000E-03 0.  1.
         11   -1    0    0    0    0 -0.00000000000E+00 -0.00000000000E+00 -0.45593999997E+02  0.45594000000E+02  0.51100000000E-03 0. -1.
    9900012    2    1    2    0    0 -0.15545321680E+02 -0.39528602018E+02  0.89137961240E+01  0.47787272299E+02  0.20000005719E+02 0.  0.
         12    1    1    2    0    0  0.15545321680E+02  0.39528602018E+02 -0.89137961240E+01  0.43400727701E+02  0.00000000000E+00 0. -1.
         11    1    3    3    0    0 -0.24644813045E+01  0.99289476064E+00  0.28822192799E+01  0.39200377988E+01  0.51100000000E-03 0. -1.
        -11    1    3    3    0    0 -0.94580168401E+01 -0.32662180669E+02  0.81298915430E+01  0.34962369276E+02  0.51100000000E-03 0.  1.
        -12    1    3    3    0    0 -0.36228235355E+01 -0.78593161096E+01 -0.20983146988E+01  0.89048652239E+01  0.00000000000E+00 0.  1.
</event>
<event>
 7    1  0.4477737E-009  0.4778726E+02  0.7816164E-02  0.1312668E+00
        -11   -1    0    0    0    0  0.00000000000E+00  0.00000000000E+00  0.45593999997E+02  0.45594000000E+02  0.51100000000E-03 0. -1.
         11   -1    0    0    0    0 -0.00000000000E+00 -0.00000000000E+00 -0.45593999997E+02  0.45594000000E+02  0.51100000000E-03 0.  1.
    9900012    2    1    2    0    0 -0.26667629625E+02  0.34218864975E+02 -0.12374156469E+01  0.47787258215E+02  0.19999941505E+02 0.  0.
         12    1    1    2    0    0  0.26667629625E+02 -0.34218864975E+02  0.12374156469E+01  0.43400741785E+02  0.00000000000E+00 0. -1.
         11    1    3    3    0    0 -0.24269951060E+01  0.11714701089E+01  0.32734667646E+01  0.42400745725E+01  0.51100000000E-03 0. -1.
        -11    1    3    3    0    0 -0.21124335626E+02  0.23051503424E+02 -0.84039299044E+01  0.32376463733E+02  0.51100000000E-03 0.  1.
        -12    1    3    3    0    0 -0.31162988933E+01  0.99958914421E+01  0.38930474929E+01  0.11170719909E+02  0.00000000000E+00 0.  1.
</event>
<event>
 7    1  0.4477737E-009  0.4778727E+02  0.7816164E-02  0.1312668E+00
        -11   -1    0    0    0    0  0.00000000000E+00  0.00000000000E+00  0.45593999997E+02  0.45594000000E+02  0.51100000000E-03 0.  1.
         11   -1    0    0    0    0 -0.00000000000E+00 -0.00000000000E+00 -0.45593999997E+02  0.45594000000E+02  0.51100000000E-03 0. -1.
    9900012    2    1    2    0    0 -0.26863290517E+02 -0.13053518510E+02  0.31489558045E+02  0.47787274329E+02  0.20000014976E+02 0.  0.
         12    1    1    2    0    0  0.26863290517E+02  0.13053518510E+02 -0.31489558045E+02  0.43400725671E+02  0.00000000000E+00 0. -1.
         11    1    3    3    0    0 -0.22747537243E+02 -0.65704563298E+01  0.14942234531E+02  0.27998066363E+02  0.51100000000E-03 0. -1.
        -11    1    3    3    0    0 -0.51921339043E+01 -0.24799504652E+01  0.13404228911E+02  0.14587040884E+02  0.51100000000E-03 0.  1.
         12    1    3    3    0    0  0.10763806311E+01 -0.40031117149E+01  0.31430946032E+01  0.52021670821E+01  0.00000000000E+00 0. -1.
</event>
<event>
 7    1  0.4477737E-009  0.4778726E+02  0.7816164E-02  0.1312668E+00
        -11   -1    0    0    0    0  0.00000000000E+00  0.00000000000E+00  0.45593999997E+02  0.45594000000E+02  0.51100000000E-03 0.  1.
         11   -1    0    0    0    0 -0.00000000000E+00 -0.00000000000E+00 -0.45593999997E+02  0.45594000000E+02  0.51100000000E-03 0. -1.
    9900012    2    1    2    0    0 -0.33660368598E+02 -0.39697989473E+00  0.27394274602E+02  0.47787259359E+02  0.19999946721E+02 0.  0.
         12    1    1    2    0    0  0.33660368598E+02  0.39697989473E+00 -0.27394274602E+02  0.43400740641E+02  0.00000000000E+00 0. -1.
         11    1    3    3    0    0 -0.16446165254E+02 -0.95651607830E+01  0.11346311258E+02  0.22151917113E+02  0.51100000000E-03 0. -1.
        -11    1    3    3    0    0 -0.64336055571E+01  0.12685505202E+01  0.62960704138E+01  0.90907097524E+01  0.51100000000E-03 0.  1.
         12    1    3    3    0    0 -0.10780597787E+02  0.78996303681E+01  0.97518929312E+01  0.16544632494E+02  0.00000000000E+00 0. -1.
</event>
<event>
 7    1  0.4477737E-009  0.4778728E+02  0.7816164E-02  0.1312668E+00
        -11   -1    0    0    0    0  0.00000000000E+00  0.00000000000E+00  0.45593999997E+02  0.45594000000E+02  0.51100000000E-03 0.  1.
         11   -1    0    0    0    0 -0.00000000000E+00 -0.00000000000E+00 -0.45593999997E+02  0.45594000000E+02  0.51100000000E-03 0. -1.
    9900012    2    1    2    0    0 -0.35264263003E+02 -0.23392872555E+02  0.96347220686E+01  0.47787278798E+02  0.20000035353E+02 0.  0.
         12    1    1    2    0    0  0.35264263003E+02  0.23392872555E+02 -0.96347220686E+01  0.43400721202E+02  0.00000000000E+00 0. -1.
         11    1    3    3    0    0 -0.11549494843E+01 -0.53671583067E+01  0.56336521509E+01  0.78662782444E+01  0.51100000000E-03 0. -1.
        -11    1    3    3    0    0 -0.29966765770E+02 -0.15307892226E+02  0.15782326131E+00  0.33650609557E+02  0.51100000000E-03 0.  1.
        -12    1    3    3    0    0 -0.41425477484E+01 -0.27178220218E+01  0.38432466565E+01  0.62703909968E+01  0.00000000000E+00 0.  1.
</event>
<event>
 7    1  0.4477737E-009  0.4778727E+02  0.7816164E-02  0.1312668E+00
        -11   -1    0    0    0    0  0.00000000000E+00  0.00000000000E+00  0.45593999997E+02  0.45594000000E+02  0.51100000000E-03 0. -1.
         11   -1    0    0    0    0 -0.00000000000E+00 -0.00000000000E+00 -0.45593999997E+02  0.45594000000E+02  0.51100000000E-03 0.  1.
    9900012    2    1    2    0    0  0.33818650766E+02 -0.27146550287E+02  0.17282471306E+01  0.47787272238E+02  0.20000005443E+02 0.  0.
         12    1    1    2    0    0 -0.33818650766E+02  0.27146550287E+02 -0.17282471306E+01  0.43400727762E+02  0.00000000000E+00 0. -1.
         11    1    3    3    0    0  0.13745796664E+02 -0.22453653354E+02  0.36085489110E+01  0.26573202674E+02  0.51100000000E-03 0. -1.
        -11    1    3    3    0    0  0.15947836972E+02 -0.47153908872E+01  0.11731041986E+00  0.16630759974E+02  0.51100000000E-03 0.  1.
         12    1    3    3    0    0  0.41250171293E+01  0.22493953638E-01 -0.19976122002E+01  0.45833095900E+01  0.00000000000E+00 0. -1.
</event>
<event>
 7    1  0.4477737E-009  0.4778727E+02  0.7816164E-02  0.1312668E+00
        -11   -1    0    0    0    0  0.00000000000E+00  0.00000000000E+00  0.45593999997E+02  0.45594000000E+02  0.51100000000E-03 0.  1.
         11   -1    0    0    0    0 -0.00000000000E+00 -0.00000000000E+00 -0.45593999997E+02  0.45594000000E+02  0.51100000000E-03 0. -1.
    9900012    2    1    2    0    0  0.30135417470E+02  0.26703644357E+02  0.16198620886E+02  0.47787270436E+02  0.19999997228E+02 0.  0.
         12    1    1    2    0    0 -0.30135417470E+02 -0.26703644357E+02 -0.16198620886E+02  0.43400729564E+02  0.00000000000E+00 0. -1.
         11    1    3    3    0    0  0.13711303985E+01  0.55163057252E+01 -0.15950562356E+01  0.59037134145E+01  0.51100000000E-03 0. -1.
        -11    1    3    3    0    0  0.11977595317E+02  0.25342455153E+01  0.93564379210E+01  0.15408702759E+02  0.51100000000E-03 0.  1.
        -12    1    3    3    0    0  0.16786691755E+02  0.18653093117E+02  0.84372392002E+01  0.26474854263E+02  0.00000000000E+00 0.  1.
</event>
<event>
 7    1  0.4477737E-009  0.4778727E+02  0.7816164E-02  0.1312668E+00
        -11   -1    0    0    0    0  0.00000000000E+00  0.00000000000E+00  0.45593999997E+02  0.45594000000E+02  0.51100000000E-03 0.  1.
         11   -1    0    0    0    0 -0.00000000000E+00 -0.00000000000E+00 -0.45593999997E+02  0.45594000000E+02  0.51100000000E-03 0. -1.
    9900012    2    1    2    0    0 -0.22216113680E+02  0.13245768373E+02  0.34851359361E+02  0.47787270327E+02  0.19999996730E+02 0.  0.
         12    1    1    2    0    0  0.22216113680E+02 -0.13245768373E+02 -0.34851359361E+02  0.43400729673E+02  0.00000000000E+00 0. -1.
         11    1    3    3    0    0 -0.25481737329E+01  0.63021839842E+01  0.10625850555E+02  0.12614254342E+02  0.51100000000E-03 0. -1.
        -11    1    3    3    0    0 -0.63820561511E+01  0.95557910504E+00  0.18365025415E+02  0.19465814417E+02  0.51100000000E-03 0.  1.
        -12    1    3    3    0    0 -0.13285883796E+02  0.59880052840E+01  0.58604833909E+01  0.15707201568E+02  0.00000000000E+00 0.  1.
</event>
<event>
 7    1  0.4477737E-009  0.4778728E+02  0.7816164E-02  0.1312668E+00
        -11   -1    0    0    0    0  0.00000000000E+00  0.00000000000E+00  0.45593999997E+02  0.45594000000E+02  0.51100000000E-03 0.  1.
         11   -1    0    0    0    0 -0.00000000000E+00 -0.00000000000E+00 -0.45593999997E+02  0.45594000000E+02  0.51100000000E-03 0. -1.
    9900012    2    1    2    0    0  0.39033896007E+01  0.23016251386E+02  0.36587400315E+02  0.47787284107E+02  0.20000059556E+02 0.  0.
         12    1    1    2    0    0 -0.39033896007E+01 -0.23016251386E+02 -0.36587400315E+02  0.43400715893E+02  0.00000000000E+00 0. -1.
         11    1    3    3    0    0 -0.50710144359E+01  0.74993566113E+01  0.71544411467E+01  0.11538698600E+02  0.51100000000E-03 0. -1.
        -11    1    3    3    0    0  0.37345489645E+01  0.32516664136E+01  0.18040586066E+02  0.18707830881E+02  0.51100000000E-03 0.  1.
        -12    1    3    3    0    0  0.52398550721E+01  0.12265228361E+02  0.11392373103E+02  0.17540754626E+02  0.00000000000E+00 0.  1.
</event>
<event>
 7    1  0.4477737E-009  0.4778725E+02  0.7816164E-02  0.1312668E+00
        -11   -1    0    0    0    0  0.00000000000E+00  0.00000000000E+00  0.45593999997E+02  0.45594000000E+02  0.51100000000E-03 0. -1.
         11   -1    0    0    0    0 -0.00000000000E+00 -0.00000000000E+00 -0.45593999997E+02  0.45594000000E+02  0.51100000000E-03 0.  1.
    9900012    2    1    2    0    0  0.28436510414E+02  0.30069775888E+02 -0.13068980924E+02  0.47787253361E+02  0.19999919373E+02 0.  0.
         12    1    1    2    0    0 -0.28436510414E+02 -0.30069775888E+02  0.13068980924E+02  0.43400746639E+02  0.00000000000E+00 0. -1.
         11    1    3    3    0    0 -0.15208945550E+01  0.83904968692E+00 -0.22227791293E+01  0.28209700359E+01  0.51100000000E-03 0. -1.
        -11    1    3    3    0    0  0.23445391309E+02  0.15346563798E+02 -0.45493046831E+01  0.28388370284E+02  0.51100000000E-03 0.  1.
        -12    1    3    3    0    0  0.65120136593E+01  0.13884162403E+02 -0.62968971121E+01  0.16577913040E+02  0.00000000000E+00 0.  1.
</event>
<event>
 7    1  0.4477737E-009  0.4778726E+02  0.7816164E-02  0.1312668E+00
        -11   -1    0    0    0    0  0.00000000000E+00  0.00000000000E+00  0.45593999997E+02  0.45594000000E+02  0.51100000000E-03 0. -1.
         11   -1    0    0    0    0 -0.00000000000E+00 -0.00000000000E+00 -0.45593999997E+02  0.45594000000E+02  0.51100000000E-03 0.  1.
    9900012    2    1    2    0    0  0.43195438359E+02  0.41950493213E+01  0.42457983797E+00  0.47787255745E+02  0.19999930243E+02 0.  0.
         12    1    1    2    0    0 -0.43195438359E+02 -0.41950493213E+01 -0.42457983797E+00  0.43400744255E+02  0.00000000000E+00 0. -1.
         11    1    3    3    0    0  0.15591548467E+02 -0.30322828942E+01  0.74590886941E+01  0.17547909493E+02  0.51100000000E-03 0. -1.
        -11    1    3    3    0    0  0.13517668766E+02  0.94939745655E+00 -0.58880941880E+01  0.14774923954E+02  0.51100000000E-03 0.  1.
         12    1    3    3    0    0  0.14086221125E+02  0.62779347590E+01 -0.11464146681E+01  0.15464422298E+02  0.00000000000E+00 0. -1.
</event>
<event>
 7    1  0.4477737E-009  0.4778727E+02  0.7816164E-02  0.1312668E+00
        -11   -1    0    0    0    0  0.00000000000E+00  0.00000000000E+00  0.45593999997E+02  0.45594000000E+02  0.51100000000E-03 0.  1.
         11   -1    0    0    0    0 -0.00000000000E+00 -0.00000000000E+00 -0.45593999997E+02  0.45594000000E+02  0.51100000000E-03 0. -1.
    9900012    2    1    2    0    0 -0.84814078350E+01  0.40953575699E+02  0.11597129963E+02  0.47787273454E+02  0.20000010986E+02 0.  0.
         12    1    1    2    0    0  0.84814078350E+01 -0.40953575699E+02 -0.11597129963E+02  0.43400726546E+02  0.00000000000E+00 0. -1.
         11    1    3    3    0    0  0.40020359170E+01  0.96675212481E+01  0.65927636413E+01  0.12366963704E+02  0.51100000000E-03 0. -1.
        -11    1    3    3    0    0 -0.11262150257E+02  0.31803451356E+02  0.48140512820E+01  0.34080355582E+02  0.51100000000E-03 0.  1.
        -12    1    3    3    0    0 -0.12212934951E+01 -0.51739690563E+00  0.19031503930E+00  0.13399541683E+01  0.00000000000E+00 0.  1.
</event>
<event>
 7    1  0.4477737E-009  0.4778727E+02  0.7816164E-02  0.1312668E+00
        -11   -1    0    0    0    0  0.00000000000E+00  0.00000000000E+00  0.45593999997E+02  0.45594000000E+02  0.51100000000E-03 0. -1.
         11   -1    0    0    0    0 -0.00000000000E+00 -0.00000000000E+00 -0.45593999997E+02  0.45594000000E+02  0.51100000000E-03 0.  1.
    9900012    2    1    2    0    0  0.38731385500E+02  0.69988949620E+01 -0.18289846000E+02  0.47787271663E+02  0.20000002821E+02 0.  0.
         12    1    1    2    0    0 -0.38731385500E+02 -0.69988949620E+01  0.18289846000E+02  0.43400728337E+02  0.00000000000E+00 0. -1.
         11    1    3    3    0    0  0.81929267509E+01 -0.50579969070E+01 -0.91999058045E+01  0.13317118627E+02  0.51100000000E-03 0. -1.
        -11    1    3    3    0    0  0.25441779440E+02  0.91548128754E+01 -0.54962709613E+01  0.27591733084E+02  0.51100000000E-03 0.  1.
         12    1    3    3    0    0  0.50966793093E+01  0.29020789936E+01 -0.35936692346E+01  0.68784199519E+01  0.00000000000E+00 0. -1.
</event>
<event>
 7    1  0.4477737E-009  0.4778727E+02  0.7816164E-02  0.1312668E+00
        -11   -1    0    0    0    0  0.00000000000E+00  0.00000000000E+00  0.45593999997E+02  0.45594000000E+02  0.51100000000E-03 0.  1.
         11   -1    0    0    0    0 -0.00000000000E+00 -0.00000000000E+00 -0.45593999997E+02  0.45594000000E+02  0.51100000000E-03 0. -1.
    9900012    2    1    2    0    0  0.12746157181E+01 -0.27735619970E+02  0.33357666930E+02  0.47787271857E+02  0.20000003704E+02 0.  0.
         12    1    1    2    0    0 -0.12746157181E+01  0.27735619970E+02 -0.33357666930E+02  0.43400728143E+02  0.00000000000E+00 0. -1.
         11    1    3    3    0    0 -0.74447265800E+01 -0.83584788806E+01  0.73384797073E+01  0.13384371772E+02  0.51100000000E-03 0. -1.
        -11    1    3    3    0    0  0.51695413252E+01 -0.78352873951E+01  0.63854269374E+01  0.11352953955E+02  0.51100000000E-03 0.  1.
         12    1    3    3    0    0  0.35498009729E+01 -0.11541853694E+02  0.19633760285E+02  0.23049946130E+02  0.00000000000E+00 0. -1.
</event>
<event>
 7    1  0.4477737E-009  0.4778727E+02  0.7816164E-02  0.1312668E+00
        -11   -1    0    0    0    0  0.00000000000E+00  0.00000000000E+00  0.45593999997E+02  0.45594000000E+02  0.51100000000E-03 0.  1.
         11   -1    0    0    0    0 -0.00000000000E+00 -0.00000000000E+00 -0.45593999997E+02  0.45594000000E+02  0.51100000000E-03 0. -1.
    9900012    2    1    2    0    0  0.18944925871E+02  0.31244654163E+02  0.23419754845E+02  0.47787267898E+02  0.19999985652E+02 0.  0.
         12    1    1    2    0    0 -0.18944925871E+02 -0.31244654163E+02 -0.23419754845E+02  0.43400732102E+02  0.00000000000E+00 0. -1.
         11    1    3    3    0    0  0.94000912060E+01  0.11940810059E+02  0.15796974992E+02  0.21920061102E+02  0.51100000000E-03 0. -1.
        -11    1    3    3    0    0  0.41870503862E+01  0.60207153295E+01 -0.31134899968E+01  0.79670712459E+01  0.51100000000E-03 0.  1.
        -12    1    3    3    0    0  0.53577842786E+01  0.13283128774E+02  0.10736269850E+02  0.17900135550E+02  0.00000000000E+00 0.  1.
</event>
<event>
 7    1  0.4477737E-009  0.4778727E+02  0.7816164E-02  0.1312668E+00
        -11   -1    0    0    0    0  0.00000000000E+00  0.00000000000E+00  0.45593999997E+02  0.45594000000E+02  0.51100000000E-03 0.  1.
         11   -1    0    0    0    0 -0.00000000000E+00 -0.00000000000E+00 -0.45593999997E+02  0.45594000000E+02  0.51100000000E-03 0. -1.
    9900012    2    1    2    0    0 -0.15068386369E+02  0.39043664822E+02  0.11496055952E+02  0.47787270364E+02  0.19999996899E+02 0.  0.
         12    1    1    2    0    0  0.15068386369E+02 -0.39043664822E+02 -0.11496055952E+02  0.43400729636E+02  0.00000000000E+00 0. -1.
         11    1    3    3    0    0  0.15065701173E+01 -0.36994319985E+00  0.72700196111E+00  0.17132260803E+01  0.51100000000E-03 0. -1.
        -11    1    3    3    0    0 -0.18072055571E+02  0.36752665201E+02  0.12154731193E+02  0.42721131569E+02  0.51100000000E-03 0.  1.
        -12    1    3    3    0    0  0.14970990849E+01  0.26609428206E+01 -0.13856772020E+01  0.33529127148E+01  0.00000000000E+00 0.  1.
</event>
<event>
 7    1  0.4477737E-009  0.4778727E+02  0.7816164E-02  0.1312668E+00
        -11   -1    0    0    0    0  0.00000000000E+00  0.00000000000E+00  0.45593999997E+02  0.45594000000E+02  0.51100000000E-03 0.  1.
         11   -1    0    0    0    0 -0.00000000000E+00 -0.00000000000E+00 -0.45593999997E+02  0.45594000000E+02  0.51100000000E-03 0. -1.
    9900012    2    1    2    0    0  0.78570826575E+01 -0.62077940188E+01  0.42229759845E+02  0.47787273381E+02  0.20000010655E+02 0.  0.
         12    1    1    2    0    0 -0.78570826575E+01  0.62077940188E+01 -0.42229759845E+02  0.43400726619E+02  0.00000000000E+00 0. -1.
         11    1    3    3    0    0 -0.43179235872E+01  0.55578239134E+00  0.65127153208E+01  0.78338253288E+01  0.51100000000E-03 0. -1.
        -11    1    3    3    0    0  0.12599661891E+02 -0.24475431631E+01  0.21010615070E+02  0.24620883273E+02  0.51100000000E-03 0.  1.
        -12    1    3    3    0    0 -0.42465564627E+00 -0.43160332471E+01  0.14706429455E+02  0.15332564779E+02  0.00000000000E+00 0.  1.
</event>
<event>
 7    1  0.4477737E-009  0.4778726E+02  0.7816164E-02  0.1312668E+00
        -11   -1    0    0    0    0  0.00000000000E+00  0.00000000000E+00  0.45593999997E+02  0.45594000000E+02  0.51100000000E-03 0. -1.
         11   -1    0    0    0    0 -0.00000000000E+00 -0.00000000000E+00 -0.45593999997E+02  0.45594000000E+02  0.51100000000E-03 0.  1.
    9900012    2    1    2    0    0  0.44503777938E+01 -0.41013859850E+02 -0.13478941224E+02  0.47787257854E+02  0.19999939859E+02 0.  0.
         12    1    1    2    0    0 -0.44503777938E+01  0.41013859850E+02  0.13478941224E+02  0.43400742146E+02  0.00000000000E+00 0. -1.
         11    1    3    3    0    0  0.15145741355E+01  0.10542526372E+01  0.62466958383E-02  0.18453787463E+01  0.51100000000E-03 0. -1.
        -11    1    3    3    0    0 -0.16865457662E+01 -0.31516885578E+02 -0.13732170003E+02  0.34419921650E+02  0.51100000000E-03 0.  1.
         12    1    3    3    0    0  0.46223494245E+01 -0.10551226909E+02  0.24698208342E+00  0.11521957457E+02  0.00000000000E+00 0. -1.
</event>
<event>
 7    1  0.4477737E-009  0.4778729E+02  0.7816164E-02  0.1312668E+00
        -11   -1    0    0    0    0  0.00000000000E+00  0.00000000000E+00  0.45593999997E+02  0.45594000000E+02  0.51100000000E-03 0.  1.
         11   -1    0    0    0    0 -0.00000000000E+00 -0.00000000000E+00 -0.45593999997E+02  0.45594000000E+02  0.51100000000E-03 0. -1.
    9900012    2    1    2    0    0 -0.18706759206E+02  0.52886714695E+01  0.38803462291E+02  0.47787290655E+02  0.20000089411E+02 0.  0.
         12    1    1    2    0    0  0.18706759206E+02 -0.52886714695E+01 -0.38803462291E+02  0.43400709345E+02  0.00000000000E+00 0. -1.
         11    1    3    3    0    0 -0.63776869121E+00  0.13057370271E+01 -0.52774627043E-01  0.14541263734E+01  0.51100000000E-03 0. -1.
        -11    1    3    3    0    0  0.15279148584E+01  0.48302255026E+01  0.12429020900E+02  0.13421853934E+02  0.51100000000E-03 0.  1.
        -12    1    3    3    0    0 -0.19596905373E+02 -0.84729106018E+00  0.26427216018E+02  0.32911310348E+02  0.00000000000E+00 0.  1.
</event>
<event>
 7    1  0.4477737E-009  0.4778727E+02  0.7816164E-02  0.1312668E+00
        -11   -1    0    0    0    0  0.00000000000E+00  0.00000000000E+00  0.45593999997E+02  0.45594000000E+02  0.51100000000E-03 0.  1.
         11   -1    0    0    0    0 -0.00000000000E+00 -0.00000000000E+00 -0.45593999997E+02  0.45594000000E+02  0.51100000000E-03 0. -1.
    9900012    2    1    2    0    0 -0.16339241592E+02 -0.37094558823E+02  0.15512775307E+02  0.47787270653E+02  0.19999998216E+02 0.  0.
         12    1    1    2    0    0  0.16339241592E+02  0.37094558823E+02 -0.15512775307E+02  0.43400729347E+02  0.00000000000E+00 0. -1.
         11    1    3    3    0    0 -0.24748663130E+01 -0.85287837371E+00  0.73025079350E+01  0.77575116623E+01  0.51100000000E-03 0. -1.
        -11    1    3    3    0    0 -0.90491005969E+01 -0.28463941605E+02  0.47177765469E+01  0.30238049030E+02  0.51100000000E-03 0.  1.
        -12    1    3    3    0    0 -0.48152746822E+01 -0.77777388441E+01  0.34924908254E+01  0.97917099609E+01  0.00000000000E+00 0.  1.
</event>
<event>
 7    1  0.7319448E-009  0.4778728E+02  0.7816164E-02  0.1312668E+00
        -11   -1    0    0    0    0  0.00000000000E+00  0.00000000000E+00  0.45593999997E+02  0.45594000000E+02  0.51100000000E-03 0. -1.
         11   -1    0    0    0    0 -0.00000000000E+00 -0.00000000000E+00 -0.45593999997E+02  0.45594000000E+02  0.51100000000E-03 0.  1.
    9900012    2    1    2    0    0  0.34476638690E+02 -0.13742409565E+02 -0.22497340414E+02  0.47787276945E+02  0.20000026901E+02 0.  0.
         12    1    1    2    0    0 -0.34476638690E+02  0.13742409565E+02  0.22497340414E+02  0.43400723055E+02  0.00000000000E+00 0. -1.
         11    1    3    3    0    0  0.56529462324E+01  0.26174177165E+01 -0.93182917945E+01  0.11208801847E+02  0.51100000000E-03 0. -1.
        -11    1    3    3    0    0  0.22601769772E+02 -0.14103083501E+02 -0.13666912284E+02  0.29941968083E+02  0.51100000000E-03 0.  1.
         12    1    3    3    0    0  0.62219226858E+01 -0.22567437805E+01  0.48786366446E+00  0.66365070145E+01  0.00000000000E+00 0. -1.
</event>
<event>
 7    1  0.4477737E-009  0.4778726E+02  0.7816164E-02  0.1312668E+00
        -11   -1    0    0    0    0  0.00000000000E+00  0.00000000000E+00  0.45593999997E+02  0.45594000000E+02  0.51100000000E-03 0.  1.
         11   -1    0    0    0    0 -0.00000000000E+00 -0.00000000000E+00 -0.45593999997E+02  0.45594000000E+02  0.51100000000E-03 0. -1.
    9900012    2    1    2    0    0 -0.93144008212E+01  0.42118809048E+02  0.47824887973E+01  0.47787258792E+02  0.19999944138E+02 0.  0.
         12    1    1    2    0    0  0.93144008212E+01 -0.42118809048E+02 -0.47824887973E+01  0.43400741208E+02  0.00000000000E+00 0. -1.
         11    1    3    3    0    0 -0.21795721684E+01 -0.34602717310E+00  0.31653697189E+01  0.38587349430E+01  0.51100000000E-03 0. -1.
        -11    1    3    3    0    0 -0.73578857018E-01  0.70232680436E+01  0.32807526861E+01  0.77520994775E+01  0.51100000000E-03 0.  1.
         12    1    3    3    0    0 -0.70612497957E+01  0.35441568177E+02 -0.16636336077E+01  0.36176424372E+02  0.00000000000E+00 0. -1.
</event>
<event>
 7    1  0.4477737E-009  0.4778727E+02  0.7816164E-02  0.1312668E+00
        -11   -1    0    0    0    0  0.00000000000E+00  0.00000000000E+00  0.45593999997E+02  0.45594000000E+02  0.51100000000E-03 0. -1.
         11   -1    0    0    0    0 -0.00000000000E+00 -0.00000000000E+00 -0.45593999997E+02  0.45594000000E+02  0.51100000000E-03 0.  1.
    9900012    2    1    2    0    0 -0.23932778536E+02 -0.33528918160E+02 -0.13662249792E+02  0.47787270619E+02  0.19999998058E+02 0.  0.
         12    1    1    2    0    0  0.23932778536E+02  0.33528918160E+02  0.13662249792E+02  0.43400729381E+02  0.00000000000E+00 0. -1.
         11    1    3    3    0    0 -0.11668812860E+02 -0.20416574636E+02 -0.14419575224E+02  0.27584812186E+02  0.51100000000E-03 0. -1.
        -11    1    3    3    0    0 -0.87991092799E+01 -0.84381997174E+01 -0.38457576233E+01  0.12783481159E+02  0.51100000000E-03 0.  1.
         12    1    3    3    0    0 -0.34648563959E+01 -0.46741438071E+01  0.46030830551E+01  0.74189772736E+01  0.00000000000E+00 0. -1.
</event>
<event>
 7    1  0.4477737E-009  0.4778727E+02  0.7816164E-02  0.1312668E+00
        -11   -1    0    0    0    0  0.00000000000E+00  0.00000000000E+00  0.45593999997E+02  0.45594000000E+02  0.51100000000E-03 0.  1.
         11   -1    0    0    0    0 -0.00000000000E+00 -0.00000000000E+00 -0.45593999997E+02  0.45594000000E+02  0.51100000000E-03 0. -1.
    9900012    2    1    2    0    0 -0.32003944400E+02 -0.28622888220E+02  0.63325509832E+01  0.47787269716E+02  0.19999993943E+02 0.  0.
         12    1    1    2    0    0  0.32003944400E+02  0.28622888220E+02 -0.63325509832E+01  0.43400730284E+02  0.00000000000E+00 0. -1.
         11    1    3    3    0    0 -0.11669027401E+02 -0.10183504044E+02 -0.60621374374E+01  0.16631881002E+02  0.51100000000E-03 0. -1.
        -11    1    3    3    0    0 -0.56728437160E+01 -0.85463832831E+01  0.14609305514E+01  0.10361280876E+02  0.51100000000E-03 0.  1.
         12    1    3    3    0    0 -0.14662073283E+02 -0.98930008930E+01  0.10933757869E+02  0.20794107838E+02  0.00000000000E+00 0. -1.
</event>
<event>
 7    1  0.4477737E-009  0.4778727E+02  0.7816164E-02  0.1312668E+00
        -11   -1    0    0    0    0  0.00000000000E+00  0.00000000000E+00  0.45593999997E+02  0.45594000000E+02  0.51100000000E-03 0.  1.
         11   -1    0    0    0    0 -0.00000000000E+00 -0.00000000000E+00 -0.45593999997E+02  0.45594000000E+02  0.51100000000E-03 0. -1.
    9900012    2    1    2    0    0  0.41261765096E+02 -0.61056033917E+01 -0.11992154387E+02  0.47787269379E+02  0.19999992407E+02 0.  0.
         12    1    1    2    0    0 -0.41261765096E+02  0.61056033917E+01  0.11992154387E+02  0.43400730621E+02  0.00000000000E+00 0. -1.
         11    1    3    3    0    0  0.11072993960E+02 -0.70618348052E+01 -0.48541326512E+01  0.14001546704E+02  0.51100000000E-03 0. -1.
        -11    1    3    3    0    0  0.22403701400E+02  0.11777744016E+01  0.10837481668E+01  0.22460799169E+02  0.51100000000E-03 0.  1.
        -12    1    3    3    0    0  0.77850697360E+01 -0.22154298815E+00 -0.82217699025E+01  0.11324923506E+02  0.00000000000E+00 0.  1.
</event>
<event>
 7    1  0.4477737E-009  0.4778727E+02  0.7816164E-02  0.1312668E+00
        -11   -1    0    0    0    0  0.00000000000E+00  0.00000000000E+00  0.45593999997E+02  0.45594000000E+02  0.51100000000E-03 0. -1.
         11   -1    0    0    0    0 -0.00000000000E+00 -0.00000000000E+00 -0.45593999997E+02  0.45594000000E+02  0.51100000000E-03 0.  1.
    9900012    2    1    2    0    0 -0.34211821760E+02  0.20914199127E+02 -0.16606348371E+02  0.47787270980E+02  0.19999999708E+02 0.  0.
         12    1    1    2    0    0  0.34211821760E+02 -0.20914199127E+02  0.16606348371E+02  0.43400729020E+02  0.00000000000E+00 0. -1.
         11    1    3    3    0    0  0.13580194044E+01 -0.26651232674E+00  0.48593895374E+00  0.14667591660E+01  0.51100000000E-03 0. -1.
        -11    1    3    3    0    0 -0.35181445806E+02  0.20553479096E+02 -0.18486657701E+02  0.44743001075E+02  0.51100000000E-03 0.  1.
        -12    1    3    3    0    0 -0.38839535750E+00  0.62723235792E+00  0.13943703771E+01  0.15775107395E+01  0.00000000000E+00 0.  1.
</event>
<event>
 7    1  0.4477737E-009  0.4778726E+02  0.7816164E-02  0.1312668E+00
        -11   -1    0    0    0    0  0.00000000000E+00  0.00000000000E+00  0.45593999997E+02  0.45594000000E+02  0.51100000000E-03 0.  1.
         11   -1    0    0    0    0 -0.00000000000E+00 -0.00000000000E+00 -0.45593999997E+02  0.45594000000E+02  0.51100000000E-03 0. -1.
    9900012    2    1    2    0    0  0.31572169093E+02 -0.20372965244E+02  0.21720141589E+02  0.47787261243E+02  0.19999955309E+02 0.  0.
         12    1    1    2    0    0 -0.31572169093E+02  0.20372965244E+02 -0.21720141589E+02  0.43400738757E+02  0.00000000000E+00 0. -1.
         11    1    3    3    0    0  0.68122626805E+01 -0.83603164243E+01  0.70190202699E+00  0.10807149497E+02  0.51100000000E-03 0. -1.
        -11    1    3    3    0    0  0.11182369992E+02 -0.21937431870E+01  0.15701527038E+02  0.19400924189E+02  0.51100000000E-03 0.  1.
        -12    1    3    3    0    0  0.13577536420E+02 -0.98189056327E+01  0.53167125237E+01  0.17579187556E+02  0.00000000000E+00 0.  1.
</event>
<event>
 7    1  0.4477737E-009  0.4778726E+02  0.7816164E-02  0.1312668E+00
        -11   -1    0    0    0    0  0.00000000000E+00  0.00000000000E+00  0.45593999997E+02  0.45594000000E+02  0.51100000000E-03 0.  1.
         11   -1    0    0    0    0 -0.00000000000E+00 -0.00000000000E+00 -0.45593999997E+02  0.45594000000E+02  0.51100000000E-03 0. -1.
    9900012    2    1    2    0    0  0.39522662053E+02  0.53259709390E+01  0.17123588508E+02  0.47787261923E+02  0.19999958414E+02 0.  0.
         12    1    1    2    0    0 -0.39522662053E+02 -0.53259709390E+01 -0.17123588508E+02  0.43400738077E+02  0.00000000000E+00 0. -1.
         11    1    3    3    0    0  0.14742979822E+01 -0.17862979189E+01  0.42149137654E+00  0.23541601554E+01  0.51100000000E-03 0. -1.
        -11    1    3    3    0    0 -0.64666456958E+00  0.33044805099E+01  0.14689329977E+01  0.36736263989E+01  0.51100000000E-03 0.  1.
        -12    1    3    3    0    0  0.38695028640E+02  0.38077883480E+01  0.15233164134E+02  0.41759475369E+02  0.00000000000E+00 0.  1.
</event>
<event>
 7    1  0.4477737E-009  0.4778727E+02  0.7816164E-02  0.1312668E+00
        -11   -1    0    0    0    0  0.00000000000E+00  0.00000000000E+00  0.45593999997E+02  0.45594000000E+02  0.51100000000E-03 0.  1.
         11   -1    0    0    0    0 -0.00000000000E+00 -0.00000000000E+00 -0.45593999997E+02  0.45594000000E+02  0.51100000000E-03 0. -1.
    9900012    2    1    2    0    0  0.38119684921E+02 -0.19630421092E+02  0.67200928959E+01  0.47787268908E+02  0.19999990261E+02 0.  0.
         12    1    1    2    0    0 -0.38119684921E+02  0.19630421092E+02 -0.67200928959E+01  0.43400731092E+02  0.00000000000E+00 0. -1.
         11    1    3    3    0    0  0.30544470564E+01  0.19667560877E+00 -0.15879799112E+00  0.30648890973E+01  0.51100000000E-03 0. -1.
        -11    1    3    3    0    0  0.30005473770E+02 -0.19259159563E+02 -0.61813907857E+00  0.35659862302E+02  0.51100000000E-03 0.  1.
        -12    1    3    3    0    0  0.50597640949E+01 -0.56793713755E+00  0.74970299656E+01  0.90625175086E+01  0.00000000000E+00 0.  1.
</event>
<event>
 7    1  0.4477737E-009  0.4778726E+02  0.7816164E-02  0.1312668E+00
        -11   -1    0    0    0    0  0.00000000000E+00  0.00000000000E+00  0.45593999997E+02  0.45594000000E+02  0.51100000000E-03 0.  1.
         11   -1    0    0    0    0 -0.00000000000E+00 -0.00000000000E+00 -0.45593999997E+02  0.45594000000E+02  0.51100000000E-03 0. -1.
    9900012    2    1    2    0    0 -0.23114791405E+02  0.33021622722E+02  0.16090454767E+02  0.47787264022E+02  0.19999967980E+02 0.  0.
         12    1    1    2    0    0  0.23114791405E+02 -0.33021622722E+02 -0.16090454767E+02  0.43400735978E+02  0.00000000000E+00 0. -1.
         11    1    3    3    0    0 -0.11329011499E+02  0.23764727127E+02  0.13105788240E+02  0.29408679716E+02  0.51100000000E-03 0. -1.
        -11    1    3    3    0    0 -0.48794011307E+01  0.76936733399E+01  0.57537923991E+01  0.10775309373E+02  0.51100000000E-03 0.  1.
         12    1    3    3    0    0 -0.69063787752E+01  0.15632222545E+01 -0.27691258721E+01  0.76032749324E+01  0.00000000000E+00 0. -1.
</event>
<event>
 7    1  0.4477737E-009  0.4778727E+02  0.7816164E-02  0.1312668E+00
        -11   -1    0    0    0    0  0.00000000000E+00  0.00000000000E+00  0.45593999997E+02  0.45594000000E+02  0.51100000000E-03 0.  1.
         11   -1    0    0    0    0 -0.00000000000E+00 -0.00000000000E+00 -0.45593999997E+02  0.45594000000E+02  0.51100000000E-03 0. -1.
    9900012    2    1    2    0    0  0.78271836811E+01 -0.57494228556E-03  0.42689089664E+02  0.47787272114E+02  0.20000004875E+02 0.  0.
         12    1    1    2    0    0 -0.78271836811E+01  0.57494228556E-03 -0.42689089664E+02  0.43400727886E+02  0.00000000000E+00 0. -1.
         11    1    3    3    0    0  0.19013129036E+01  0.85239766106E+00  0.36642654928E+00  0.21156183982E+01  0.51100000000E-03 0. -1.
        -11    1    3    3    0    0  0.10981286474E+02 -0.30862203060E+01  0.24787224495E+02  0.27285892084E+02  0.51100000000E-03 0.  1.
        -12    1    3    3    0    0 -0.50554156966E+01  0.22332477027E+01  0.17535438620E+02  0.18385761631E+02  0.00000000000E+00 0.  1.
</event>
<event>
 7    1  0.4477737E-009  0.4778727E+02  0.7816164E-02  0.1312668E+00
        -11   -1    0    0    0    0  0.00000000000E+00  0.00000000000E+00  0.45593999997E+02  0.45594000000E+02  0.51100000000E-03 0. -1.
         11   -1    0    0    0    0 -0.00000000000E+00 -0.00000000000E+00 -0.45593999997E+02  0.45594000000E+02  0.51100000000E-03 0.  1.
    9900012    2    1    2    0    0  0.18208863223E+02  0.39228925147E+02 -0.36265609803E+01  0.47787271751E+02  0.20000003220E+02 0.  0.
         12    1    1    2    0    0 -0.18208863223E+02 -0.39228925147E+02  0.36265609803E+01  0.43400728249E+02  0.00000000000E+00 0. -1.
         11    1    3    3    0    0  0.95458494898E+01  0.26932648223E+02  0.32902021550E+01  0.28763105070E+02  0.51100000000E-03 0. -1.
        -11    1    3    3    0    0  0.35457433595E+01 -0.81693599117E+00 -0.12022274176E+01  0.38321053495E+01  0.51100000000E-03 0.  1.
        -12    1    3    3    0    0  0.51172703737E+01  0.13113212915E+02 -0.57145357177E+01  0.15192061331E+02  0.00000000000E+00 0.  1.
</event>
<event>
 7    1  0.4477737E-009  0.4778727E+02  0.7816164E-02  0.1312668E+00
        -11   -1    0    0    0    0  0.00000000000E+00  0.00000000000E+00  0.45593999997E+02  0.45594000000E+02  0.51100000000E-03 0. -1.
         11   -1    0    0    0    0 -0.00000000000E+00 -0.00000000000E+00 -0.45593999997E+02  0.45594000000E+02  0.51100000000E-03 0.  1.
    9900012    2    1    2    0    0  0.17680911140E+02 -0.10271047714E+02 -0.38282035687E+02  0.47787270787E+02  0.19999998827E+02 0.  0.
         12    1    1    2    0    0 -0.17680911140E+02  0.10271047714E+02  0.38282035687E+02  0.43400729213E+02  0.00000000000E+00 0. -1.
         11    1    3    3    0    0  0.51328251990E+01 -0.13665361985E+02 -0.17045851335E+02  0.22442126920E+02  0.51100000000E-03 0. -1.
        -11    1    3    3    0    0  0.91086021690E+01  0.23423942541E+00 -0.12970090663E+02  0.15850701992E+02  0.51100000000E-03 0.  1.
         12    1    3    3    0    0  0.34394837718E+01  0.31600748452E+01 -0.82660936884E+01  0.94944418746E+01  0.00000000000E+00 0. -1.
</event>
<event>
 7    1  0.4477737E-009  0.4778727E+02  0.7816164E-02  0.1312668E+00
        -11   -1    0    0    0    0  0.00000000000E+00  0.00000000000E+00  0.45593999997E+02  0.45594000000E+02  0.51100000000E-03 0.  1.
         11   -1    0    0    0    0 -0.00000000000E+00 -0.00000000000E+00 -0.45593999997E+02  0.45594000000E+02  0.51100000000E-03 0. -1.
    9900012    2    1    2    0    0  0.31976070558E+02 -0.27258000719E+02  0.10869937891E+02  0.47787271420E+02  0.20000001712E+02 0.  0.
         12    1    1    2    0    0 -0.31976070558E+02  0.27258000719E+02 -0.10869937891E+02  0.43400728580E+02  0.00000000000E+00 0. -1.
         11    1    3    3    0    0  0.37914168201E+01 -0.20850466317E+01 -0.48020510558E+01  0.64638963144E+01  0.51100000000E-03 0. -1.
        -11    1    3    3    0    0  0.22369514307E+02 -0.22141363301E+02  0.11298435605E+02  0.33440840099E+02  0.51100000000E-03 0.  1.
         12    1    3    3    0    0  0.58151394307E+01 -0.30315907870E+01  0.43735533410E+01  0.78825350062E+01  0.00000000000E+00 0. -1.
</event>
<event>
 7    1  0.4477737E-009  0.4778727E+02  0.7816164E-02  0.1312668E+00
        -11   -1    0    0    0    0  0.00000000000E+00  0.00000000000E+00  0.45593999997E+02  0.45594000000E+02  0.51100000000E-03 0.  1.
         11   -1    0    0    0    0 -0.00000000000E+00 -0.00000000000E+00 -0.45593999997E+02  0.45594000000E+02  0.51100000000E-03 0. -1.
    9900012    2    1    2    0    0 -0.28428427413E+01 -0.39717054886E+02  0.17265486379E+02  0.47787271624E+02  0.20000002643E+02 0.  0.
         12    1    1    2    0    0  0.28428427413E+01  0.39717054886E+02 -0.17265486379E+02  0.43400728376E+02  0.00000000000E+00 0. -1.
         11    1    3    3    0    0 -0.55103496680E+01 -0.14650359127E+02  0.51582725982E+01  0.16480435445E+02  0.51100000000E-03 0. -1.
        -11    1    3    3    0    0  0.69166159078E+01 -0.59251452445E+01  0.23502951700E+01  0.94058922719E+01  0.51100000000E-03 0.  1.
        -12    1    3    3    0    0 -0.42491089810E+01 -0.19141550515E+02  0.97569186108E+01  0.21900943907E+02  0.00000000000E+00 0.  1.
</event>
<event>
 7    1  0.4477737E-009  0.4778727E+02  0.7816164E-02  0.1312668E+00
        -11   -1    0    0    0    0  0.00000000000E+00  0.00000000000E+00  0.45593999997E+02  0.45594000000E+02  0.51100000000E-03 0. -1.
         11   -1    0    0    0    0 -0.00000000000E+00 -0.00000000000E+00 -0.45593999997E+02  0.45594000000E+02  0.51100000000E-03 0.  1.
    9900012    2    1    2    0    0  0.21344550795E+02 -0.37788797102E+02  0.20029848022E+00  0.47787272419E+02  0.20000006267E+02 0.  0.
         12    1    1    2    0    0 -0.21344550795E+02  0.37788797102E+02 -0.20029848022E+00  0.43400727581E+02  0.00000000000E+00 0. -1.
         11    1    3    3    0    0 -0.21671960356E+01 -0.36888119632E+01 -0.27364818073E+01  0.50786223820E+01  0.51100000000E-03 0. -1.
        -11    1    3    3    0    0  0.18721110559E+01 -0.11057183003E+01 -0.19865944252E+01  0.29451605112E+01  0.51100000000E-03 0.  1.
         12    1    3    3    0    0  0.21639635775E+02 -0.32994266839E+02  0.49233747128E+01  0.39763489526E+02  0.00000000000E+00 0. -1.
</event>
<event>
 7    1  0.4477737E-009  0.4778727E+02  0.7816164E-02  0.1312668E+00
        -11   -1    0    0    0    0  0.00000000000E+00  0.00000000000E+00  0.45593999997E+02  0.45594000000E+02  0.51100000000E-03 0.  1.
         11   -1    0    0    0    0 -0.00000000000E+00 -0.00000000000E+00 -0.45593999997E+02  0.45594000000E+02  0.51100000000E-03 0. -1.
    9900012    2    1    2    0    0 -0.28275009237E+02  0.32935677617E+01  0.32761252536E+02  0.47787269548E+02  0.19999993179E+02 0.  0.
         12    1    1    2    0    0  0.28275009237E+02 -0.32935677617E+01 -0.32761252536E+02  0.43400730452E+02  0.00000000000E+00 0. -1.
         11    1    3    3    0    0  0.12612092560E+01 -0.27171632737E+01  0.63425788936E+01  0.70144089078E+01  0.51100000000E-03 0. -1.
        -11    1    3    3    0    0 -0.23759271188E+02  0.27706645342E+01  0.17382300492E+02  0.29568968870E+02  0.51100000000E-03 0.  1.
         12    1    3    3    0    0 -0.57769473053E+01  0.32400665013E+01  0.90363731505E+01  0.11203891771E+02  0.00000000000E+00 0. -1.
</event>
<event>
 7    1  0.4477737E-009  0.4778727E+02  0.7816164E-02  0.1312668E+00
        -11   -1    0    0    0    0  0.00000000000E+00  0.00000000000E+00  0.45593999997E+02  0.45594000000E+02  0.51100000000E-03 0. -1.
         11   -1    0    0    0    0 -0.00000000000E+00 -0.00000000000E+00 -0.45593999997E+02  0.45594000000E+02  0.51100000000E-03 0.  1.
    9900012    2    1    2    0    0 -0.40296252490E+02  0.54208626870E+01 -0.15180569670E+02  0.47787269447E+02  0.19999992716E+02 0.  0.
         12    1    1    2    0    0  0.40296252490E+02 -0.54208626870E+01  0.15180569670E+02  0.43400730553E+02  0.00000000000E+00 0. -1.
         11    1    3    3    0    0 -0.16154614382E+02  0.66838283051E+00  0.37035022487E+01  0.16587170663E+02  0.51100000000E-03 0. -1.
        -11    1    3    3    0    0 -0.13357356721E+02  0.37106441340E+01 -0.89538233949E+01  0.16503297007E+02  0.51100000000E-03 0.  1.
         12    1    3    3    0    0 -0.10784281387E+02  0.10418357225E+01 -0.99302485240E+01  0.14696801777E+02  0.00000000000E+00 0. -1.
</event>
<event>
 7    1  0.4477737E-009  0.4778727E+02  0.7816164E-02  0.1312668E+00
        -11   -1    0    0    0    0  0.00000000000E+00  0.00000000000E+00  0.45593999997E+02  0.45594000000E+02  0.51100000000E-03 0. -1.
         11   -1    0    0    0    0 -0.00000000000E+00 -0.00000000000E+00 -0.45593999997E+02  0.45594000000E+02  0.51100000000E-03 0.  1.
    9900012    2    1    2    0    0  0.35571530680E+02 -0.17947055898E+02 -0.17210238899E+02  0.47787274968E+02  0.20000017891E+02 0.  0.
         12    1    1    2    0    0 -0.35571530680E+02  0.17947055898E+02  0.17210238899E+02  0.43400725032E+02  0.00000000000E+00 0. -1.
         11    1    3    3    0    0  0.26771686480E+02 -0.10664677088E+02 -0.86809150074E+01  0.30096790859E+02  0.51100000000E-03 0.  1.
        -11    1    3    3    0    0  0.10942477092E+02 -0.52959455531E+01 -0.50943125667E+01  0.13180928078E+02  0.51100000000E-03 0. -1.
         12    1    3    3    0    0 -0.21426328926E+01 -0.19864332568E+01 -0.34350113247E+01  0.45095560311E+01  0.00000000000E+00 0. -1.
</event>
<event>
 7    1  0.4477737E-009  0.4778727E+02  0.7816164E-02  0.1312668E+00
        -11   -1    0    0    0    0  0.00000000000E+00  0.00000000000E+00  0.45593999997E+02  0.45594000000E+02  0.51100000000E-03 0.  1.
         11   -1    0    0    0    0 -0.00000000000E+00 -0.00000000000E+00 -0.45593999997E+02  0.45594000000E+02  0.51100000000E-03 0. -1.
    9900012    2    1    2    0    0  0.62040721704E+01  0.32493169150E+02 -0.28094962359E+02  0.47787268868E+02  0.19999990075E+02 0.  0.
         12    1    1    2    0    0 -0.62040721704E+01 -0.32493169150E+02  0.28094962359E+02  0.43400731132E+02  0.00000000000E+00 0. -1.
         11    1    3    3    0    0  0.74124188927E+01  0.10403336785E+02 -0.42720592453E+01  0.13469367489E+02  0.51100000000E-03 0. -1.
        -11    1    3    3    0    0 -0.48501068336E+01  0.19763971543E+02 -0.18982994765E+02  0.27829699926E+02  0.51100000000E-03 0.  1.
         12    1    3    3    0    0  0.36417601112E+01  0.23258608223E+01 -0.48399083480E+01  0.64882014526E+01  0.00000000000E+00 0. -1.
</event>
<event>
 7    1  0.4477737E-009  0.4778728E+02  0.7816164E-02  0.1312668E+00
        -11   -1    0    0    0    0  0.00000000000E+00  0.00000000000E+00  0.45593999997E+02  0.45594000000E+02  0.51100000000E-03 0. -1.
         11   -1    0    0    0    0 -0.00000000000E+00 -0.00000000000E+00 -0.45593999997E+02  0.45594000000E+02  0.51100000000E-03 0.  1.
    9900012    2    1    2    0    0 -0.53374043961E+01 -0.53478330974E+01 -0.42737988697E+02  0.47787275555E+02  0.20000020564E+02 0.  0.
         12    1    1    2    0    0  0.53374043961E+01  0.53478330974E+01  0.42737988697E+02  0.43400724445E+02  0.00000000000E+00 0. -1.
         11    1    3    3    0    0  0.22507777751E+01 -0.75103802119E+00  0.43613894766E+00  0.24125248485E+01  0.51100000000E-03 0. -1.
        -11    1    3    3    0    0 -0.32686848363E+01 -0.70585972341E+01 -0.34598352118E+02  0.35462008756E+02  0.51100000000E-03 0.  1.
         12    1    3    3    0    0 -0.43194973348E+01  0.24618021578E+01 -0.85757755265E+01  0.99127419502E+01  0.00000000000E+00 0. -1.
</event>
<event>
 7    1  0.4477737E-009  0.4778727E+02  0.7816164E-02  0.1312668E+00
        -11   -1    0    0    0    0  0.00000000000E+00  0.00000000000E+00  0.45593999997E+02  0.45594000000E+02  0.51100000000E-03 0.  1.
         11   -1    0    0    0    0 -0.00000000000E+00 -0.00000000000E+00 -0.45593999997E+02  0.45594000000E+02  0.51100000000E-03 0. -1.
    9900012    2    1    2    0    0  0.62533739324E+01 -0.24714066465E+02  0.35124542173E+02  0.47787271553E+02  0.20000002321E+02 0.  0.
         12    1    1    2    0    0 -0.62533739324E+01  0.24714066465E+02 -0.35124542173E+02  0.43400728447E+02  0.00000000000E+00 0. -1.
         11    1    3    3    0    0  0.76177639802E+01 -0.89994661195E+01  0.75667627259E+01  0.14009875692E+02  0.51100000000E-03 0. -1.
        -11    1    3    3    0    0 -0.75304210189E+00 -0.16448275766E+02  0.28179850648E+02  0.32637659703E+02  0.51100000000E-03 0.  1.
        -12    1    3    3    0    0 -0.61134794593E+00  0.73367541972E+00 -0.62207120057E+00  0.11397361585E+01  0.00000000000E+00 0.  1.
</event>
<event>
 7    1  0.4477737E-009  0.4778728E+02  0.7816164E-02  0.1312668E+00
        -11   -1    0    0    0    0  0.00000000000E+00  0.00000000000E+00  0.45593999997E+02  0.45594000000E+02  0.51100000000E-03 0.  1.
         11   -1    0    0    0    0 -0.00000000000E+00 -0.00000000000E+00 -0.45593999997E+02  0.45594000000E+02  0.51100000000E-03 0. -1.
    9900012    2    1    2    0    0  0.33910012780E+02  0.36054307137E+01  0.26846497727E+02  0.47787279527E+02  0.20000038673E+02 0.  0.
         12    1    1    2    0    0 -0.33910012780E+02 -0.36054307137E+01 -0.26846497727E+02  0.43400720473E+02  0.00000000000E+00 0. -1.
         11    1    3    3    0    0  0.94081976807E+01  0.82382018186E+01  0.13775129301E+02  0.18604739727E+02  0.51100000000E-03 0. -1.
        -11    1    3    3    0    0  0.23098945588E+02 -0.59342451723E+01  0.10710873756E+02  0.26143820875E+02  0.51100000000E-03 0.  1.
        -12    1    3    3    0    0  0.14028695115E+01  0.13014740674E+01  0.23604946697E+01  0.30387189242E+01  0.00000000000E+00 0.  1.
</event>
<event>
 7    1  0.4477737E-009  0.4778727E+02  0.7816164E-02  0.1312668E+00
        -11   -1    0    0    0    0  0.00000000000E+00  0.00000000000E+00  0.45593999997E+02  0.45594000000E+02  0.51100000000E-03 0.  1.
         11   -1    0    0    0    0 -0.00000000000E+00 -0.00000000000E+00 -0.45593999997E+02  0.45594000000E+02  0.51100000000E-03 0. -1.
    9900012    2    1    2    0    0  0.16409262013E+02  0.93163694642E+01  0.39084071954E+02  0.47787270740E+02  0.19999998613E+02 0.  0.
         12    1    1    2    0    0 -0.16409262013E+02 -0.93163694642E+01 -0.39084071954E+02  0.43400729260E+02  0.00000000000E+00 0. -1.
         11    1    3    3    0    0  0.50886378280E+00  0.79487309794E+01  0.61995464730E+01  0.10093346485E+02  0.51100000000E-03 0. -1.
        -11    1    3    3    0    0  0.27097855006E+01  0.68147278176E+00  0.16073936420E+02  0.16314986206E+02  0.51100000000E-03 0.  1.
         12    1    3    3    0    0  0.13190612729E+02  0.68616570312E+00  0.16810589061E+02  0.21378938050E+02  0.00000000000E+00 0. -1.
</event>
<event>
 7    1  0.4477737E-009  0.4778727E+02  0.7816164E-02  0.1312668E+00
        -11   -1    0    0    0    0  0.00000000000E+00  0.00000000000E+00  0.45593999997E+02  0.45594000000E+02  0.51100000000E-03 0. -1.
         11   -1    0    0    0    0 -0.00000000000E+00 -0.00000000000E+00 -0.45593999997E+02  0.45594000000E+02  0.51100000000E-03 0.  1.
    9900012    2    1    2    0    0 -0.42940848559E+02 -0.61881652280E+01  0.11888139956E+01  0.47787272557E+02  0.20000006897E+02 0.  0.
         12    1    1    2    0    0  0.42940848559E+02  0.61881652280E+01 -0.11888139956E+01  0.43400727443E+02  0.00000000000E+00 0. -1.
         11    1    3    3    0    0 -0.35482841966E+02 -0.11353585351E+02  0.30537557904E+01  0.37379959858E+02  0.51100000000E-03 0. -1.
        -11    1    3    3    0    0 -0.66869762380E+01  0.41242000869E+01  0.32454498337E+00  0.78632059157E+01  0.51100000000E-03 0.  1.
         12    1    3    3    0    0 -0.77103035468E+00  0.10412200365E+01 -0.21894867781E+01  0.25441067831E+01  0.00000000000E+00 0. -1.
</event>
<event>
 7    1  0.4477737E-009  0.4778727E+02  0.7816164E-02  0.1312668E+00
        -11   -1    0    0    0    0  0.00000000000E+00  0.00000000000E+00  0.45593999997E+02  0.45594000000E+02  0.51100000000E-03 0. -1.
         11   -1    0    0    0    0 -0.00000000000E+00 -0.00000000000E+00 -0.45593999997E+02  0.45594000000E+02  0.51100000000E-03 0.  1.
    9900012    2    1    2    0    0  0.33072352669E+02 -0.28085403007E+02 -0.10262079943E+01  0.47787268716E+02  0.19999989383E+02 0.  0.
         12    1    1    2    0    0 -0.33072352669E+02  0.28085403007E+02  0.10262079943E+01  0.43400731284E+02  0.00000000000E+00 0. -1.
         11    1    3    3    0    0  0.18892216191E+02 -0.24659333692E+02 -0.50119952348E+01  0.31466151135E+02  0.51100000000E-03 0. -1.
        -11    1    3    3    0    0  0.14503057466E+00 -0.91352764558E+00 -0.85894713340E+00  0.12622824826E+01  0.51100000000E-03 0.  1.
         12    1    3    3    0    0  0.14035105903E+02 -0.25125416693E+01  0.48447343739E+01  0.15058835098E+02  0.00000000000E+00 0. -1.
</event>
<event>
 7    1  0.4477737E-009  0.4778727E+02  0.7816164E-02  0.1312668E+00
        -11   -1    0    0    0    0  0.00000000000E+00  0.00000000000E+00  0.45593999997E+02  0.45594000000E+02  0.51100000000E-03 0.  1.
         11   -1    0    0    0    0 -0.00000000000E+00 -0.00000000000E+00 -0.45593999997E+02  0.45594000000E+02  0.51100000000E-03 0. -1.
    9900012    2    1    2    0    0 -0.36855099809E+02 -0.10314725864E+02  0.20467814395E+02  0.47787269849E+02  0.19999994549E+02 0.  0.
         12    1    1    2    0    0  0.36855099809E+02  0.10314725864E+02 -0.20467814395E+02  0.43400730151E+02  0.00000000000E+00 0. -1.
         11    1    3    3    0    0 -0.13419840363E+02 -0.61470281317E+01 -0.56318709653E+00  0.14771433586E+02  0.51100000000E-03 0. -1.
        -11    1    3    3    0    0 -0.77721058827E+01  0.18930960806E+01  0.34792839211E+01  0.87232367552E+01  0.51100000000E-03 0.  1.
         12    1    3    3    0    0 -0.15663153563E+02 -0.60607938125E+01  0.17551717570E+02  0.24292599508E+02  0.00000000000E+00 0. -1.
</event>
<event>
 7    1  0.4477737E-009  0.4778727E+02  0.7816164E-02  0.1312668E+00
        -11   -1    0    0    0    0  0.00000000000E+00  0.00000000000E+00  0.45593999997E+02  0.45594000000E+02  0.51100000000E-03 0. -1.
         11   -1    0    0    0    0 -0.00000000000E+00 -0.00000000000E+00 -0.45593999997E+02  0.45594000000E+02  0.51100000000E-03 0.  1.
    9900012    2    1    2    0    0  0.93404588084E+01 -0.41702961832E+02  0.75658362052E+01  0.47787273349E+02  0.20000010507E+02 0.  0.
         12    1    1    2    0    0 -0.93404588084E+01  0.41702961832E+02 -0.75658362052E+01  0.43400726651E+02  0.00000000000E+00 0. -1.
         11    1    3    3    0    0 -0.34842867444E+01 -0.24303154569E+02  0.70288817029E+01  0.25537986498E+02  0.51100000000E-03 0.  1.
        -11    1    3    3    0    0  0.93174354982E+01 -0.11904812771E+02 -0.20098780246E+01  0.15250533804E+02  0.51100000000E-03 0. -1.
        -12    1    3    3    0    0  0.35073100546E+01 -0.54949944931E+01  0.25468325269E+01  0.69987530474E+01  0.00000000000E+00 0.  1.
</event>
<event>
 7    1  0.4794819E-009  0.4778727E+02  0.7816164E-02  0.1312668E+00
        -11   -1    0    0    0    0  0.00000000000E+00  0.00000000000E+00  0.45593999997E+02  0.45594000000E+02  0.51100000000E-03 0.  1.
         11   -1    0    0    0    0 -0.00000000000E+00 -0.00000000000E+00 -0.45593999997E+02  0.45594000000E+02  0.51100000000E-03 0. -1.
    9900012    2    1    2    0    0 -0.35926190417E+02  0.17049014001E+01  0.24290435053E+02  0.47787273258E+02  0.20000010094E+02 0.  0.
         12    1    1    2    0    0  0.35926190417E+02 -0.17049014001E+01 -0.24290435053E+02  0.43400726742E+02  0.00000000000E+00 0. -1.
         11    1    3    3    0    0 -0.13036178344E+01 -0.53892116428E+00 -0.22467984734E+01  0.26529152118E+01  0.51100000000E-03 0. -1.
        -11    1    3    3    0    0 -0.28776785274E+02 -0.14037061947E+01  0.17285093281E+02  0.33598336443E+02  0.51100000000E-03 0.  1.
         12    1    3    3    0    0 -0.58457873085E+01  0.36475287592E+01  0.92521402457E+01  0.11536021603E+02  0.00000000000E+00 0. -1.
</event>
<event>
 7    1  0.4477737E-009  0.4778727E+02  0.7816164E-02  0.1312668E+00
        -11   -1    0    0    0    0  0.00000000000E+00  0.00000000000E+00  0.45593999997E+02  0.45594000000E+02  0.51100000000E-03 0. -1.
         11   -1    0    0    0    0 -0.00000000000E+00 -0.00000000000E+00 -0.45593999997E+02  0.45594000000E+02  0.51100000000E-03 0.  1.
    9900012    2    1    2    0    0 -0.18882989104E+02 -0.38608298106E+02 -0.60378180078E+01  0.47787271821E+02  0.20000003543E+02 0.  0.
         12    1    1    2    0    0  0.18882989104E+02  0.38608298106E+02  0.60378180078E+01  0.43400728179E+02  0.00000000000E+00 0. -1.
         11    1    3    3    0    0 -0.82342435649E+01 -0.79292308724E+01 -0.60613486438E+01  0.12938910965E+02  0.51100000000E-03 0. -1.
        -11    1    3    3    0    0 -0.77737239154E+00 -0.20877138014E+02  0.88651488401E+00  0.20910406701E+02  0.51100000000E-03 0.  1.
        -12    1    3    3    0    0 -0.98713731470E+01 -0.98019292195E+01 -0.86298424799E+00  0.13937954156E+02  0.00000000000E+00 0.  1.
</event>
<event>
 7    1  0.4477737E-009  0.4778727E+02  0.7816164E-02  0.1312668E+00
        -11   -1    0    0    0    0  0.00000000000E+00  0.00000000000E+00  0.45593999997E+02  0.45594000000E+02  0.51100000000E-03 0.  1.
         11   -1    0    0    0    0 -0.00000000000E+00 -0.00000000000E+00 -0.45593999997E+02  0.45594000000E+02  0.51100000000E-03 0. -1.
    9900012    2    1    2    0    0 -0.12282270681E+01  0.42997636863E+02  0.57721938065E+01  0.47787267991E+02  0.19999986080E+02 0.  0.
         12    1    1    2    0    0  0.12282270681E+01 -0.42997636863E+02 -0.57721938065E+01  0.43400732009E+02  0.00000000000E+00 0. -1.
         11    1    3    3    0    0 -0.31154606536E+01  0.22832719221E+01  0.41099240477E+01  0.56401153972E+01  0.51100000000E-03 0. -1.
        -11    1    3    3    0    0 -0.78611145607E+00  0.37876118206E+02  0.30540283383E+01  0.38007175519E+02  0.51100000000E-03 0.  1.
         12    1    3    3    0    0  0.26733450416E+01  0.28382467350E+01 -0.13917585794E+01  0.41399770752E+01  0.00000000000E+00 0. -1.
</event>
<event>
 7    1  0.4477737E-009  0.4778731E+02  0.7816164E-02  0.1312668E+00
        -11   -1    0    0    0    0  0.00000000000E+00  0.00000000000E+00  0.45593999997E+02  0.45594000000E+02  0.51100000000E-03 0. -1.
         11   -1    0    0    0    0 -0.00000000000E+00 -0.00000000000E+00 -0.45593999997E+02  0.45594000000E+02  0.51100000000E-03 0.  1.
    9900012    2    1    2    0    0 -0.37962413673E+02 -0.16317787241E+02 -0.13274209400E+02  0.47787312592E+02  0.20000189430E+02 0.  0.
         12    1    1    2    0    0  0.37962413673E+02  0.16317787241E+02  0.13274209400E+02  0.43400687408E+02  0.00000000000E+00 0. -1.
         11    1    3    3    0    0  0.16236905648E+01 -0.32676689250E+01  0.43346984770E-02  0.36488423239E+01  0.51100000000E-03 0. -1.
        -11    1    3    3    0    0 -0.35613248649E+02 -0.10006665266E+02 -0.10700871130E+02  0.38509031048E+02  0.51100000000E-03 0.  1.
         12    1    3    3    0    0 -0.39728555893E+01 -0.30434530501E+01 -0.25776729678E+01  0.56294392199E+01  0.00000000000E+00 0. -1.
</event>
<event>
 7    1  0.4477737E-009  0.4778727E+02  0.7816164E-02  0.1312668E+00
        -11   -1    0    0    0    0  0.00000000000E+00  0.00000000000E+00  0.45593999997E+02  0.45594000000E+02  0.51100000000E-03 0.  1.
         11   -1    0    0    0    0 -0.00000000000E+00 -0.00000000000E+00 -0.45593999997E+02  0.45594000000E+02  0.51100000000E-03 0. -1.
    9900012    2    1    2    0    0  0.12252478470E+02  0.68701508235E+01  0.41064596343E+02  0.47787271045E+02  0.20000000004E+02 0.  0.
         12    1    1    2    0    0 -0.12252478470E+02 -0.68701508235E+01 -0.41064596343E+02  0.43400728955E+02  0.00000000000E+00 0. -1.
         11    1    3    3    0    0 -0.17887513363E+01 -0.34129889753E+01  0.18560557817E+01  0.42770396789E+01  0.51100000000E-03 0. -1.
        -11    1    3    3    0    0 -0.33219125222E+00  0.18338823586E+01  0.19825666603E+01  0.27210377353E+01  0.51100000000E-03 0.  1.
         12    1    3    3    0    0  0.14373421058E+02  0.84492574402E+01  0.37225973901E+02  0.40789193631E+02  0.00000000000E+00 0. -1.
</event>
<event>
 7    1  0.4477737E-009  0.4778728E+02  0.7816164E-02  0.1312668E+00
        -11   -1    0    0    0    0  0.00000000000E+00  0.00000000000E+00  0.45593999997E+02  0.45594000000E+02  0.51100000000E-03 0. -1.
         11   -1    0    0    0    0 -0.00000000000E+00 -0.00000000000E+00 -0.45593999997E+02  0.45594000000E+02  0.51100000000E-03 0.  1.
    9900012    2    1    2    0    0  0.39300638980E+02 -0.13767768804E+00  0.18413663191E+02  0.47787283745E+02  0.20000057905E+02 0.  0.
         12    1    1    2    0    0 -0.39300638980E+02  0.13767768804E+00 -0.18413663191E+02  0.43400716255E+02  0.00000000000E+00 0. -1.
         11    1    3    3    0    0  0.92683867653E+01 -0.46204752229E+01  0.80275543269E+00  0.10387309616E+02  0.51100000000E-03 0. -1.
        -11    1    3    3    0    0  0.28993442667E+02  0.73511122608E+01  0.15483593977E+02  0.33680858835E+02  0.51100000000E-03 0.  1.
        -12    1    3    3    0    0  0.10388095481E+01 -0.28683147260E+01  0.21273137808E+01  0.37191152935E+01  0.00000000000E+00 0.  1.
</event>
<event>
 7    1  0.4477737E-009  0.4778727E+02  0.7816164E-02  0.1312668E+00
        -11   -1    0    0    0    0  0.00000000000E+00  0.00000000000E+00  0.45593999997E+02  0.45594000000E+02  0.51100000000E-03 0.  1.
         11   -1    0    0    0    0 -0.00000000000E+00 -0.00000000000E+00 -0.45593999997E+02  0.45594000000E+02  0.51100000000E-03 0. -1.
    9900012    2    1    2    0    0 -0.33693410006E+01  0.24224343512E+02  0.35853197794E+02  0.47787273400E+02  0.20000010738E+02 0.  0.
         12    1    1    2    0    0  0.33693410006E+01 -0.24224343512E+02 -0.35853197794E+02  0.43400726600E+02  0.00000000000E+00 0. -1.
         11    1    3    3    0    0  0.39189718594E+01  0.13499059700E+02  0.77308152120E+01  0.16042083946E+02  0.51100000000E-03 0. -1.
        -11    1    3    3    0    0 -0.10294080993E+01  0.72508904253E+01  0.17098895494E+02  0.18601272009E+02  0.51100000000E-03 0.  1.
         12    1    3    3    0    0 -0.62589047607E+01  0.34743933874E+01  0.11023487088E+02  0.13143917445E+02  0.00000000000E+00 0. -1.
</event>
<event>
 7    1  0.4477737E-009  0.4778727E+02  0.7816164E-02  0.1312668E+00
        -11   -1    0    0    0    0  0.00000000000E+00  0.00000000000E+00  0.45593999997E+02  0.45594000000E+02  0.51100000000E-03 0.  1.
         11   -1    0    0    0    0 -0.00000000000E+00 -0.00000000000E+00 -0.45593999997E+02  0.45594000000E+02  0.51100000000E-03 0. -1.
    9900012    2    1    2    0    0 -0.21087052018E+02 -0.36640223164E+02 -0.98210737710E+01  0.47787271823E+02  0.20000003548E+02 0.  0.
         12    1    1    2    0    0  0.21087052018E+02  0.36640223164E+02  0.98210737710E+01  0.43400728177E+02  0.00000000000E+00 0. -1.
         11    1    3    3    0    0 -0.86789065188E+01 -0.27385086507E+02 -0.12105036690E+01  0.28752942472E+02  0.51100000000E-03 0. -1.
        -11    1    3    3    0    0 -0.82390242236E+01 -0.94961511243E+01 -0.77548921416E+01  0.14771484649E+02  0.51100000000E-03 0.  1.
         12    1    3    3    0    0 -0.41691212758E+01  0.24101446775E+00 -0.85567796031E+00  0.42628447025E+01  0.00000000000E+00 0. -1.
</event>
<event>
 7    1  0.4477737E-009  0.4778727E+02  0.7816164E-02  0.1312668E+00
        -11   -1    0    0    0    0  0.00000000000E+00  0.00000000000E+00  0.45593999997E+02  0.45594000000E+02  0.51100000000E-03 0. -1.
         11   -1    0    0    0    0 -0.00000000000E+00 -0.00000000000E+00 -0.45593999997E+02  0.45594000000E+02  0.51100000000E-03 0.  1.
    9900012    2    1    2    0    0 -0.65006303368E+01 -0.37230588910E+02 -0.21336549466E+02  0.47787270876E+02  0.19999999232E+02 0.  0.
         12    1    1    2    0    0  0.65006303368E+01  0.37230588910E+02  0.21336549466E+02  0.43400729124E+02  0.00000000000E+00 0. -1.
         11    1    3    3    0    0 -0.49149873148E+01 -0.21931273397E+02 -0.16727919041E+01  0.22537437435E+02  0.51100000000E-03 0. -1.
        -11    1    3    3    0    0 -0.15595677586E+01 -0.14337585116E+02 -0.16362467231E+02  0.21811211170E+02  0.51100000000E-03 0.  1.
         12    1    3    3    0    0 -0.26075263404E-01 -0.96173039726E+00 -0.33012903308E+01  0.34386222713E+01  0.00000000000E+00 0. -1.
</event>
<event>
 7    1  0.4477737E-009  0.4778728E+02  0.7816164E-02  0.1312668E+00
        -11   -1    0    0    0    0  0.00000000000E+00  0.00000000000E+00  0.45593999997E+02  0.45594000000E+02  0.51100000000E-03 0. -1.
         11   -1    0    0    0    0 -0.00000000000E+00 -0.00000000000E+00 -0.45593999997E+02  0.45594000000E+02  0.51100000000E-03 0.  1.
    9900012    2    1    2    0    0  0.15503557349E+02  0.39951554428E+02  0.68655316888E+01  0.47787279763E+02  0.20000039753E+02 0.  0.
         12    1    1    2    0    0 -0.15503557349E+02 -0.39951554428E+02 -0.68655316888E+01  0.43400720237E+02  0.00000000000E+00 0. -1.
         11    1    3    3    0    0 -0.15567711802E+01  0.12408597689E+01  0.45396673966E+01  0.49570000813E+01  0.51100000000E-03 0. -1.
        -11    1    3    3    0    0  0.17225200295E+02  0.36366693074E+02  0.12851791347E+01  0.40260347440E+02  0.51100000000E-03 0.  1.
        -12    1    3    3    0    0 -0.16487176568E+00  0.23440015855E+01  0.10406851576E+01  0.25699322422E+01  0.00000000000E+00 0.  1.
</event>
<event>
 7    1  0.4477737E-009  0.4778727E+02  0.7816164E-02  0.1312668E+00
        -11   -1    0    0    0    0  0.00000000000E+00  0.00000000000E+00  0.45593999997E+02  0.45594000000E+02  0.51100000000E-03 0.  1.
         11   -1    0    0    0    0 -0.00000000000E+00 -0.00000000000E+00 -0.45593999997E+02  0.45594000000E+02  0.51100000000E-03 0. -1.
    9900012    2    1    2    0    0  0.33607430563E+01 -0.37607549765E+02  0.21400952093E+02  0.47787272544E+02  0.20000006837E+02 0.  0.
         12    1    1    2    0    0 -0.33607430563E+01  0.37607549765E+02 -0.21400952093E+02  0.43400727456E+02  0.00000000000E+00 0. -1.
         11    1    3    3    0    0 -0.31618178742E+00  0.72178342174E+00 -0.13354983534E-02  0.78800017467E+00  0.51100000000E-03 0. -1.
        -11    1    3    3    0    0 -0.41015467668E+01 -0.18694811921E+02  0.38149822571E+01  0.19515961891E+02  0.51100000000E-03 0.  1.
        -12    1    3    3    0    0  0.77784716105E+01 -0.19634521266E+02  0.17587305334E+02  0.27483310479E+02  0.00000000000E+00 0.  1.
</event>
<event>
 7    1  0.4477737E-009  0.4778727E+02  0.7816164E-02  0.1312668E+00
        -11   -1    0    0    0    0  0.00000000000E+00  0.00000000000E+00  0.45593999997E+02  0.45594000000E+02  0.51100000000E-03 0.  1.
         11   -1    0    0    0    0 -0.00000000000E+00 -0.00000000000E+00 -0.45593999997E+02  0.45594000000E+02  0.51100000000E-03 0. -1.
    9900012    2    1    2    0    0  0.17668883577E+02  0.37388369319E+02  0.13173598250E+02  0.47787270766E+02  0.19999998731E+02 0.  0.
         12    1    1    2    0    0 -0.17668883577E+02 -0.37388369319E+02 -0.13173598250E+02  0.43400729234E+02  0.00000000000E+00 0. -1.
         11    1    3    3    0    0  0.12793208725E+01  0.90329160304E+01  0.42758153926E+01  0.10075357633E+02  0.51100000000E-03 0. -1.
        -11    1    3    3    0    0  0.69004357743E+01  0.77035400349E+01 -0.45554842519E+01  0.11301016767E+02  0.51100000000E-03 0.  1.
        -12    1    3    3    0    0  0.94891269303E+01  0.20651913254E+02  0.13453267109E+02  0.26410896366E+02  0.00000000000E+00 0.  1.
</event>
<event>
 7    1  0.4477737E-009  0.4778726E+02  0.7816164E-02  0.1312668E+00
        -11   -1    0    0    0    0  0.00000000000E+00  0.00000000000E+00  0.45593999997E+02  0.45594000000E+02  0.51100000000E-03 0.  1.
         11   -1    0    0    0    0 -0.00000000000E+00 -0.00000000000E+00 -0.45593999997E+02  0.45594000000E+02  0.51100000000E-03 0. -1.
    9900012    2    1    2    0    0 -0.23238917747E+02  0.35858317774E+02 -0.75998695983E+01  0.47787259574E+02  0.19999947700E+02 0.  0.
         12    1    1    2    0    0  0.23238917747E+02 -0.35858317774E+02  0.75998695983E+01  0.43400740426E+02  0.00000000000E+00 0. -1.
         11    1    3    3    0    0 -0.11621628544E+02  0.36563873451E+01 -0.16077759081E+01  0.12288871473E+02  0.51100000000E-03 0. -1.
        -11    1    3    3    0    0 -0.76837898173E+01  0.11086069518E+02 -0.29154797829E+01  0.13800057462E+02  0.51100000000E-03 0.  1.
         12    1    3    3    0    0 -0.39334993859E+01  0.21115860910E+02 -0.30766139072E+01  0.21698330639E+02  0.00000000000E+00 0. -1.
</event>
<event>
 7    1  0.4477737E-009  0.4778727E+02  0.7816164E-02  0.1312668E+00
        -11   -1    0    0    0    0  0.00000000000E+00  0.00000000000E+00  0.45593999997E+02  0.45594000000E+02  0.51100000000E-03 0.  1.
         11   -1    0    0    0    0 -0.00000000000E+00 -0.00000000000E+00 -0.45593999997E+02  0.45594000000E+02  0.51100000000E-03 0. -1.
    9900012    2    1    2    0    0  0.20850747320E+02  0.94446584014E+01  0.36873675062E+02  0.47787272486E+02  0.20000006575E+02 0.  0.
         12    1    1    2    0    0 -0.20850747320E+02 -0.94446584014E+01 -0.36873675062E+02  0.43400727514E+02  0.00000000000E+00 0. -1.
         11    1    3    3    0    0  0.54286963148E+01  0.11418074397E+01  0.94598286667E+00  0.56275529098E+01  0.51100000000E-03 0. -1.
        -11    1    3    3    0    0  0.16976144619E+02  0.56946141943E+01  0.34353112753E+02  0.38739572443E+02  0.51100000000E-03 0.  1.
        -12    1    3    3    0    0 -0.15540936143E+01  0.26082367674E+01  0.15745794426E+01  0.34201471340E+01  0.00000000000E+00 0.  1.
</event>
<event>
 7    1  0.4477737E-009  0.4778727E+02  0.7816164E-02  0.1312668E+00
        -11   -1    0    0    0    0  0.00000000000E+00  0.00000000000E+00  0.45593999997E+02  0.45594000000E+02  0.51100000000E-03 0.  1.
         11   -1    0    0    0    0 -0.00000000000E+00 -0.00000000000E+00 -0.45593999997E+02  0.45594000000E+02  0.51100000000E-03 0. -1.
    9900012    2    1    2    0    0  0.34607793547E+02 -0.12487993108E+02  0.23021163109E+02  0.47787270779E+02  0.19999998788E+02 0.  0.
         12    1    1    2    0    0 -0.34607793547E+02  0.12487993108E+02 -0.23021163109E+02  0.43400729221E+02  0.00000000000E+00 0. -1.
         11    1    3    3    0    0  0.33719824305E+01 -0.74107525699E+01  0.57979223984E+01  0.99952700596E+01  0.51100000000E-03 0.  1.
        -11    1    3    3    0    0  0.13423412430E+02  0.32892716036E+01  0.88090764469E+01  0.16389238453E+02  0.51100000000E-03 0. -1.
        -12    1    3    3    0    0  0.17812398686E+02 -0.83665121418E+01  0.84141642638E+01  0.21402762267E+02  0.00000000000E+00 0.  1.
</event>
<event>
 7    1  0.4477737E-009  0.4778727E+02  0.7816164E-02  0.1312668E+00
        -11   -1    0    0    0    0  0.00000000000E+00  0.00000000000E+00  0.45593999997E+02  0.45594000000E+02  0.51100000000E-03 0.  1.
         11   -1    0    0    0    0 -0.00000000000E+00 -0.00000000000E+00 -0.45593999997E+02  0.45594000000E+02  0.51100000000E-03 0. -1.
    9900012    2    1    2    0    0 -0.27656610150E+00  0.26971847837E+01  0.43315954505E+02  0.47787271789E+02  0.20000003397E+02 0.  0.
         12    1    1    2    0    0  0.27656610150E+00 -0.26971847837E+01 -0.43315954505E+02  0.43400728211E+02  0.00000000000E+00 0. -1.
         11    1    3    3    0    0 -0.26412462641E+01  0.58086704027E+01  0.29514628967E+01  0.70305026254E+01  0.51100000000E-03 0. -1.
        -11    1    3    3    0    0  0.24841214273E+01 -0.19181921005E+01  0.13283547030E+02  0.13649283577E+02  0.51100000000E-03 0.  1.
         12    1    3    3    0    0 -0.11944126470E+00 -0.11932935185E+01  0.27080944577E+02  0.27107485587E+02  0.00000000000E+00 0. -1.
</event>
<event>
 7    1  0.4477737E-009  0.4778727E+02  0.7816164E-02  0.1312668E+00
        -11   -1    0    0    0    0  0.00000000000E+00  0.00000000000E+00  0.45593999997E+02  0.45594000000E+02  0.51100000000E-03 0.  1.
         11   -1    0    0    0    0 -0.00000000000E+00 -0.00000000000E+00 -0.45593999997E+02  0.45594000000E+02  0.51100000000E-03 0. -1.
    9900012    2    1    2    0    0 -0.81552371948E+01 -0.17208129312E+02  0.38999943674E+02  0.47787271726E+02  0.20000003106E+02 0.  0.
         12    1    1    2    0    0  0.81552371948E+01  0.17208129312E+02 -0.38999943674E+02  0.43400728274E+02  0.00000000000E+00 0. -1.
         11    1    3    3    0    0 -0.32479463050E+01 -0.52013055541E+01  0.17342674498E+01  0.63726304236E+01  0.51100000000E-03 0. -1.
        -11    1    3    3    0    0 -0.32371555193E+01 -0.13831779575E+02  0.35855741217E+02  0.38567233250E+02  0.51100000000E-03 0.  1.
        -12    1    3    3    0    0 -0.16701353705E+01  0.18249558170E+01  0.14099350077E+01  0.28474080522E+01  0.00000000000E+00 0.  1.
</event>
<event>
 7    1  0.4477737E-009  0.4778727E+02  0.7816164E-02  0.1312668E+00
        -11   -1    0    0    0    0  0.00000000000E+00  0.00000000000E+00  0.45593999997E+02  0.45594000000E+02  0.51100000000E-03 0.  1.
         11   -1    0    0    0    0 -0.00000000000E+00 -0.00000000000E+00 -0.45593999997E+02  0.45594000000E+02  0.51100000000E-03 0. -1.
    9900012    2    1    2    0    0  0.20138151853E+02  0.38427981024E+01  0.38253250757E+02  0.47787269006E+02  0.19999990707E+02 0.  0.
         12    1    1    2    0    0 -0.20138151853E+02 -0.38427981024E+01 -0.38253250757E+02  0.43400730994E+02  0.00000000000E+00 0. -1.
         11    1    3    3    0    0  0.15855906107E+02  0.13756946629E+01  0.22495620858E+02  0.27556401295E+02  0.51100000000E-03 0. -1.
        -11    1    3    3    0    0 -0.23583187181E+01  0.50133412787E+01  0.61534924591E+01  0.82801405578E+01  0.51100000000E-03 0.  1.
         12    1    3    3    0    0  0.66405644639E+01 -0.25462378391E+01  0.96041374402E+01  0.11950727154E+02  0.00000000000E+00 0. -1.
</event>
<event>
 7    1  0.4477737E-009  0.4778727E+02  0.7816164E-02  0.1312668E+00
        -11   -1    0    0    0    0  0.00000000000E+00  0.00000000000E+00  0.45593999997E+02  0.45594000000E+02  0.51100000000E-03 0. -1.
         11   -1    0    0    0    0 -0.00000000000E+00 -0.00000000000E+00 -0.45593999997E+02  0.45594000000E+02  0.51100000000E-03 0.  1.
    9900012    2    1    2    0    0 -0.17575464478E+02  0.35948907066E+02 -0.16804841700E+02  0.47787267570E+02  0.19999984159E+02 0.  0.
         12    1    1    2    0    0  0.17575464478E+02 -0.35948907066E+02  0.16804841700E+02  0.43400732430E+02  0.00000000000E+00 0. -1.
         11    1    3    3    0    0 -0.71974443514E+00  0.27333632501E+01 -0.37474823978E+01  0.46939249346E+01  0.51100000000E-03 0. -1.
        -11    1    3    3    0    0 -0.11414190581E+02  0.87871041071E+01 -0.10722661871E+02  0.17957517175E+02  0.51100000000E-03 0.  1.
        -12    1    3    3    0    0 -0.54415294621E+01  0.24428439709E+02 -0.23346974313E+01  0.25135825461E+02  0.00000000000E+00 0.  1.
</event>
<event>
 7    1  0.4477737E-009  0.4778727E+02  0.7816164E-02  0.1312668E+00
        -11   -1    0    0    0    0  0.00000000000E+00  0.00000000000E+00  0.45593999997E+02  0.45594000000E+02  0.51100000000E-03 0. -1.
         11   -1    0    0    0    0 -0.00000000000E+00 -0.00000000000E+00 -0.45593999997E+02  0.45594000000E+02  0.51100000000E-03 0.  1.
    9900012    2    1    2    0    0 -0.12882846095E+02 -0.38528290457E+02 -0.15271745808E+02  0.47787272944E+02  0.20000008659E+02 0.  0.
         12    1    1    2    0    0  0.12882846095E+02  0.38528290457E+02  0.15271745808E+02  0.43400727056E+02  0.00000000000E+00 0. -1.
         11    1    3    3    0    0 -0.10082748428E+02 -0.26427283803E+02 -0.29587499407E+01  0.28439714248E+02  0.51100000000E-03 0. -1.
        -11    1    3    3    0    0 -0.35579557442E+01 -0.13452896211E+01 -0.51511624491E+01  0.64033841115E+01  0.51100000000E-03 0.  1.
         12    1    3    3    0    0  0.75785807662E+00 -0.10755717032E+02 -0.71618334177E+01  0.12944174584E+02  0.00000000000E+00 0. -1.
</event>
<event>
 7    1  0.4477737E-009  0.4778727E+02  0.7816164E-02  0.1312668E+00
        -11   -1    0    0    0    0  0.00000000000E+00  0.00000000000E+00  0.45593999997E+02  0.45594000000E+02  0.51100000000E-03 0.  1.
         11   -1    0    0    0    0 -0.00000000000E+00 -0.00000000000E+00 -0.45593999997E+02  0.45594000000E+02  0.51100000000E-03 0. -1.
    9900012    2    1    2    0    0 -0.78414264203E+01 -0.24749774992E+02  0.34779069033E+02  0.47787274508E+02  0.20000015790E+02 0.  0.
         12    1    1    2    0    0  0.78414264203E+01  0.24749774992E+02 -0.34779069033E+02  0.43400725492E+02  0.00000000000E+00 0. -1.
         11    1    3    3    0    0 -0.71192087220E+01 -0.25671753771E+01  0.29466881916E+01  0.81213603420E+01  0.51100000000E-03 0. -1.
        -11    1    3    3    0    0 -0.20411623508E+01 -0.18638265560E+02  0.30199632277E+02  0.35546716821E+02  0.51100000000E-03 0.  1.
        -12    1    3    3    0    0  0.13189446525E+01 -0.35443340554E+01  0.16327485646E+01  0.41191973451E+01  0.00000000000E+00 0.  1.
</event>
<event>
 7    1  0.4477737E-009  0.4778727E+02  0.7816164E-02  0.1312668E+00
        -11   -1    0    0    0    0  0.00000000000E+00  0.00000000000E+00  0.45593999997E+02  0.45594000000E+02  0.51100000000E-03 0.  1.
         11   -1    0    0    0    0 -0.00000000000E+00 -0.00000000000E+00 -0.45593999997E+02  0.45594000000E+02  0.51100000000E-03 0. -1.
    9900012    2    1    2    0    0  0.12226463925E+02  0.43097495468E+01  0.41419354915E+02  0.47787270480E+02  0.19999997426E+02 0.  0.
         12    1    1    2    0    0 -0.12226463925E+02 -0.43097495468E+01 -0.41419354915E+02  0.43400729520E+02  0.00000000000E+00 0. -1.
         11    1    3    3    0    0 -0.43719930552E+01  0.33852934861E+01  0.88136179272E+01  0.10404537303E+02  0.51100000000E-03 0. -1.
        -11    1    3    3    0    0  0.13076030234E+02 -0.22278695786E+01  0.26741641624E+02  0.29850651024E+02  0.51100000000E-03 0.  1.
         12    1    3    3    0    0  0.35224267462E+01  0.31523256394E+01  0.58640953646E+01  0.75320821533E+01  0.00000000000E+00 0. -1.
</event>
<event>
 7    1  0.4477737E-009  0.4778729E+02  0.7816164E-02  0.1312668E+00
        -11   -1    0    0    0    0  0.00000000000E+00  0.00000000000E+00  0.45593999997E+02  0.45594000000E+02  0.51100000000E-03 0.  1.
         11   -1    0    0    0    0 -0.00000000000E+00 -0.00000000000E+00 -0.45593999997E+02  0.45594000000E+02  0.51100000000E-03 0. -1.
    9900012    2    1    2    0    0 -0.30966089717E+02  0.12263712146E+02  0.27826678608E+02  0.47787292745E+02  0.20000098940E+02 0.  0.
         12    1    1    2    0    0  0.30966089717E+02 -0.12263712146E+02 -0.27826678608E+02  0.43400707255E+02  0.00000000000E+00 0. -1.
         11    1    3    3    0    0 -0.13273525113E+02  0.14643295630E+02  0.17107477840E+02  0.26139593993E+02  0.51100000000E-03 0.  1.
        -11    1    3    3    0    0 -0.44172841923E+01 -0.32793890869E+01  0.30878786008E+01  0.63088657406E+01  0.51100000000E-03 0. -1.
        -12    1    3    3    0    0 -0.13275280411E+02  0.89980560282E+00  0.76313221676E+01  0.15338833011E+02  0.00000000000E+00 0.  1.
</event>
<event>
 7    1  0.4477737E-009  0.4778727E+02  0.7816164E-02  0.1312668E+00
        -11   -1    0    0    0    0  0.00000000000E+00  0.00000000000E+00  0.45593999997E+02  0.45594000000E+02  0.51100000000E-03 0.  1.
         11   -1    0    0    0    0 -0.00000000000E+00 -0.00000000000E+00 -0.45593999997E+02  0.45594000000E+02  0.51100000000E-03 0. -1.
    9900012    2    1    2    0    0 -0.36174159504E+02  0.12517150838E+02  0.20454194212E+02  0.47787274870E+02  0.20000017442E+02 0.  0.
         12    1    1    2    0    0  0.36174159504E+02 -0.12517150838E+02 -0.20454194212E+02  0.43400725130E+02  0.00000000000E+00 0. -1.
         11    1    3    3    0    0  0.20054972650E+01  0.89801641520E+00  0.10031145840E+01  0.24155106896E+01  0.51100000000E-03 0. -1.
        -11    1    3    3    0    0 -0.83257115461E+01 -0.10775893498E+01  0.56327771723E+01  0.10109740377E+02  0.51100000000E-03 0.  1.
         12    1    3    3    0    0 -0.29853945223E+02  0.12696723773E+02  0.13818302456E+02  0.35262023803E+02  0.00000000000E+00 0. -1.
</event>
<event>
 7    1  0.4477737E-009  0.4778727E+02  0.7816164E-02  0.1312668E+00
        -11   -1    0    0    0    0  0.00000000000E+00  0.00000000000E+00  0.45593999997E+02  0.45594000000E+02  0.51100000000E-03 0. -1.
         11   -1    0    0    0    0 -0.00000000000E+00 -0.00000000000E+00 -0.45593999997E+02  0.45594000000E+02  0.51100000000E-03 0.  1.
    9900012    2    1    2    0    0  0.20043274846E+02  0.27945964021E+02 -0.26474775169E+02  0.47787268533E+02  0.19999988550E+02 0.  0.
         12    1    1    2    0    0 -0.20043274846E+02 -0.27945964021E+02  0.26474775169E+02  0.43400731467E+02  0.00000000000E+00 0. -1.
         11    1    3    3    0    0  0.81371094436E+01 -0.75608311191E+00 -0.38094511679E+01  0.90164366703E+01  0.51100000000E-03 0. -1.
        -11    1    3    3    0    0  0.39361869316E+01  0.11014584508E+02 -0.57585333201E+01  0.13037459327E+02  0.51100000000E-03 0.  1.
         12    1    3    3    0    0  0.79699784711E+01  0.17687462625E+02 -0.16906790681E+02  0.25733372536E+02  0.00000000000E+00 0. -1.
</event>
<event>
 7    1  0.4477737E-009  0.4778727E+02  0.7816164E-02  0.1312668E+00
        -11   -1    0    0    0    0  0.00000000000E+00  0.00000000000E+00  0.45593999997E+02  0.45594000000E+02  0.51100000000E-03 0. -1.
         11   -1    0    0    0    0 -0.00000000000E+00 -0.00000000000E+00 -0.45593999997E+02  0.45594000000E+02  0.51100000000E-03 0.  1.
    9900012    2    1    2    0    0  0.67288181198E+01  0.41569061917E+02 -0.10505201487E+02  0.47787272354E+02  0.20000005971E+02 0.  0.
         12    1    1    2    0    0 -0.67288181198E+01 -0.41569061917E+02  0.10505201487E+02  0.43400727646E+02  0.00000000000E+00 0. -1.
         11    1    3    3    0    0  0.10630861978E+02  0.14816323179E+02 -0.91702343207E+01  0.20411561839E+02  0.51100000000E-03 0.  1.
        -11    1    3    3    0    0 -0.47110979014E+01  0.22321201174E+02 -0.15521991470E+01  0.22865690187E+02  0.51100000000E-03 0. -1.
        -12    1    3    3    0    0  0.80905404272E+00  0.44315375641E+01  0.21723198112E+00  0.45100203280E+01  0.00000000000E+00 0.  1.
</event>
<event>
 7    1  0.4477737E-009  0.4778727E+02  0.7816164E-02  0.1312668E+00
        -11   -1    0    0    0    0  0.00000000000E+00  0.00000000000E+00  0.45593999997E+02  0.45594000000E+02  0.51100000000E-03 0.  1.
         11   -1    0    0    0    0 -0.00000000000E+00 -0.00000000000E+00 -0.45593999997E+02  0.45594000000E+02  0.51100000000E-03 0. -1.
    9900012    2    1    2    0    0 -0.48615001752E+01  0.42715669469E+02 -0.59465107159E+01  0.47787267381E+02  0.19999983297E+02 0.  0.
         12    1    1    2    0    0  0.48615001752E+01 -0.42715669469E+02  0.59465107159E+01  0.43400732619E+02  0.00000000000E+00 0. -1.
         11    1    3    3    0    0  0.52746988384E+01  0.87861643271E+01  0.70298963684E+00  0.10271967976E+02  0.51100000000E-03 0. -1.
        -11    1    3    3    0    0 -0.67307515435E+01  0.29666379000E+02 -0.87733564864E+01  0.31660209153E+02  0.51100000000E-03 0.  1.
        -12    1    3    3    0    0 -0.34054474701E+01  0.42631261425E+01  0.21238561337E+01  0.58550902517E+01  0.00000000000E+00 0.  1.
</event>
<event>
 7    1  0.4477737E-009  0.4778727E+02  0.7816164E-02  0.1312668E+00
        -11   -1    0    0    0    0  0.00000000000E+00  0.00000000000E+00  0.45593999997E+02  0.45594000000E+02  0.51100000000E-03 0.  1.
         11   -1    0    0    0    0 -0.00000000000E+00 -0.00000000000E+00 -0.45593999997E+02  0.45594000000E+02  0.51100000000E-03 0. -1.
    9900012    2    1    2    0    0 -0.27024509345E+01  0.42895274684E+02  0.60262407645E+01  0.47787269487E+02  0.19999992901E+02 0.  0.
         12    1    1    2    0    0  0.27024509345E+01 -0.42895274684E+02 -0.60262407645E+01  0.43400730513E+02  0.00000000000E+00 0. -1.
         11    1    3    3    0    0 -0.60456249559E+01  0.20883422888E+02  0.33601167526E+01  0.21999029921E+02  0.51100000000E-03 0. -1.
        -11    1    3    3    0    0  0.57525762749E+01  0.79906434541E+01  0.55059344022E+01  0.11280861249E+02  0.51100000000E-03 0.  1.
        -12    1    3    3    0    0 -0.24094022536E+01  0.14021208342E+02 -0.28398103903E+01  0.14507378318E+02  0.00000000000E+00 0.  1.
</event>
<event>
 7    1  0.4477737E-009  0.4778727E+02  0.7816164E-02  0.1312668E+00
        -11   -1    0    0    0    0  0.00000000000E+00  0.00000000000E+00  0.45593999997E+02  0.45594000000E+02  0.51100000000E-03 0.  1.
         11   -1    0    0    0    0 -0.00000000000E+00 -0.00000000000E+00 -0.45593999997E+02  0.45594000000E+02  0.51100000000E-03 0. -1.
    9900012    2    1    2    0    0 -0.35681357703E+02 -0.22629914717E+02 -0.99172033672E+01  0.47787271317E+02  0.20000001241E+02 0.  0.
         12    1    1    2    0    0  0.35681357703E+02  0.22629914717E+02  0.99172033672E+01  0.43400728683E+02  0.00000000000E+00 0. -1.
         11    1    3    3    0    0  0.67994247735E+00  0.10536848786E+01 -0.22929323012E+01  0.26134483724E+01  0.51100000000E-03 0. -1.
        -11    1    3    3    0    0 -0.21045722426E+02 -0.13586778352E+02 -0.93726876945E+01  0.26746406362E+02  0.51100000000E-03 0.  1.
         12    1    3    3    0    0 -0.15315577755E+02 -0.10096821243E+02  0.17484166285E+01  0.18427416582E+02  0.00000000000E+00 0. -1.
</event>
<event>
 7    1  0.4477737E-009  0.4778727E+02  0.7816164E-02  0.1312668E+00
        -11   -1    0    0    0    0  0.00000000000E+00  0.00000000000E+00  0.45593999997E+02  0.45594000000E+02  0.51100000000E-03 0. -1.
         11   -1    0    0    0    0 -0.00000000000E+00 -0.00000000000E+00 -0.45593999997E+02  0.45594000000E+02  0.51100000000E-03 0.  1.
    9900012    2    1    2    0    0  0.16626959819E+02  0.23644967790E+02 -0.32374109846E+02  0.47787270940E+02  0.19999999522E+02 0.  0.
         12    1    1    2    0    0 -0.16626959819E+02 -0.23644967790E+02  0.32374109846E+02  0.43400729060E+02  0.00000000000E+00 0. -1.
         11    1    3    3    0    0  0.42197500566E+01  0.14455415136E+02 -0.72888549551E+01  0.16729994743E+02  0.51100000000E-03 0. -1.
        -11    1    3    3    0    0  0.38387528588E+01  0.57779236255E+01 -0.18406549364E+02  0.19670319893E+02  0.51100000000E-03 0.  1.
         12    1    3    3    0    0  0.85684569035E+01  0.34116290289E+01 -0.66787055271E+01  0.11386956303E+02  0.00000000000E+00 0. -1.
</event>
<event>
 7    1  0.4477737E-009  0.4778727E+02  0.7816164E-02  0.1312668E+00
        -11   -1    0    0    0    0  0.00000000000E+00  0.00000000000E+00  0.45593999997E+02  0.45594000000E+02  0.51100000000E-03 0.  1.
         11   -1    0    0    0    0 -0.00000000000E+00 -0.00000000000E+00 -0.45593999997E+02  0.45594000000E+02  0.51100000000E-03 0. -1.
    9900012    2    1    2    0    0  0.20687531355E+02 -0.18057201483E+02  0.33609326570E+02  0.47787270612E+02  0.19999998029E+02 0.  0.
         12    1    1    2    0    0 -0.20687531355E+02  0.18057201483E+02 -0.33609326570E+02  0.43400729388E+02  0.00000000000E+00 0. -1.
         11    1    3    3    0    0  0.10882621149E+02 -0.98055584765E+01  0.55748452430E+01  0.15673522892E+02  0.51100000000E-03 0. -1.
        -11    1    3    3    0    0  0.10151209945E+02 -0.35810863937E+01  0.21834215277E+02  0.24343463191E+02  0.51100000000E-03 0.  1.
         12    1    3    3    0    0 -0.34629973893E+00 -0.46705566124E+01  0.62002660499E+01  0.77702845294E+01  0.00000000000E+00 0. -1.
</event>
<event>
 7    1  0.4477737E-009  0.4778727E+02  0.7816164E-02  0.1312668E+00
        -11   -1    0    0    0    0  0.00000000000E+00  0.00000000000E+00  0.45593999997E+02  0.45594000000E+02  0.51100000000E-03 0.  1.
         11   -1    0    0    0    0 -0.00000000000E+00 -0.00000000000E+00 -0.45593999997E+02  0.45594000000E+02  0.51100000000E-03 0. -1.
    9900012    2    1    2    0    0  0.29014075085E+02  0.58982549674E+01  0.31733535394E+02  0.47787271512E+02  0.20000002132E+02 0.  0.
         12    1    1    2    0    0 -0.29014075085E+02 -0.58982549674E+01 -0.31733535394E+02  0.43400728488E+02  0.00000000000E+00 0. -1.
         11    1    3    3    0    0  0.11334324087E+02  0.19538860045E+01  0.15670386692E+01  0.11607763931E+02  0.51100000000E-03 0. -1.
        -11    1    3    3    0    0  0.14947023466E+02  0.25518913905E+01  0.29302046592E+02  0.32992962809E+02  0.51100000000E-03 0.  1.
        -12    1    3    3    0    0  0.27327275312E+01  0.13924775724E+01  0.86445013247E+00  0.31865447715E+01  0.00000000000E+00 0.  1.
</event>
<event>
 7    1  0.4477737E-009  0.4778727E+02  0.7816164E-02  0.1312668E+00
        -11   -1    0    0    0    0  0.00000000000E+00  0.00000000000E+00  0.45593999997E+02  0.45594000000E+02  0.51100000000E-03 0.  1.
         11   -1    0    0    0    0 -0.00000000000E+00 -0.00000000000E+00 -0.45593999997E+02  0.45594000000E+02  0.51100000000E-03 0. -1.
    9900012    2    1    2    0    0  0.25526357865E+02  0.86576359015E+01  0.34015781373E+02  0.47787274342E+02  0.20000015035E+02 0.  0.
         12    1    1    2    0    0 -0.25526357865E+02 -0.86576359015E+01 -0.34015781373E+02  0.43400725658E+02  0.00000000000E+00 0. -1.
         11    1    3    3    0    0 -0.60222248294E+00 -0.22853423802E+01  0.64980118635E+01  0.69144500977E+01  0.51100000000E-03 0. -1.
        -11    1    3    3    0    0  0.25177854931E+02  0.70318624925E+01  0.22965748450E+02  0.34796509469E+02  0.51100000000E-03 0.  1.
        -12    1    3    3    0    0  0.95072541691E+00  0.39111157892E+01  0.45520210585E+01  0.60763147756E+01  0.00000000000E+00 0.  1.
</event>
<event>
 7    1  0.4477737E-009  0.4778727E+02  0.7816164E-02  0.1312668E+00
        -11   -1    0    0    0    0  0.00000000000E+00  0.00000000000E+00  0.45593999997E+02  0.45594000000E+02  0.51100000000E-03 0. -1.
         11   -1    0    0    0    0 -0.00000000000E+00 -0.00000000000E+00 -0.45593999997E+02  0.45594000000E+02  0.51100000000E-03 0.  1.
    9900012    2    1    2    0    0 -0.10603393588E+02  0.28105365182E+02 -0.31325382672E+02  0.47787272965E+02  0.20000008758E+02 0.  0.
         12    1    1    2    0    0  0.10603393588E+02 -0.28105365182E+02  0.31325382672E+02  0.43400727035E+02  0.00000000000E+00 0. -1.
         11    1    3    3    0    0 -0.14492471934E+02  0.20013794378E+02 -0.18419705833E+02  0.30819949244E+02  0.51100000000E-03 0. -1.
        -11    1    3    3    0    0  0.39632734013E+01  0.24071560308E+01 -0.29289358385E+01  0.54845785268E+01  0.51100000000E-03 0.  1.
         12    1    3    3    0    0 -0.74195056152E-01  0.56844147739E+01 -0.99767409999E+01  0.11482745195E+02  0.00000000000E+00 0. -1.
</event>
<event>
 7    1  0.4477737E-009  0.4778728E+02  0.7816164E-02  0.1312668E+00
        -11   -1    0    0    0    0  0.00000000000E+00  0.00000000000E+00  0.45593999997E+02  0.45594000000E+02  0.51100000000E-03 0. -1.
         11   -1    0    0    0    0 -0.00000000000E+00 -0.00000000000E+00 -0.45593999997E+02  0.45594000000E+02  0.51100000000E-03 0.  1.
    9900012    2    1    2    0    0 -0.14688014195E+02  0.40832417847E+02 -0.77383196275E+00  0.47787275073E+02  0.20000018369E+02 0.  0.
         12    1    1    2    0    0  0.14688014195E+02 -0.40832417847E+02  0.77383196275E+00  0.43400724927E+02  0.00000000000E+00 0. -1.
         11    1    3    3    0    0 -0.12456826134E+02  0.22181363280E+02 -0.87443458590E+01  0.26900724508E+02  0.51100000000E-03 0. -1.
        -11    1    3    3    0    0 -0.35094587661E+01  0.11250556440E+02  0.52051755242E+01  0.12883523336E+02  0.51100000000E-03 0.  1.
         12    1    3    3    0    0  0.12782707052E+01  0.74004981267E+01  0.27653383720E+01  0.80030272292E+01  0.00000000000E+00 0. -1.
</event>
<event>
 7    1  0.4477737E-009  0.4778727E+02  0.7816164E-02  0.1312668E+00
        -11   -1    0    0    0    0  0.00000000000E+00  0.00000000000E+00  0.45593999997E+02  0.45594000000E+02  0.51100000000E-03 0. -1.
         11   -1    0    0    0    0 -0.00000000000E+00 -0.00000000000E+00 -0.45593999997E+02  0.45594000000E+02  0.51100000000E-03 0.  1.
    9900012    2    1    2    0    0  0.39564274179E+02 -0.26777122145E+01 -0.17638638841E+02  0.47787268276E+02  0.19999987379E+02 0.  0.
         12    1    1    2    0    0 -0.39564274179E+02  0.26777122145E+01  0.17638638841E+02  0.43400731724E+02  0.00000000000E+00 0. -1.
         11    1    3    3    0    0  0.43874888329E+01 -0.30672267724E+01 -0.63660735036E+01  0.83177419079E+01  0.51100000000E-03 0. -1.
        -11    1    3    3    0    0  0.27816577821E+02  0.29850676986E+01 -0.30649237833E+01  0.28143674047E+02  0.51100000000E-03 0.  1.
        -12    1    3    3    0    0  0.73602075250E+01 -0.25955531407E+01 -0.82076415542E+01  0.11325852321E+02  0.00000000000E+00 0.  1.
</event>
<event>
 7    1  0.4477737E-009  0.4778727E+02  0.7816164E-02  0.1312668E+00
        -11   -1    0    0    0    0  0.00000000000E+00  0.00000000000E+00  0.45593999997E+02  0.45594000000E+02  0.51100000000E-03 0.  1.
         11   -1    0    0    0    0 -0.00000000000E+00 -0.00000000000E+00 -0.45593999997E+02  0.45594000000E+02  0.51100000000E-03 0. -1.
    9900012    2    1    2    0    0 -0.37635336795E+00  0.42414551976E+02  0.91917022962E+01  0.47787271294E+02  0.20000001136E+02 0.  0.
         12    1    1    2    0    0  0.37635336795E+00 -0.42414551976E+02 -0.91917022962E+01  0.43400728706E+02  0.00000000000E+00 0. -1.
         11    1    3    3    0    0 -0.93159641999E+00  0.59631776494E+01  0.60962456504E+01  0.85785529584E+01  0.51100000000E-03 0. -1.
        -11    1    3    3    0    0 -0.51913808255E+01  0.61704593952E+01 -0.96371223289E+00  0.81211911413E+01  0.51100000000E-03 0.  1.
        -12    1    3    3    0    0  0.57466238776E+01  0.30280914931E+02  0.40591688787E+01  0.31087527194E+02  0.00000000000E+00 0.  1.
</event>
<event>
 7    1  0.4477737E-009  0.4778727E+02  0.7816164E-02  0.1312668E+00
        -11   -1    0    0    0    0  0.00000000000E+00  0.00000000000E+00  0.45593999997E+02  0.45594000000E+02  0.51100000000E-03 0. -1.
         11   -1    0    0    0    0 -0.00000000000E+00 -0.00000000000E+00 -0.45593999997E+02  0.45594000000E+02  0.51100000000E-03 0.  1.
    9900012    2    1    2    0    0 -0.31336617038E+02  0.21084497302E+02  0.21379514297E+02  0.47787271602E+02  0.20000002544E+02 0.  0.
         12    1    1    2    0    0  0.31336617038E+02 -0.21084497302E+02 -0.21379514297E+02  0.43400728398E+02  0.00000000000E+00 0. -1.
         11    1    3    3    0    0 -0.70067960385E+01 -0.28968849315E+01  0.60159175789E+01  0.96787601277E+01  0.51100000000E-03 0. -1.
        -11    1    3    3    0    0 -0.12307499181E+02  0.14464624391E+02  0.51257480308E+01  0.19671634096E+02  0.51100000000E-03 0.  1.
        -12    1    3    3    0    0 -0.12022321819E+02  0.95167578430E+01  0.10237848687E+02  0.18436877379E+02  0.00000000000E+00 0.  1.
</event>
<event>
 7    1  0.4477737E-009  0.4778727E+02  0.7816164E-02  0.1312668E+00
        -11   -1    0    0    0    0  0.00000000000E+00  0.00000000000E+00  0.45593999997E+02  0.45594000000E+02  0.51100000000E-03 0.  1.
         11   -1    0    0    0    0 -0.00000000000E+00 -0.00000000000E+00 -0.45593999997E+02  0.45594000000E+02  0.51100000000E-03 0. -1.
    9900012    2    1    2    0    0  0.28705540977E+02  0.10753853177E+02  0.30724091923E+02  0.47787271142E+02  0.20000000443E+02 0.  0.
         12    1    1    2    0    0 -0.28705540977E+02 -0.10753853177E+02 -0.30724091923E+02  0.43400728858E+02  0.00000000000E+00 0. -1.
         11    1    3    3    0    0  0.14137286911E+00  0.20598622688E+01  0.46431009254E+01  0.50814766869E+01  0.51100000000E-03 0. -1.
        -11    1    3    3    0    0  0.13869243709E+01  0.30655547461E+01 -0.14036559733E+01  0.36457421006E+01  0.51100000000E-03 0.  1.
        -12    1    3    3    0    0  0.27177243737E+02  0.56284361625E+01  0.27484646971E+02  0.39060052354E+02  0.00000000000E+00 0.  1.
</event>
<event>
 7    1  0.4477737E-009  0.4778727E+02  0.7816164E-02  0.1312668E+00
        -11   -1    0    0    0    0  0.00000000000E+00  0.00000000000E+00  0.45593999997E+02  0.45594000000E+02  0.51100000000E-03 0.  1.
         11   -1    0    0    0    0 -0.00000000000E+00 -0.00000000000E+00 -0.45593999997E+02  0.45594000000E+02  0.51100000000E-03 0. -1.
    9900012    2    1    2    0    0  0.79398425080E+01 -0.38752286736E+02 -0.17856162432E+02  0.47787270016E+02  0.19999995313E+02 0.  0.
         12    1    1    2    0    0 -0.79398425080E+01  0.38752286736E+02  0.17856162432E+02  0.43400729984E+02  0.00000000000E+00 0. -1.
         11    1    3    3    0    0  0.22615038325E+01 -0.20630565977E+02 -0.17871216141E+02  0.27388227740E+02  0.51100000000E-03 0. -1.
        -11    1    3    3    0    0  0.73788835723E+01 -0.16150281017E+02 -0.41101622434E+00  0.17760868061E+02  0.51100000000E-03 0.  1.
         12    1    3    3    0    0 -0.17005448969E+01 -0.19714397420E+01  0.42606993292E+00  0.26381742153E+01  0.00000000000E+00 0. -1.
</event>
<event>
 7    1  0.4477737E-009  0.4778727E+02  0.7816164E-02  0.1312668E+00
        -11   -1    0    0    0    0  0.00000000000E+00  0.00000000000E+00  0.45593999997E+02  0.45594000000E+02  0.51100000000E-03 0. -1.
         11   -1    0    0    0    0 -0.00000000000E+00 -0.00000000000E+00 -0.45593999997E+02  0.45594000000E+02  0.51100000000E-03 0.  1.
    9900012    2    1    2    0    0 -0.34591600546E+02  0.10510096244E+02 -0.24012132952E+02  0.47787268667E+02  0.19999989159E+02 0.  0.
         12    1    1    2    0    0  0.34591600546E+02 -0.10510096244E+02  0.24012132952E+02  0.43400731333E+02  0.00000000000E+00 0. -1.
         11    1    3    3    0    0 -0.37520087830E+01  0.61736109481E+01 -0.17252778543E+01  0.74274912307E+01  0.51100000000E-03 0. -1.
        -11    1    3    3    0    0 -0.11219813793E+02 -0.45509267769E+01 -0.82207231417E+01  0.14634734207E+02  0.51100000000E-03 0.  1.
        -12    1    3    3    0    0 -0.19619777970E+02  0.88874120725E+01 -0.14066131955E+02  0.25725043229E+02  0.00000000000E+00 0.  1.
</event>
<event>
 7    1  0.4477737E-009  0.4778727E+02  0.7816164E-02  0.1312668E+00
        -11   -1    0    0    0    0  0.00000000000E+00  0.00000000000E+00  0.45593999997E+02  0.45594000000E+02  0.51100000000E-03 0.  1.
         11   -1    0    0    0    0 -0.00000000000E+00 -0.00000000000E+00 -0.45593999997E+02  0.45594000000E+02  0.51100000000E-03 0. -1.
    9900012    2    1    2    0    0  0.32949903361E+02  0.25478999459E+02  0.12196215407E+02  0.47787271721E+02  0.20000003084E+02 0.  0.
         12    1    1    2    0    0 -0.32949903361E+02 -0.25478999459E+02 -0.12196215407E+02  0.43400728279E+02  0.00000000000E+00 0. -1.
         11    1    3    3    0    0  0.12488922980E+02  0.17157067258E+02  0.20170542212E+01  0.21316816416E+02  0.51100000000E-03 0.  1.
        -11    1    3    3    0    0  0.93826820595E+01 -0.16501768939E+01  0.37705898691E+01  0.10245738364E+02  0.51100000000E-03 0. -1.
         12    1    3    3    0    0  0.11078298321E+02  0.99721090952E+01  0.64085713165E+01  0.16224716941E+02  0.00000000000E+00 0. -1.
</event>
<event>
 7    1  0.4477737E-009  0.4778727E+02  0.7816164E-02  0.1312668E+00
        -11   -1    0    0    0    0  0.00000000000E+00  0.00000000000E+00  0.45593999997E+02  0.45594000000E+02  0.51100000000E-03 0. -1.
         11   -1    0    0    0    0 -0.00000000000E+00 -0.00000000000E+00 -0.45593999997E+02  0.45594000000E+02  0.51100000000E-03 0.  1.
    9900012    2    1    2    0    0 -0.28036554222E+02  0.30729442183E+02  0.12380472237E+02  0.47787273251E+02  0.20000010063E+02 0.  0.
         12    1    1    2    0    0  0.28036554222E+02 -0.30729442183E+02 -0.12380472237E+02  0.43400726749E+02  0.00000000000E+00 0. -1.
         11    1    3    3    0    0 -0.26305094294E+01  0.93499138585E+01 -0.35782451006E+01  0.10351053438E+02  0.51100000000E-03 0.  1.
        -11    1    3    3    0    0 -0.24699625230E+02  0.18525680737E+02  0.15122211315E+02  0.34379552187E+02  0.51100000000E-03 0. -1.
         12    1    3    3    0    0 -0.70641956256E+00  0.28538475878E+01  0.83650602204E+00  0.30566676263E+01  0.00000000000E+00 0. -1.
</event>
<event>
 7    1  0.4477737E-009  0.4778727E+02  0.7816164E-02  0.1312668E+00
        -11   -1    0    0    0    0  0.00000000000E+00  0.00000000000E+00  0.45593999997E+02  0.45594000000E+02  0.51100000000E-03 0.  1.
         11   -1    0    0    0    0 -0.00000000000E+00 -0.00000000000E+00 -0.45593999997E+02  0.45594000000E+02  0.51100000000E-03 0. -1.
    9900012    2    1    2    0    0 -0.15178282651E+02  0.31691052687E+02  0.25473913330E+02  0.47787270225E+02  0.19999996264E+02 0.  0.
         12    1    1    2    0    0  0.15178282651E+02 -0.31691052687E+02 -0.25473913330E+02  0.43400729775E+02  0.00000000000E+00 0. -1.
         11    1    3    3    0    0 -0.63546875963E+01  0.12809824773E+02  0.20161612681E+01  0.14440864644E+02  0.51100000000E-03 0. -1.
        -11    1    3    3    0    0 -0.82021412104E+01  0.59097381951E+01  0.14056335282E+02  0.17314175920E+02  0.51100000000E-03 0.  1.
        -12    1    3    3    0    0 -0.62145384454E+00  0.12971489719E+02  0.94014167800E+01  0.16032229661E+02  0.00000000000E+00 0.  1.
</event>
<event>
 7    1  0.4477737E-009  0.4778727E+02  0.7816164E-02  0.1312668E+00
        -11   -1    0    0    0    0  0.00000000000E+00  0.00000000000E+00  0.45593999997E+02  0.45594000000E+02  0.51100000000E-03 0.  1.
         11   -1    0    0    0    0 -0.00000000000E+00 -0.00000000000E+00 -0.45593999997E+02  0.45594000000E+02  0.51100000000E-03 0. -1.
    9900012    2    1    2    0    0  0.34149129776E+02  0.63138001802E+01  0.26030676614E+02  0.47787271179E+02  0.20000000615E+02 0.  0.
         12    1    1    2    0    0 -0.34149129776E+02 -0.63138001802E+01 -0.26030676614E+02  0.43400728821E+02  0.00000000000E+00 0. -1.
         11    1    3    3    0    0  0.19562078121E+01 -0.28772270749E+01 -0.11541820000E+01  0.36656951584E+01  0.51100000000E-03 0. -1.
        -11    1    3    3    0    0  0.28857315451E+02  0.61457798402E+01  0.20032633735E+02  0.35662608984E+02  0.51100000000E-03 0.  1.
        -12    1    3    3    0    0  0.33356065132E+01  0.30452474149E+01  0.71522248782E+01  0.84589670373E+01  0.00000000000E+00 0.  1.
</event>
<event>
 7    1  0.4477737E-009  0.4778725E+02  0.7816164E-02  0.1312668E+00
        -11   -1    0    0    0    0  0.00000000000E+00  0.00000000000E+00  0.45593999997E+02  0.45594000000E+02  0.51100000000E-03 0.  1.
         11   -1    0    0    0    0 -0.00000000000E+00 -0.00000000000E+00 -0.45593999997E+02  0.45594000000E+02  0.51100000000E-03 0. -1.
    9900012    2    1    2    0    0  0.32610953649E+02 -0.53379933290E+01  0.28136399375E+02  0.47787246084E+02  0.19999886195E+02 0.  0.
         12    1    1    2    0    0 -0.32610953649E+02  0.53379933290E+01 -0.28136399375E+02  0.43400753916E+02  0.00000000000E+00 0. -1.
         11    1    3    3    0    0  0.88201971995E+01  0.56082472166E+01  0.15418226916E+02  0.18627131743E+02  0.51100000000E-03 0. -1.
        -11    1    3    3    0    0  0.31241156288E+01 -0.13323243838E+01  0.22777518835E+01  0.40894181285E+01  0.51100000000E-03 0.  1.
         12    1    3    3    0    0  0.20666640821E+02 -0.96139161618E+01  0.10440420576E+02  0.25070696213E+02  0.00000000000E+00 0. -1.
</event>
<event>
 7    1  0.4477737E-009  0.4778727E+02  0.7816164E-02  0.1312668E+00
        -11   -1    0    0    0    0  0.00000000000E+00  0.00000000000E+00  0.45593999997E+02  0.45594000000E+02  0.51100000000E-03 0. -1.
         11   -1    0    0    0    0 -0.00000000000E+00 -0.00000000000E+00 -0.45593999997E+02  0.45594000000E+02  0.51100000000E-03 0.  1.
    9900012    2    1    2    0    0  0.35815696074E+02  0.11328985651E+02 -0.21737372011E+02  0.47787270247E+02  0.19999996365E+02 0.  0.
         12    1    1    2    0    0 -0.35815696074E+02 -0.11328985651E+02  0.21737372011E+02  0.43400729753E+02  0.00000000000E+00 0. -1.
         11    1    3    3    0    0  0.13763060114E+01  0.15673404773E+01  0.19275855094E+01  0.28401338993E+01  0.51100000000E-03 0. -1.
        -11    1    3    3    0    0  0.18389761486E+02  0.51116095983E+01 -0.20371235272E+02  0.27915929269E+02  0.51100000000E-03 0.  1.
        -12    1    3    3    0    0  0.16049628577E+02  0.46500355751E+01 -0.32937222482E+01  0.17031207079E+02  0.00000000000E+00 0.  1.
</event>
<event>
 7    1  0.4477737E-009  0.4778726E+02  0.7816164E-02  0.1312668E+00
        -11   -1    0    0    0    0  0.00000000000E+00  0.00000000000E+00  0.45593999997E+02  0.45594000000E+02  0.51100000000E-03 0. -1.
         11   -1    0    0    0    0 -0.00000000000E+00 -0.00000000000E+00 -0.45593999997E+02  0.45594000000E+02  0.51100000000E-03 0.  1.
    9900012    2    1    2    0    0 -0.28501326799E+02 -0.29882419630E+02  0.13354392316E+02  0.47787257767E+02  0.19999939461E+02 0.  0.
         12    1    1    2    0    0  0.28501326799E+02  0.29882419630E+02 -0.13354392316E+02  0.43400742233E+02  0.00000000000E+00 0. -1.
         11    1    3    3    0    0 -0.18396395399E+02 -0.16845066497E+02  0.14399693586E+02  0.28801645866E+02  0.51100000000E-03 0.  1.
        -11    1    3    3    0    0 -0.63149721654E+01 -0.18643168425E+01  0.18457710226E+01  0.68382323497E+01  0.51100000000E-03 0. -1.
         12    1    3    3    0    0 -0.37899592350E+01 -0.11173036290E+02 -0.28910722929E+01  0.12147379551E+02  0.00000000000E+00 0. -1.
</event>
<event>
 7    1  0.4477737E-009  0.4778728E+02  0.7816164E-02  0.1312668E+00
        -11   -1    0    0    0    0  0.00000000000E+00  0.00000000000E+00  0.45593999997E+02  0.45594000000E+02  0.51100000000E-03 0.  1.
         11   -1    0    0    0    0 -0.00000000000E+00 -0.00000000000E+00 -0.45593999997E+02  0.45594000000E+02  0.51100000000E-03 0. -1.
    9900012    2    1    2    0    0  0.30348914430E+02 -0.24189173410E+02  0.19428075477E+02  0.47787276111E+02  0.20000023102E+02 0.  0.
         12    1    1    2    0    0 -0.30348914430E+02  0.24189173410E+02 -0.19428075477E+02  0.43400723889E+02  0.00000000000E+00 0. -1.
         11    1    3    3    0    0  0.17873408509E+02 -0.92734017896E+01  0.15462195717E+02  0.25387678294E+02  0.51100000000E-03 0. -1.
        -11    1    3    3    0    0  0.26150831172E+01  0.13728373104E+01  0.10626211630E+01  0.31388701770E+01  0.51100000000E-03 0.  1.
         12    1    3    3    0    0  0.98604228029E+01 -0.16288608931E+02  0.29032585968E+01  0.19260727641E+02  0.00000000000E+00 0. -1.
</event>
<event>
 7    1  0.4477737E-009  0.4778727E+02  0.7816164E-02  0.1312668E+00
        -11   -1    0    0    0    0  0.00000000000E+00  0.00000000000E+00  0.45593999997E+02  0.45594000000E+02  0.51100000000E-03 0.  1.
         11   -1    0    0    0    0 -0.00000000000E+00 -0.00000000000E+00 -0.45593999997E+02  0.45594000000E+02  0.51100000000E-03 0. -1.
    9900012    2    1    2    0    0  0.23309691370E+02  0.26443637248E+02  0.25318285860E+02  0.47787271186E+02  0.20000000646E+02 0.  0.
         12    1    1    2    0    0 -0.23309691370E+02 -0.26443637248E+02 -0.25318285860E+02  0.43400728814E+02  0.00000000000E+00 0. -1.
         11    1    3    3    0    0 -0.32915689729E+00  0.69508880425E+01  0.11289989507E+02  0.13262241597E+02  0.51100000000E-03 0. -1.
        -11    1    3    3    0    0  0.13268166464E+02  0.15409061242E+02  0.10124658012E+02  0.22715459709E+02  0.51100000000E-03 0.  1.
         12    1    3    3    0    0  0.10370681804E+02  0.40836879630E+01  0.39036383413E+01  0.11809569880E+02  0.00000000000E+00 0. -1.
</event>
<event>
 7    1  0.4477737E-009  0.4778726E+02  0.7816164E-02  0.1312668E+00
        -11   -1    0    0    0    0  0.00000000000E+00  0.00000000000E+00  0.45593999997E+02  0.45594000000E+02  0.51100000000E-03 0.  1.
         11   -1    0    0    0    0 -0.00000000000E+00 -0.00000000000E+00 -0.45593999997E+02  0.45594000000E+02  0.51100000000E-03 0. -1.
    9900012    2    1    2    0    0  0.81857859349E+01 -0.30626230764E+02  0.29642045625E+02  0.47787263013E+02  0.19999963383E+02 0.  0.
         12    1    1    2    0    0 -0.81857859349E+01  0.30626230764E+02 -0.29642045625E+02  0.43400736987E+02  0.00000000000E+00 0. -1.
         11    1    3    3    0    0  0.11931624842E+02 -0.22086908519E+02  0.21431549335E+02  0.33007673448E+02  0.51100000000E-03 0. -1.
        -11    1    3    3    0    0 -0.58994700681E+01 -0.81905800234E+01  0.64808025383E+01  0.11995422044E+02  0.51100000000E-03 0.  1.
         12    1    3    3    0    0  0.21536311609E+01 -0.34874222158E+00  0.17296937514E+01  0.27841675216E+01  0.00000000000E+00 0. -1.
</event>
<event>
 7    1  0.4477737E-009  0.4778726E+02  0.7816164E-02  0.1312668E+00
        -11   -1    0    0    0    0  0.00000000000E+00  0.00000000000E+00  0.45593999997E+02  0.45594000000E+02  0.51100000000E-03 0.  1.
         11   -1    0    0    0    0 -0.00000000000E+00 -0.00000000000E+00 -0.45593999997E+02  0.45594000000E+02  0.51100000000E-03 0. -1.
    9900012    2    1    2    0    0 -0.31803757264E+02  0.29320241985E+02  0.35310957506E+01  0.47787260336E+02  0.19999951177E+02 0.  0.
         12    1    1    2    0    0  0.31803757264E+02 -0.29320241985E+02 -0.35310957506E+01  0.43400739664E+02  0.00000000000E+00 0. -1.
         11    1    3    3    0    0 -0.49304979575E+01  0.14567794600E+02  0.67183389480E+00  0.15394213545E+02  0.51100000000E-03 0. -1.
        -11    1    3    3    0    0 -0.27506570256E+02  0.14947540226E+02  0.34630432034E+01  0.31496555915E+02  0.51100000000E-03 0.  1.
        -12    1    3    3    0    0  0.63331094899E+00 -0.19509284154E+00 -0.60378134764E+00  0.89649087597E+00  0.00000000000E+00 0.  1.
</event>
<event>
 7    1  0.4477737E-009  0.4778730E+02  0.7816164E-02  0.1312668E+00
        -11   -1    0    0    0    0  0.00000000000E+00  0.00000000000E+00  0.45593999997E+02  0.45594000000E+02  0.51100000000E-03 0.  1.
         11   -1    0    0    0    0 -0.00000000000E+00 -0.00000000000E+00 -0.45593999997E+02  0.45594000000E+02  0.51100000000E-03 0. -1.
    9900012    2    1    2    0    0  0.13700212195E+02 -0.22713259948E+02  0.34351607304E+02  0.47787298208E+02  0.20000123848E+02 0.  0.
         12    1    1    2    0    0 -0.13700212195E+02  0.22713259948E+02 -0.34351607304E+02  0.43400701792E+02  0.00000000000E+00 0. -1.
         11    1    3    3    0    0  0.83497506817E+01 -0.13241382598E+02  0.80648213723E+01  0.17609483059E+02  0.51100000000E-03 0. -1.
        -11    1    3    3    0    0 -0.32210349572E+00 -0.80445689902E+01  0.20154897325E+02  0.21703426627E+02  0.51100000000E-03 0.  1.
         12    1    3    3    0    0  0.56725650094E+01 -0.14273083600E+01  0.61318886069E+01  0.84743885223E+01  0.00000000000E+00 0. -1.
</event>
<event>
 7    1  0.4477737E-009  0.4778728E+02  0.7816164E-02  0.1312668E+00
        -11   -1    0    0    0    0  0.00000000000E+00  0.00000000000E+00  0.45593999997E+02  0.45594000000E+02  0.51100000000E-03 0.  1.
         11   -1    0    0    0    0 -0.00000000000E+00 -0.00000000000E+00 -0.45593999997E+02  0.45594000000E+02  0.51100000000E-03 0. -1.
    9900012    2    1    2    0    0  0.34902815017E+01  0.23915679429E+02  0.36048311877E+02  0.47787279076E+02  0.20000036620E+02 0.  0.
         12    1    1    2    0    0 -0.34902815017E+01 -0.23915679429E+02 -0.36048311877E+02  0.43400720924E+02  0.00000000000E+00 0. -1.
         11    1    3    3    0    0  0.40235468938E+00  0.16441046760E-01 -0.56671342505E+00  0.69521505402E+00  0.51100000000E-03 0. -1.
        -11    1    3    3    0    0  0.49634036914E+01  0.24135770214E+00  0.25776689144E+01  0.55980359982E+01  0.51100000000E-03 0.  1.
        -12    1    3    3    0    0 -0.18754768791E+01  0.23657880680E+02  0.34037356388E+02  0.41494028024E+02  0.00000000000E+00 0.  1.
</event>
<event>
 7    1  0.4477737E-009  0.4778724E+02  0.7816164E-02  0.1312668E+00
        -11   -1    0    0    0    0  0.00000000000E+00  0.00000000000E+00  0.45593999997E+02  0.45594000000E+02  0.51100000000E-03 0.  1.
         11   -1    0    0    0    0 -0.00000000000E+00 -0.00000000000E+00 -0.45593999997E+02  0.45594000000E+02  0.51100000000E-03 0. -1.
    9900012    2    1    2    0    0 -0.19014562590E+01  0.42793016754E+02  0.69834481359E+01  0.47787235414E+02  0.19999837545E+02 0.  0.
         12    1    1    2    0    0  0.19014562590E+01 -0.42793016754E+02 -0.69834481359E+01  0.43400764586E+02  0.00000000000E+00 0. -1.
         11    1    3    3    0    0  0.49386689153E+01  0.64058566010E+01 -0.69034628197E-01  0.80888945776E+01  0.51100000000E-03 0. -1.
        -11    1    3    3    0    0 -0.64585567359E+01  0.68754328733E+01  0.30500524276E+01  0.99139978000E+01  0.51100000000E-03 0.  1.
        -12    1    3    3    0    0 -0.38156843846E+00  0.29511727280E+02  0.40024303365E+01  0.29784343036E+02  0.00000000000E+00 0.  1.
</event>
<event>
 7    1  0.4477737E-009  0.4778728E+02  0.7816164E-02  0.1312668E+00
        -11   -1    0    0    0    0  0.00000000000E+00  0.00000000000E+00  0.45593999997E+02  0.45594000000E+02  0.51100000000E-03 0.  1.
         11   -1    0    0    0    0 -0.00000000000E+00 -0.00000000000E+00 -0.45593999997E+02  0.45594000000E+02  0.51100000000E-03 0. -1.
    9900012    2    1    2    0    0 -0.26455067245E+02 -0.18685830024E+02  0.28889305083E+02  0.47787276794E+02  0.20000026213E+02 0.  0.
         12    1    1    2    0    0  0.26455067245E+02  0.18685830024E+02 -0.28889305083E+02  0.43400723206E+02  0.00000000000E+00 0. -1.
         11    1    3    3    0    0 -0.87099839720E+01 -0.26409001698E+01  0.62996460990E+01  0.11069043126E+02  0.51100000000E-03 0. -1.
        -11    1    3    3    0    0 -0.83958364417E+01 -0.56932792723E+01 -0.29256315327E-01  0.10144178361E+02  0.51100000000E-03 0.  1.
        -12    1    3    3    0    0 -0.93492468311E+01 -0.10351650582E+02  0.22618915300E+02  0.26574055306E+02  0.00000000000E+00 0.  1.
</event>
<event>
 7    1  0.4477737E-009  0.4778727E+02  0.7816164E-02  0.1312668E+00
        -11   -1    0    0    0    0  0.00000000000E+00  0.00000000000E+00  0.45593999997E+02  0.45594000000E+02  0.51100000000E-03 0. -1.
         11   -1    0    0    0    0 -0.00000000000E+00 -0.00000000000E+00 -0.45593999997E+02  0.45594000000E+02  0.51100000000E-03 0.  1.
    9900012    2    1    2    0    0 -0.10939629448E+02 -0.41528692603E+02 -0.62702291282E+01  0.47787267574E+02  0.19999984178E+02 0.  0.
         12    1    1    2    0    0  0.10939629448E+02  0.41528692603E+02  0.62702291282E+01  0.43400732426E+02  0.00000000000E+00 0. -1.
         11    1    3    3    0    0 -0.72561323048E+01 -0.12849835865E+02  0.37170996672E+01  0.15217968589E+02  0.51100000000E-03 0. -1.
        -11    1    3    3    0    0  0.36915844341E+01 -0.14978421899E+02 -0.44792927646E+01  0.16063778577E+02  0.51100000000E-03 0.  1.
        -12    1    3    3    0    0 -0.73750815769E+01 -0.13700434838E+02 -0.55080360307E+01  0.16505520408E+02  0.00000000000E+00 0.  1.
</event>
<event>
 7    1  0.4477737E-009  0.4778727E+02  0.7816164E-02  0.1312668E+00
        -11   -1    0    0    0    0  0.00000000000E+00  0.00000000000E+00  0.45593999997E+02  0.45594000000E+02  0.51100000000E-03 0.  1.
         11   -1    0    0    0    0 -0.00000000000E+00 -0.00000000000E+00 -0.45593999997E+02  0.45594000000E+02  0.51100000000E-03 0. -1.
    9900012    2    1    2    0    0  0.13236046233E+02  0.33446940286E+02  0.24284411945E+02  0.47787269616E+02  0.19999993485E+02 0.  0.
         12    1    1    2    0    0 -0.13236046233E+02 -0.33446940286E+02 -0.24284411945E+02  0.43400730384E+02  0.00000000000E+00 0. -1.
         11    1    3    3    0    0 -0.30613702972E+00  0.17247403882E+02  0.10617726979E+02  0.20255932144E+02  0.51100000000E-03 0. -1.
        -11    1    3    3    0    0  0.13289343135E+02  0.89261548436E+01  0.12149517106E+02  0.20097105449E+02  0.51100000000E-03 0.  1.
        -12    1    3    3    0    0  0.25284012738E+00  0.72733815606E+01  0.15171678604E+01  0.74342320230E+01  0.00000000000E+00 0.  1.
</event>
<event>
 7    1  0.4477737E-009  0.4778723E+02  0.7816164E-02  0.1312668E+00
        -11   -1    0    0    0    0  0.00000000000E+00  0.00000000000E+00  0.45593999997E+02  0.45594000000E+02  0.51100000000E-03 0. -1.
         11   -1    0    0    0    0 -0.00000000000E+00 -0.00000000000E+00 -0.45593999997E+02  0.45594000000E+02  0.51100000000E-03 0.  1.
    9900012    2    1    2    0    0 -0.34846883698E+02 -0.79584849557E+01 -0.24616735861E+02  0.47787234216E+02  0.19999832082E+02 0.  0.
         12    1    1    2    0    0  0.34846883698E+02  0.79584849557E+01  0.24616735861E+02  0.43400765784E+02  0.00000000000E+00 0. -1.
         11    1    3    3    0    0 -0.61795788290E+01  0.29957424949E+01 -0.65989669830E+01  0.95240764961E+01  0.51100000000E-03 0. -1.
        -11    1    3    3    0    0 -0.26930719651E+02 -0.11477599731E+02 -0.20093231589E+02  0.35506857259E+02  0.51100000000E-03 0.  1.
        -12    1    3    3    0    0 -0.17365852178E+01  0.52337227998E+00  0.20754627111E+01  0.27563004602E+01  0.00000000000E+00 0.  1.
</event>
<event>
 7    1  0.4477737E-009  0.4778727E+02  0.7816164E-02  0.1312668E+00
        -11   -1    0    0    0    0  0.00000000000E+00  0.00000000000E+00  0.45593999997E+02  0.45594000000E+02  0.51100000000E-03 0.  1.
         11   -1    0    0    0    0 -0.00000000000E+00 -0.00000000000E+00 -0.45593999997E+02  0.45594000000E+02  0.51100000000E-03 0. -1.
    9900012    2    1    2    0    0 -0.25208540202E-01 -0.37208181964E+02  0.22342198464E+02  0.47787271057E+02  0.20000000058E+02 0.  0.
         12    1    1    2    0    0  0.25208540202E-01  0.37208181964E+02 -0.22342198464E+02  0.43400728943E+02  0.00000000000E+00 0. -1.
         11    1    3    3    0    0 -0.65100993210E+01 -0.11592683497E+02  0.23628288614E+01  0.13503875900E+02  0.51100000000E-03 0. -1.
        -11    1    3    3    0    0 -0.15410200485E+01 -0.82686213891E+01  0.37500879531E+01  0.92091260379E+01  0.51100000000E-03 0.  1.
         12    1    3    3    0    0  0.80259108293E+01 -0.17346877078E+02  0.16229281649E+02  0.25074269119E+02  0.00000000000E+00 0. -1.
</event>
<event>
 7    1  0.4477737E-009  0.4778727E+02  0.7816164E-02  0.1312668E+00
        -11   -1    0    0    0    0  0.00000000000E+00  0.00000000000E+00  0.45593999997E+02  0.45594000000E+02  0.51100000000E-03 0.  1.
         11   -1    0    0    0    0 -0.00000000000E+00 -0.00000000000E+00 -0.45593999997E+02  0.45594000000E+02  0.51100000000E-03 0. -1.
    9900012    2    1    2    0    0 -0.23610335581E+02  0.35838501194E+02  0.64635501224E+01  0.47787267353E+02  0.19999983171E+02 0.  0.
         12    1    1    2    0    0  0.23610335581E+02 -0.35838501194E+02 -0.64635501224E+01  0.43400732647E+02  0.00000000000E+00 0. -1.
         11    1    3    3    0    0 -0.14607847934E+01  0.11772007456E+02  0.61859292196E+01  0.13378332196E+02  0.51100000000E-03 0. -1.
        -11    1    3    3    0    0 -0.15406712510E+02  0.14045481324E+02 -0.46562649760E+01  0.21361721368E+02  0.51100000000E-03 0.  1.
        -12    1    3    3    0    0 -0.67428382776E+01  0.10021012413E+02  0.49338858788E+01  0.13047213790E+02  0.00000000000E+00 0.  1.
</event>
<event>
 7    1  0.4477737E-009  0.4778727E+02  0.7816164E-02  0.1312668E+00
        -11   -1    0    0    0    0  0.00000000000E+00  0.00000000000E+00  0.45593999997E+02  0.45594000000E+02  0.51100000000E-03 0. -1.
         11   -1    0    0    0    0 -0.00000000000E+00 -0.00000000000E+00 -0.45593999997E+02  0.45594000000E+02  0.51100000000E-03 0.  1.
    9900012    2    1    2    0    0 -0.99024165220E+01 -0.31190484429E+02 -0.28508225190E+02  0.47787273331E+02  0.20000010426E+02 0.  0.
         12    1    1    2    0    0  0.99024165220E+01  0.31190484429E+02  0.28508225190E+02  0.43400726669E+02  0.00000000000E+00 0. -1.
         11    1    3    3    0    0 -0.63689780982E+01 -0.63721153316E+01 -0.34716939354E+01  0.96550709400E+01  0.51100000000E-03 0. -1.
        -11    1    3    3    0    0 -0.44123610809E+00 -0.16827316098E+02 -0.24260891205E+02  0.29528699577E+02  0.51100000000E-03 0.  1.
        -12    1    3    3    0    0 -0.30922023157E+01 -0.79910529989E+01 -0.77564005019E+00  0.86035028145E+01  0.00000000000E+00 0.  1.
</event>
<event>
 7    1  0.4477737E-009  0.4778727E+02  0.7816164E-02  0.1312668E+00
        -11   -1    0    0    0    0  0.00000000000E+00  0.00000000000E+00  0.45593999997E+02  0.45594000000E+02  0.51100000000E-03 0. -1.
         11   -1    0    0    0    0 -0.00000000000E+00 -0.00000000000E+00 -0.45593999997E+02  0.45594000000E+02  0.51100000000E-03 0.  1.
    9900012    2    1    2    0    0  0.10994058524E+02 -0.40663324196E+02 -0.10452196616E+02  0.47787266463E+02  0.19999979110E+02 0.  0.
         12    1    1    2    0    0 -0.10994058524E+02  0.40663324196E+02  0.10452196616E+02  0.43400733537E+02  0.00000000000E+00 0. -1.
         11    1    3    3    0    0 -0.10854590987E+01 -0.20060170732E+02  0.17032343606E+00  0.20090238466E+02  0.51100000000E-03 0. -1.
        -11    1    3    3    0    0  0.66032635498E+01 -0.11707958978E+02 -0.10810575962E+02  0.17249578135E+02  0.51100000000E-03 0.  1.
        -12    1    3    3    0    0  0.54762540729E+01 -0.88951944849E+01  0.18805591021E+00  0.10447449862E+02  0.00000000000E+00 0.  1.
</event>
<event>
 7    1  0.4477737E-009  0.4778727E+02  0.7816164E-02  0.1312668E+00
        -11   -1    0    0    0    0  0.00000000000E+00  0.00000000000E+00  0.45593999997E+02  0.45594000000E+02  0.51100000000E-03 0.  1.
         11   -1    0    0    0    0 -0.00000000000E+00 -0.00000000000E+00 -0.45593999997E+02  0.45594000000E+02  0.51100000000E-03 0. -1.
    9900012    2    1    2    0    0  0.14006221278E+02  0.23026387722E+02  0.34018147752E+02  0.47787272558E+02  0.20000006903E+02 0.  0.
         12    1    1    2    0    0 -0.14006221278E+02 -0.23026387722E+02 -0.34018147752E+02  0.43400727442E+02  0.00000000000E+00 0. -1.
         11    1    3    3    0    0  0.22194608877E+01  0.67732626473E+01 -0.27173168209E+00  0.71328067329E+01  0.51100000000E-03 0. -1.
        -11    1    3    3    0    0  0.10430899677E+02  0.11548164749E+02  0.31197523270E+02  0.34863293528E+02  0.51100000000E-03 0.  1.
        -12    1    3    3    0    0  0.13558607131E+01  0.47049603258E+01  0.30923561636E+01  0.57911722979E+01  0.00000000000E+00 0.  1.
</event>
<event>
 7    1  0.4477737E-009  0.4778726E+02  0.7816164E-02  0.1312668E+00
        -11   -1    0    0    0    0  0.00000000000E+00  0.00000000000E+00  0.45593999997E+02  0.45594000000E+02  0.51100000000E-03 0.  1.
         11   -1    0    0    0    0 -0.00000000000E+00 -0.00000000000E+00 -0.45593999997E+02  0.45594000000E+02  0.51100000000E-03 0. -1.
    9900012    2    1    2    0    0 -0.36497745666E+02 -0.20911773445E+02 -0.10688144069E+02  0.47787261170E+02  0.19999954979E+02 0.  0.
         12    1    1    2    0    0  0.36497745666E+02  0.20911773445E+02  0.10688144069E+02  0.43400738830E+02  0.00000000000E+00 0. -1.
         11    1    3    3    0    0 -0.26613651058E+02 -0.19329375154E+02 -0.94703865011E+01  0.34228634025E+02  0.51100000000E-03 0.  1.
        -11    1    3    3    0    0 -0.42177324239E+00  0.19729654047E+01  0.21074661159E+01  0.29175158692E+01  0.51100000000E-03 0. -1.
         12    1    3    3    0    0 -0.94623213658E+01 -0.35553636957E+01 -0.33252236836E+01  0.10641111276E+02  0.00000000000E+00 0. -1.
</event>
<event>
 7    1  0.4477737E-009  0.4778726E+02  0.7816164E-02  0.1312668E+00
        -11   -1    0    0    0    0  0.00000000000E+00  0.00000000000E+00  0.45593999997E+02  0.45594000000E+02  0.51100000000E-03 0.  1.
         11   -1    0    0    0    0 -0.00000000000E+00 -0.00000000000E+00 -0.45593999997E+02  0.45594000000E+02  0.51100000000E-03 0. -1.
    9900012    2    1    2    0    0  0.17152520252E+02  0.39500786246E+02  0.53947284553E+01  0.47787260834E+02  0.19999953446E+02 0.  0.
         12    1    1    2    0    0 -0.17152520252E+02 -0.39500786246E+02 -0.53947284553E+01  0.43400739166E+02  0.00000000000E+00 0. -1.
         11    1    3    3    0    0  0.51156132516E+01  0.17097180220E+01  0.15449212929E+01  0.56106520759E+01  0.51100000000E-03 0. -1.
        -11    1    3    3    0    0  0.12734497647E+02  0.38663960560E+02  0.43757508285E+01  0.40941622734E+02  0.51100000000E-03 0.  1.
        -12    1    3    3    0    0 -0.69759064667E+00 -0.87289233571E+00 -0.52594366603E+00  0.12349860242E+01  0.00000000000E+00 0.  1.
</event>
<event>
 7    1  0.4477737E-009  0.4778727E+02  0.7816164E-02  0.1312668E+00
        -11   -1    0    0    0    0  0.00000000000E+00  0.00000000000E+00  0.45593999997E+02  0.45594000000E+02  0.51100000000E-03 0. -1.
         11   -1    0    0    0    0 -0.00000000000E+00 -0.00000000000E+00 -0.45593999997E+02  0.45594000000E+02  0.51100000000E-03 0.  1.
    9900012    2    1    2    0    0 -0.93521874139E+01 -0.40003754351E+02 -0.13994982270E+02  0.47787270739E+02  0.19999998609E+02 0.  0.
         12    1    1    2    0    0  0.93521874139E+01  0.40003754351E+02  0.13994982270E+02  0.43400729261E+02  0.00000000000E+00 0. -1.
         11    1    3    3    0    0 -0.10098279573E+02 -0.19161336088E+02 -0.10423559693E+02  0.24037109808E+02  0.51100000000E-03 0. -1.
        -11    1    3    3    0    0  0.27984372664E+01 -0.15981846618E+02  0.16729557508E+01  0.16311022459E+02  0.51100000000E-03 0.  1.
        -12    1    3    3    0    0 -0.20523451078E+01 -0.48605716460E+01 -0.52443783281E+01  0.74391384727E+01  0.00000000000E+00 0.  1.
</event>
<event>
 7    1  0.4477737E-009  0.4778727E+02  0.7816164E-02  0.1312668E+00
        -11   -1    0    0    0    0  0.00000000000E+00  0.00000000000E+00  0.45593999997E+02  0.45594000000E+02  0.51100000000E-03 0. -1.
         11   -1    0    0    0    0 -0.00000000000E+00 -0.00000000000E+00 -0.45593999997E+02  0.45594000000E+02  0.51100000000E-03 0.  1.
    9900012    2    1    2    0    0  0.33629822020E+02  0.10694275758E+02 -0.25264420512E+02  0.47787269512E+02  0.19999993014E+02 0.  0.
         12    1    1    2    0    0 -0.33629822020E+02 -0.10694275758E+02  0.25264420512E+02  0.43400730488E+02  0.00000000000E+00 0. -1.
         11    1    3    3    0    0  0.35119157038E+01 -0.24092308131E+01 -0.12996537394E+01  0.44527570251E+01  0.51100000000E-03 0. -1.
        -11    1    3    3    0    0  0.72249642844E+01  0.43141106517E+01  0.83715074374E+00  0.84565052625E+01  0.51100000000E-03 0.  1.
        -12    1    3    3    0    0  0.22892942032E+02  0.87893959190E+01 -0.24801917516E+02  0.34878007225E+02  0.00000000000E+00 0.  1.
</event>
<event>
 7    1  0.4477737E-009  0.4778727E+02  0.7816164E-02  0.1312668E+00
        -11   -1    0    0    0    0  0.00000000000E+00  0.00000000000E+00  0.45593999997E+02  0.45594000000E+02  0.51100000000E-03 0.  1.
         11   -1    0    0    0    0 -0.00000000000E+00 -0.00000000000E+00 -0.45593999997E+02  0.45594000000E+02  0.51100000000E-03 0. -1.
    9900012    2    1    2    0    0  0.11239924538E+02 -0.58490001309E+01  0.41509958659E+02  0.47787269890E+02  0.19999994739E+02 0.  0.
         12    1    1    2    0    0 -0.11239924538E+02  0.58490001309E+01 -0.41509958659E+02  0.43400730110E+02  0.00000000000E+00 0. -1.
         11    1    3    3    0    0 -0.27839908902E+01 -0.23797068773E+01  0.39719799800E+01  0.54027988414E+01  0.51100000000E-03 0. -1.
        -11    1    3    3    0    0  0.98475392159E+01 -0.18424861514E+01  0.36409321317E+02  0.37762513990E+02  0.51100000000E-03 0.  1.
        -12    1    3    3    0    0  0.41763762121E+01 -0.16268071022E+01  0.11286573622E+01  0.46219570589E+01  0.00000000000E+00 0.  1.
</event>
<event>
 7    1  0.4477737E-009  0.4778727E+02  0.7816164E-02  0.1312668E+00
        -11   -1    0    0    0    0  0.00000000000E+00  0.00000000000E+00  0.45593999997E+02  0.45594000000E+02  0.51100000000E-03 0.  1.
         11   -1    0    0    0    0 -0.00000000000E+00 -0.00000000000E+00 -0.45593999997E+02  0.45594000000E+02  0.51100000000E-03 0. -1.
    9900012    2    1    2    0    0  0.24019476863E+02 -0.22461987070E+02  0.28322196711E+02  0.47787274679E+02  0.20000016570E+02 0.  0.
         12    1    1    2    0    0 -0.24019476863E+02  0.22461987070E+02 -0.28322196711E+02  0.43400725321E+02  0.00000000000E+00 0. -1.
         11    1    3    3    0    0  0.54377989264E+00 -0.27355647890E+01 -0.25627163771E+01  0.37876809233E+01  0.51100000000E-03 0. -1.
        -11    1    3    3    0    0  0.45834429259E+01 -0.91365348002E+00  0.48291781261E+01  0.67203923525E+01  0.51100000000E-03 0.  1.
         12    1    3    3    0    0  0.18892254044E+02 -0.18812768801E+02  0.26055734962E+02  0.37279201403E+02  0.00000000000E+00 0. -1.
</event>
<event>
 7    1  0.4477737E-009  0.4778727E+02  0.7816164E-02  0.1312668E+00
        -11   -1    0    0    0    0  0.00000000000E+00  0.00000000000E+00  0.45593999997E+02  0.45594000000E+02  0.51100000000E-03 0. -1.
         11   -1    0    0    0    0 -0.00000000000E+00 -0.00000000000E+00 -0.45593999997E+02  0.45594000000E+02  0.51100000000E-03 0.  1.
    9900012    2    1    2    0    0 -0.24051060034E+01 -0.20512754179E+02 -0.38171528499E+02  0.47787271817E+02  0.20000003521E+02 0.  0.
         12    1    1    2    0    0  0.24051060034E+01  0.20512754179E+02  0.38171528499E+02  0.43400728183E+02  0.00000000000E+00 0. -1.
         11    1    3    3    0    0  0.33965958676E+01 -0.47015917757E+01 -0.19090298335E+02  0.19951975328E+02  0.51100000000E-03 0. -1.
        -11    1    3    3    0    0 -0.69702984153E+01 -0.51387612965E+01 -0.45921885292E+01  0.98020468989E+01  0.51100000000E-03 0.  1.
        -12    1    3    3    0    0  0.11685965442E+01 -0.10672401107E+02 -0.14489041635E+02  0.18033249590E+02  0.00000000000E+00 0.  1.
</event>
<event>
 7    1  0.4477737E-009  0.4778726E+02  0.7816164E-02  0.1312668E+00
        -11   -1    0    0    0    0  0.00000000000E+00  0.00000000000E+00  0.45593999997E+02  0.45594000000E+02  0.51100000000E-03 0. -1.
         11   -1    0    0    0    0 -0.00000000000E+00 -0.00000000000E+00 -0.45593999997E+02  0.45594000000E+02  0.51100000000E-03 0.  1.
    9900012    2    1    2    0    0 -0.26220884521E+02  0.34556308632E+02 -0.13967787098E+01  0.47787259890E+02  0.19999949141E+02 0.  0.
         12    1    1    2    0    0  0.26220884521E+02 -0.34556308632E+02  0.13967787098E+01  0.43400740110E+02  0.00000000000E+00 0. -1.
         11    1    3    3    0    0  0.11023117382E+01  0.11443524737E+02  0.92121644032E+00  0.11533342515E+02  0.51100000000E-03 0. -1.
        -11    1    3    3    0    0 -0.12263850787E+02  0.13181943334E+02 -0.27289396086E+01  0.18210238269E+02  0.51100000000E-03 0.  1.
         12    1    3    3    0    0 -0.15059345472E+02  0.99308405612E+01  0.41094445852E+00  0.18043679105E+02  0.00000000000E+00 0. -1.
</event>
<event>
 7    1  0.4477737E-009  0.4778728E+02  0.7816164E-02  0.1312668E+00
        -11   -1    0    0    0    0  0.00000000000E+00  0.00000000000E+00  0.45593999997E+02  0.45594000000E+02  0.51100000000E-03 0. -1.
         11   -1    0    0    0    0 -0.00000000000E+00 -0.00000000000E+00 -0.45593999997E+02  0.45594000000E+02  0.51100000000E-03 0.  1.
    9900012    2    1    2    0    0  0.36596478051E+02 -0.46287606453E+01 -0.22866891827E+02  0.47787281426E+02  0.20000047336E+02 0.  0.
         12    1    1    2    0    0 -0.36596478051E+02  0.46287606453E+01  0.22866891827E+02  0.43400718574E+02  0.00000000000E+00 0. -1.
         11    1    3    3    0    0  0.16181007493E+02 -0.39807007259E+01 -0.14485780417E+02  0.22079601815E+02  0.51100000000E-03 0. -1.
        -11    1    3    3    0    0  0.17117306502E+02 -0.10539443668E+01 -0.50265985110E+00  0.17157087392E+02  0.51100000000E-03 0.  1.
        -12    1    3    3    0    0  0.32981640565E+01  0.40588444746E+00 -0.78784515592E+01  0.85505922192E+01  0.00000000000E+00 0.  1.
</event>
<event>
 7    1  0.4477737E-009  0.4778728E+02  0.7816164E-02  0.1312668E+00
        -11   -1    0    0    0    0  0.00000000000E+00  0.00000000000E+00  0.45593999997E+02  0.45594000000E+02  0.51100000000E-03 0. -1.
         11   -1    0    0    0    0 -0.00000000000E+00 -0.00000000000E+00 -0.45593999997E+02  0.45594000000E+02  0.51100000000E-03 0.  1.
    9900012    2    1    2    0    0 -0.15684257955E+02  0.32240717122E+02 -0.24457372439E+02  0.47787275873E+02  0.20000022014E+02 0.  0.
         12    1    1    2    0    0  0.15684257955E+02 -0.32240717122E+02  0.24457372439E+02  0.43400724127E+02  0.00000000000E+00 0. -1.
         11    1    3    3    0    0 -0.19057498575E+01  0.23057312246E+02 -0.10303393787E+02  0.25326497079E+02  0.51100000000E-03 0. -1.
        -11    1    3    3    0    0 -0.97426818365E+01  0.53867995688E+01 -0.61278674828E+01  0.12707801506E+02  0.51100000000E-03 0.  1.
         12    1    3    3    0    0 -0.40358262607E+01  0.37966053081E+01 -0.80261111696E+01  0.97529772880E+01  0.00000000000E+00 0. -1.
</event>
<event>
 7    1  0.4964973E-009  0.4778727E+02  0.7816164E-02  0.1312668E+00
        -11   -1    0    0    0    0  0.00000000000E+00  0.00000000000E+00  0.45593999997E+02  0.45594000000E+02  0.51100000000E-03 0. -1.
         11   -1    0    0    0    0 -0.00000000000E+00 -0.00000000000E+00 -0.45593999997E+02  0.45594000000E+02  0.51100000000E-03 0.  1.
    9900012    2    1    2    0    0 -0.81204552898E+01  0.30721156991E+02 -0.29561666171E+02  0.47787269732E+02  0.19999994015E+02 0.  0.
         12    1    1    2    0    0  0.81204552898E+01 -0.30721156991E+02  0.29561666171E+02  0.43400730268E+02  0.00000000000E+00 0. -1.
         11    1    3    3    0    0  0.17028713614E+00  0.10764188634E+02 -0.43136036423E+00  0.10774174060E+02  0.51100000000E-03 0. -1.
        -11    1    3    3    0    0 -0.11799086521E+01  0.12404270397E+02 -0.16007369003E+02  0.20285314174E+02  0.51100000000E-03 0.  1.
         12    1    3    3    0    0 -0.71108337739E+01  0.75526979600E+01 -0.13122936805E+02  0.16727781497E+02  0.00000000000E+00 0. -1.
</event>
<event>
 7    1  0.4477737E-009  0.4778727E+02  0.7816164E-02  0.1312668E+00
        -11   -1    0    0    0    0  0.00000000000E+00  0.00000000000E+00  0.45593999997E+02  0.45594000000E+02  0.51100000000E-03 0.  1.
         11   -1    0    0    0    0 -0.00000000000E+00 -0.00000000000E+00 -0.45593999997E+02  0.45594000000E+02  0.51100000000E-03 0. -1.
    9900012    2    1    2    0    0  0.21906194554E+02  0.89044868449E+00  0.37455957678E+02  0.47787273920E+02  0.20000013109E+02 0.  0.
         12    1    1    2    0    0 -0.21906194554E+02 -0.89044868449E+00 -0.37455957678E+02  0.43400726080E+02  0.00000000000E+00 0. -1.
         11    1    3    3    0    0  0.26702230955E+01 -0.54595178281E+01  0.39719995755E+01  0.72603861595E+01  0.51100000000E-03 0. -1.
        -11    1    3    3    0    0  0.50960902135E+01  0.64081684853E+01  0.16558967505E+02  0.18472524567E+02  0.51100000000E-03 0.  1.
        -12    1    3    3    0    0  0.14139881245E+02 -0.58201972682E-01  0.16924990598E+02  0.22054363193E+02  0.00000000000E+00 0.  1.
</event>
<event>
 7    1  0.4477737E-009  0.4778727E+02  0.7816164E-02  0.1312668E+00
        -11   -1    0    0    0    0  0.00000000000E+00  0.00000000000E+00  0.45593999997E+02  0.45594000000E+02  0.51100000000E-03 0. -1.
         11   -1    0    0    0    0 -0.00000000000E+00 -0.00000000000E+00 -0.45593999997E+02  0.45594000000E+02  0.51100000000E-03 0.  1.
    9900012    2    1    2    0    0 -0.67536803552E+01 -0.24826423529E+02 -0.34952246595E+02  0.47787273674E+02  0.20000011988E+02 0.  0.
         12    1    1    2    0    0  0.67536803552E+01  0.24826423529E+02  0.34952246595E+02  0.43400726326E+02  0.00000000000E+00 0. -1.
         11    1    3    3    0    0 -0.50881701532E+01 -0.35049580985E+01 -0.12034954103E+02  0.13528278801E+02  0.51100000000E-03 0. -1.
        -11    1    3    3    0    0  0.28526670797E-01 -0.22132805314E+02 -0.23510343820E+02  0.32289288496E+02  0.51100000000E-03 0.  1.
        -12    1    3    3    0    0 -0.16940368728E+01  0.81133988298E+00  0.59305132793E+00  0.19697063766E+01  0.00000000000E+00 0.  1.
</event>
<event>
 7    1  0.4477737E-009  0.4778727E+02  0.7816164E-02  0.1312668E+00
        -11   -1    0    0    0    0  0.00000000000E+00  0.00000000000E+00  0.45593999997E+02  0.45594000000E+02  0.51100000000E-03 0.  1.
         11   -1    0    0    0    0 -0.00000000000E+00 -0.00000000000E+00 -0.45593999997E+02  0.45594000000E+02  0.51100000000E-03 0. -1.
    9900012    2    1    2    0    0  0.14979923622E+02 -0.32330309155E+02  0.24778544516E+02  0.47787271088E+02  0.20000000197E+02 0.  0.
         12    1    1    2    0    0 -0.14979923622E+02  0.32330309155E+02 -0.24778544516E+02  0.43400728912E+02  0.00000000000E+00 0. -1.
         11    1    3    3    0    0  0.15141286882E+02 -0.16351678543E+02  0.79191455432E+01  0.23650556568E+02  0.51100000000E-03 0. -1.
        -11    1    3    3    0    0  0.52453674581E+00 -0.13581137987E+02  0.10103440708E+02  0.16935228438E+02  0.51100000000E-03 0.  1.
        -12    1    3    3    0    0 -0.68590000594E+00 -0.23974926247E+01  0.67559582652E+01  0.72014860817E+01  0.00000000000E+00 0.  1.
</event>
<event>
 7    1  0.4477737E-009  0.4778726E+02  0.7816164E-02  0.1312668E+00
        -11   -1    0    0    0    0  0.00000000000E+00  0.00000000000E+00  0.45593999997E+02  0.45594000000E+02  0.51100000000E-03 0.  1.
         11   -1    0    0    0    0 -0.00000000000E+00 -0.00000000000E+00 -0.45593999997E+02  0.45594000000E+02  0.51100000000E-03 0. -1.
    9900012    2    1    2    0    0  0.38346233259E+02 -0.16225196612E+02  0.12244730743E+02  0.47787262205E+02  0.19999959696E+02 0.  0.
         12    1    1    2    0    0 -0.38346233259E+02  0.16225196612E+02 -0.12244730743E+02  0.43400737795E+02  0.00000000000E+00 0. -1.
         11    1    3    3    0    0  0.20566691271E+02 -0.11855569851E+02  0.44942555042E+01  0.24160746245E+02  0.51100000000E-03 0. -1.
        -11    1    3    3    0    0  0.34464977310E+01  0.38498968496E+01 -0.43873734823E+00  0.51858020676E+01  0.51100000000E-03 0.  1.
        -12    1    3    3    0    0  0.14333044256E+02 -0.82195236107E+01  0.81892125870E+01  0.18440713892E+02  0.00000000000E+00 0.  1.
</event>
<event>
 7    1  0.4477737E-009  0.4778727E+02  0.7816164E-02  0.1312668E+00
        -11   -1    0    0    0    0  0.00000000000E+00  0.00000000000E+00  0.45593999997E+02  0.45594000000E+02  0.51100000000E-03 0. -1.
         11   -1    0    0    0    0 -0.00000000000E+00 -0.00000000000E+00 -0.45593999997E+02  0.45594000000E+02  0.51100000000E-03 0.  1.
    9900012    2    1    2    0    0 -0.11760942113E+02  0.41683025662E+02 -0.27980436246E+01  0.47787269178E+02  0.19999991491E+02 0.  0.
         12    1    1    2    0    0  0.11760942113E+02 -0.41683025662E+02  0.27980436246E+01  0.43400730822E+02  0.00000000000E+00 0. -1.
         11    1    3    3    0    0 -0.92315174206E+01  0.14624310160E+02  0.37354170167E+01  0.17693069324E+02  0.51100000000E-03 0. -1.
        -11    1    3    3    0    0 -0.44686123789E+01  0.26357613763E+02 -0.75720242110E+01  0.27785389160E+02  0.51100000000E-03 0.  1.
        -12    1    3    3    0    0  0.19391876866E+01  0.70110173892E+00  0.10385635698E+01  0.23088106940E+01  0.00000000000E+00 0.  1.
</event>
<event>
 7    1  0.4477737E-009  0.4778727E+02  0.7816164E-02  0.1312668E+00
        -11   -1    0    0    0    0  0.00000000000E+00  0.00000000000E+00  0.45593999997E+02  0.45594000000E+02  0.51100000000E-03 0.  1.
         11   -1    0    0    0    0 -0.00000000000E+00 -0.00000000000E+00 -0.45593999997E+02  0.45594000000E+02  0.51100000000E-03 0. -1.
    9900012    2    1    2    0    0 -0.41797736084E+02  0.93378020187E+00  0.11649079682E+02  0.47787265621E+02  0.19999975274E+02 0.  0.
         12    1    1    2    0    0  0.41797736084E+02 -0.93378020187E+00 -0.11649079682E+02  0.43400734379E+02  0.00000000000E+00 0. -1.
         11    1    3    3    0    0 -0.23343036653E+02 -0.50012495134E+01  0.53388039775E+01  0.24462475039E+02  0.51100000000E-03 0. -1.
        -11    1    3    3    0    0 -0.88530365214E+01  0.55635052783E+01  0.84935213508E+01  0.13471033807E+02  0.51100000000E-03 0.  1.
         12    1    3    3    0    0 -0.96016629089E+01  0.37152443699E+00 -0.21832456463E+01  0.98537567748E+01  0.00000000000E+00 0. -1.
</event>
<event>
 7    1  0.4477737E-009  0.4778727E+02  0.7816164E-02  0.1312668E+00
        -11   -1    0    0    0    0  0.00000000000E+00  0.00000000000E+00  0.45593999997E+02  0.45594000000E+02  0.51100000000E-03 0.  1.
         11   -1    0    0    0    0 -0.00000000000E+00 -0.00000000000E+00 -0.45593999997E+02  0.45594000000E+02  0.51100000000E-03 0. -1.
    9900012    2    1    2    0    0  0.89812488597E+01  0.39875555212E+02  0.14591119373E+02  0.47787268450E+02  0.19999988170E+02 0.  0.
         12    1    1    2    0    0 -0.89812488597E+01 -0.39875555212E+02 -0.14591119373E+02  0.43400731550E+02  0.00000000000E+00 0. -1.
         11    1    3    3    0    0 -0.31601783305E+01  0.44208319386E+01 -0.28130072675E-01  0.54342684578E+01  0.51100000000E-03 0. -1.
        -11    1    3    3    0    0  0.91946635750E+01  0.30688888926E+02  0.68282053357E+01  0.32756283827E+02  0.51100000000E-03 0.  1.
        -12    1    3    3    0    0  0.29467636152E+01  0.47658343471E+01  0.77910441102E+01  0.95967161652E+01  0.00000000000E+00 0.  1.
</event>
<event>
 7    1  0.4477737E-009  0.4778728E+02  0.7816164E-02  0.1312668E+00
        -11   -1    0    0    0    0  0.00000000000E+00  0.00000000000E+00  0.45593999997E+02  0.45594000000E+02  0.51100000000E-03 0.  1.
         11   -1    0    0    0    0 -0.00000000000E+00 -0.00000000000E+00 -0.45593999997E+02  0.45594000000E+02  0.51100000000E-03 0. -1.
    9900012    2    1    2    0    0 -0.91601189039E+00  0.38860243199E+02  0.19304536582E+02  0.47787277519E+02  0.20000029520E+02 0.  0.
         12    1    1    2    0    0  0.91601189039E+00 -0.38860243199E+02 -0.19304536582E+02  0.43400722481E+02  0.00000000000E+00 0. -1.
         11    1    3    3    0    0 -0.49855873587E+01  0.36302569185E+02  0.11688456126E+02  0.38462353251E+02  0.51100000000E-03 0. -1.
        -11    1    3    3    0    0  0.41471141932E+01  0.18479168767E+01  0.57463929385E+01  0.73235500258E+01  0.51100000000E-03 0.  1.
         12    1    3    3    0    0 -0.77538724841E-01  0.70975713709E+00  0.18696875167E+01  0.20013742423E+01  0.00000000000E+00 0. -1.
</event>
<event>
 7    1  0.4477737E-009  0.4778727E+02  0.7816164E-02  0.1312668E+00
        -11   -1    0    0    0    0  0.00000000000E+00  0.00000000000E+00  0.45593999997E+02  0.45594000000E+02  0.51100000000E-03 0.  1.
         11   -1    0    0    0    0 -0.00000000000E+00 -0.00000000000E+00 -0.45593999997E+02  0.45594000000E+02  0.51100000000E-03 0. -1.
    9900012    2    1    2    0    0  0.33916117098E+02 -0.87784147404E+01  0.25617568891E+02  0.47787269588E+02  0.19999993360E+02 0.  0.
         12    1    1    2    0    0 -0.33916117098E+02  0.87784147404E+01 -0.25617568891E+02  0.43400730412E+02  0.00000000000E+00 0. -1.
         11    1    3    3    0    0 -0.23912888991E+01  0.77011446011E+00  0.14896915719E+01  0.29207054150E+01  0.51100000000E-03 0. -1.
        -11    1    3    3    0    0  0.10368194459E+02 -0.14564578299E+01  0.47774987148E+01  0.11508484695E+02  0.51100000000E-03 0.  1.
         12    1    3    3    0    0  0.25939211539E+02 -0.80920713706E+01  0.19350378605E+02  0.33358079478E+02  0.00000000000E+00 0. -1.
</event>
<event>
 7    1  0.4477737E-009  0.4778727E+02  0.7816164E-02  0.1312668E+00
        -11   -1    0    0    0    0  0.00000000000E+00  0.00000000000E+00  0.45593999997E+02  0.45594000000E+02  0.51100000000E-03 0. -1.
         11   -1    0    0    0    0 -0.00000000000E+00 -0.00000000000E+00 -0.45593999997E+02  0.45594000000E+02  0.51100000000E-03 0.  1.
    9900012    2    1    2    0    0  0.39499541325E+02 -0.17942919888E+02 -0.12088041193E+01  0.47787270209E+02  0.19999996193E+02 0.  0.
         12    1    1    2    0    0 -0.39499541325E+02  0.17942919888E+02  0.12088041193E+01  0.43400729791E+02  0.00000000000E+00 0. -1.
         11    1    3    3    0    0  0.10287739348E+02 -0.10016634146E+02  0.62387671371E+01  0.15655438549E+02  0.51100000000E-03 0. -1.
        -11    1    3    3    0    0  0.23216384584E+02 -0.29013501473E+01 -0.62556409612E+01  0.24218823050E+02  0.51100000000E-03 0.  1.
        -12    1    3    3    0    0  0.59954173926E+01 -0.50249355943E+01 -0.11919302952E+01  0.79130086103E+01  0.00000000000E+00 0.  1.
</event>
<event>
 7    1  0.4477737E-009  0.4778726E+02  0.7816164E-02  0.1312668E+00
        -11   -1    0    0    0    0  0.00000000000E+00  0.00000000000E+00  0.45593999997E+02  0.45594000000E+02  0.51100000000E-03 0. -1.
         11   -1    0    0    0    0 -0.00000000000E+00 -0.00000000000E+00 -0.45593999997E+02  0.45594000000E+02  0.51100000000E-03 0.  1.
    9900012    2    1    2    0    0 -0.28482053647E+02 -0.23946949237E+02 -0.22336982435E+02  0.47787256435E+02  0.19999933388E+02 0.  0.
         12    1    1    2    0    0  0.28482053647E+02  0.23946949237E+02  0.22336982435E+02  0.43400743565E+02  0.00000000000E+00 0. -1.
         11    1    3    3    0    0 -0.16854478401E+02 -0.10087391216E+02 -0.21873614860E+01  0.19763943287E+02  0.51100000000E-03 0. -1.
        -11    1    3    3    0    0 -0.47414609593E+01 -0.57586710766E+01 -0.13668473339E+02  0.15571477396E+02  0.51100000000E-03 0.  1.
         12    1    3    3    0    0 -0.68861142860E+01 -0.81008869445E+01 -0.64811476099E+01  0.12451835752E+02  0.00000000000E+00 0. -1.
</event>
<event>
 7    1  0.4477737E-009  0.4778727E+02  0.7816164E-02  0.1312668E+00
        -11   -1    0    0    0    0  0.00000000000E+00  0.00000000000E+00  0.45593999997E+02  0.45594000000E+02  0.51100000000E-03 0.  1.
         11   -1    0    0    0    0 -0.00000000000E+00 -0.00000000000E+00 -0.45593999997E+02  0.45594000000E+02  0.51100000000E-03 0. -1.
    9900012    2    1    2    0    0 -0.31121351241E+02  0.23934366101E+02  0.18499486325E+02  0.47787269845E+02  0.19999994532E+02 0.  0.
         12    1    1    2    0    0  0.31121351241E+02 -0.23934366101E+02 -0.18499486325E+02  0.43400730155E+02  0.00000000000E+00 0. -1.
         11    1    3    3    0    0 -0.29364522145E+01  0.83324723300E+01 -0.23206682468E+01  0.91344593770E+01  0.51100000000E-03 0. -1.
        -11    1    3    3    0    0 -0.24378077218E+02  0.11769163897E+02  0.16221786143E+02  0.31558678895E+02  0.51100000000E-03 0.  1.
         12    1    3    3    0    0 -0.38068218079E+01  0.38327298743E+01  0.45983684292E+01  0.70941315732E+01  0.00000000000E+00 0. -1.
</event>
<event>
 7    1  0.4477737E-009  0.4778727E+02  0.7816164E-02  0.1312668E+00
        -11   -1    0    0    0    0  0.00000000000E+00  0.00000000000E+00  0.45593999997E+02  0.45594000000E+02  0.51100000000E-03 0.  1.
         11   -1    0    0    0    0 -0.00000000000E+00 -0.00000000000E+00 -0.45593999997E+02  0.45594000000E+02  0.51100000000E-03 0. -1.
    9900012    2    1    2    0    0  0.17621652205E+02  0.39662166840E+02 -0.11528113279E+00  0.47787269653E+02  0.19999993658E+02 0.  0.
         12    1    1    2    0    0 -0.17621652205E+02 -0.39662166840E+02  0.11528113279E+00  0.43400730347E+02  0.00000000000E+00 0. -1.
         11    1    3    3    0    0  0.27747469794E+01  0.13587092028E+01 -0.17907201167E+00  0.30947340022E+01  0.51100000000E-03 0.  1.
        -11    1    3    3    0    0  0.18718553833E+02  0.28540117628E+02 -0.92189473761E+00  0.34143410228E+02  0.51100000000E-03 0. -1.
        -12    1    3    3    0    0 -0.38716486070E+01  0.97633400086E+01  0.98568561650E+00  0.10549125423E+02  0.00000000000E+00 0.  1.
</event>
<event>
 7    1  0.4477737E-009  0.4778727E+02  0.7816164E-02  0.1312668E+00
        -11   -1    0    0    0    0  0.00000000000E+00  0.00000000000E+00  0.45593999997E+02  0.45594000000E+02  0.51100000000E-03 0.  1.
         11   -1    0    0    0    0 -0.00000000000E+00 -0.00000000000E+00 -0.45593999997E+02  0.45594000000E+02  0.51100000000E-03 0. -1.
    9900012    2    1    2    0    0 -0.40090373840E+02 -0.58518753791E+01 -0.15560871990E+02  0.47787271237E+02  0.20000000879E+02 0.  0.
         12    1    1    2    0    0  0.40090373840E+02  0.58518753791E+01  0.15560871990E+02  0.43400728763E+02  0.00000000000E+00 0. -1.
         11    1    3    3    0    0 -0.58823667740E+01 -0.11713065926E+01  0.18145100951E+01  0.62663103294E+01  0.51100000000E-03 0. -1.
        -11    1    3    3    0    0 -0.11040285577E+02 -0.87365067535E+01 -0.49737862878E+01  0.14931610970E+02  0.51100000000E-03 0.  1.
        -12    1    3    3    0    0 -0.23167721489E+02  0.40559379671E+01 -0.12401595797E+02  0.26589349937E+02  0.00000000000E+00 0.  1.
</event>
<event>
 7    1  0.4477737E-009  0.4778728E+02  0.7816164E-02  0.1312668E+00
        -11   -1    0    0    0    0  0.00000000000E+00  0.00000000000E+00  0.45593999997E+02  0.45594000000E+02  0.51100000000E-03 0. -1.
         11   -1    0    0    0    0 -0.00000000000E+00 -0.00000000000E+00 -0.45593999997E+02  0.45594000000E+02  0.51100000000E-03 0.  1.
    9900012    2    1    2    0    0  0.29987081032E+02  0.28186540412E+02 -0.13781002689E+02  0.47787284288E+02  0.20000060382E+02 0.  0.
         12    1    1    2    0    0 -0.29987081032E+02 -0.28186540412E+02  0.13781002689E+02  0.43400715712E+02  0.00000000000E+00 0. -1.
         11    1    3    3    0    0  0.49525824615E+01  0.19057234284E+01  0.16107236680E+00  0.53090299860E+01  0.51100000000E-03 0. -1.
        -11    1    3    3    0    0  0.74831208141E+01  0.89999946371E+01  0.35925368077E+01  0.12243501197E+02  0.51100000000E-03 0.  1.
        -12    1    3    3    0    0  0.17551377757E+02  0.17280822346E+02 -0.17534611863E+02  0.30234753105E+02  0.00000000000E+00 0.  1.
</event>
<event>
 7    1  0.4477737E-009  0.4778727E+02  0.7816164E-02  0.1312668E+00
        -11   -1    0    0    0    0  0.00000000000E+00  0.00000000000E+00  0.45593999997E+02  0.45594000000E+02  0.51100000000E-03 0. -1.
         11   -1    0    0    0    0 -0.00000000000E+00 -0.00000000000E+00 -0.45593999997E+02  0.45594000000E+02  0.51100000000E-03 0.  1.
    9900012    2    1    2    0    0  0.28838026267E+02 -0.27459312625E+02 -0.17262031455E+02  0.47787270296E+02  0.19999996590E+02 0.  0.
         12    1    1    2    0    0 -0.28838026267E+02  0.27459312625E+02  0.17262031455E+02  0.43400729704E+02  0.00000000000E+00 0. -1.
         11    1    3    3    0    0  0.18129969865E+02 -0.10506747611E+02 -0.14508238512E+02  0.25486791435E+02  0.51100000000E-03 0. -1.
        -11    1    3    3    0    0  0.32242049388E+01 -0.13509179320E+02 -0.15458679242E+01  0.13974374093E+02  0.51100000000E-03 0.  1.
        -12    1    3    3    0    0  0.74838514633E+01 -0.34433856943E+01 -0.12079250189E+01  0.83261047685E+01  0.00000000000E+00 0.  1.
</event>
<event>
 7    1  0.4477737E-009  0.4778727E+02  0.7816164E-02  0.1312668E+00
        -11   -1    0    0    0    0  0.00000000000E+00  0.00000000000E+00  0.45593999997E+02  0.45594000000E+02  0.51100000000E-03 0. -1.
         11   -1    0    0    0    0 -0.00000000000E+00 -0.00000000000E+00 -0.45593999997E+02  0.45594000000E+02  0.51100000000E-03 0.  1.
    9900012    2    1    2    0    0 -0.20605279704E+02 -0.36518986664E+02 -0.11198633297E+02  0.47787270439E+02  0.19999997241E+02 0.  0.
         12    1    1    2    0    0  0.20605279704E+02  0.36518986664E+02  0.11198633297E+02  0.43400729561E+02  0.00000000000E+00 0. -1.
         11    1    3    3    0    0 -0.64634858882E+00  0.94571725543E+00  0.27452611455E+01  0.29746607611E+01  0.51100000000E-03 0. -1.
        -11    1    3    3    0    0 -0.12295641912E+02 -0.19645582711E+02 -0.70018874917E+01  0.24210703393E+02  0.51100000000E-03 0.  1.
         12    1    3    3    0    0 -0.76632892030E+01 -0.17819121209E+02 -0.69420069510E+01  0.20601906285E+02  0.00000000000E+00 0. -1.
</event>
<event>
 7    1  0.4477737E-009  0.4778727E+02  0.7816164E-02  0.1312668E+00
        -11   -1    0    0    0    0  0.00000000000E+00  0.00000000000E+00  0.45593999997E+02  0.45594000000E+02  0.51100000000E-03 0.  1.
         11   -1    0    0    0    0 -0.00000000000E+00 -0.00000000000E+00 -0.45593999997E+02  0.45594000000E+02  0.51100000000E-03 0. -1.
    9900012    2    1    2    0    0 -0.16170572867E+02 -0.39301300409E+02  0.88059123713E+01  0.47787265751E+02  0.19999975864E+02 0.  0.
         12    1    1    2    0    0  0.16170572867E+02  0.39301300409E+02 -0.88059123713E+01  0.43400734249E+02  0.00000000000E+00 0. -1.
         11    1    3    3    0    0  0.10926805240E+00 -0.96938259380E+00 -0.17000012689E+01  0.19600119122E+01  0.51100000000E-03 0. -1.
        -11    1    3    3    0    0 -0.50609371090E+01 -0.23851389227E+02 -0.62890248220E+00  0.24390518057E+02  0.51100000000E-03 0.  1.
        -12    1    3    3    0    0 -0.11218903810E+02 -0.14480528588E+02  0.11134816122E+02  0.21436735782E+02  0.00000000000E+00 0.  1.
</event>
<event>
 7    1  0.4477737E-009  0.4778726E+02  0.7816164E-02  0.1312668E+00
        -11   -1    0    0    0    0  0.00000000000E+00  0.00000000000E+00  0.45593999997E+02  0.45594000000E+02  0.51100000000E-03 0. -1.
         11   -1    0    0    0    0 -0.00000000000E+00 -0.00000000000E+00 -0.45593999997E+02  0.45594000000E+02  0.51100000000E-03 0.  1.
    9900012    2    1    2    0    0  0.32077426329E+02 -0.23658648941E+02  0.17173563464E+02  0.47787260011E+02  0.19999949692E+02 0.  0.
         12    1    1    2    0    0 -0.32077426329E+02  0.23658648941E+02 -0.17173563464E+02  0.43400739989E+02  0.00000000000E+00 0. -1.
         11    1    3    3    0    0  0.67489816139E+01 -0.14861171579E+02  0.53414889609E+01  0.17173662338E+02  0.51100000000E-03 0.  1.
        -11    1    3    3    0    0  0.22971210637E+01  0.12074157263E+01 -0.49270067031E+00  0.26414715840E+01  0.51100000000E-03 0. -1.
         12    1    3    3    0    0  0.23031323651E+02 -0.10004893088E+02  0.12324775173E+02  0.27972126088E+02  0.00000000000E+00 0. -1.
</event>
<event>
 7    1  0.4477737E-009  0.4778727E+02  0.7816164E-02  0.1312668E+00
        -11   -1    0    0    0    0  0.00000000000E+00  0.00000000000E+00  0.45593999997E+02  0.45594000000E+02  0.51100000000E-03 0.  1.
         11   -1    0    0    0    0 -0.00000000000E+00 -0.00000000000E+00 -0.45593999997E+02  0.45594000000E+02  0.51100000000E-03 0. -1.
    9900012    2    1    2    0    0  0.87338862124E+00  0.17508085946E+02  0.39702988022E+02  0.47787272598E+02  0.20000007083E+02 0.  0.
         12    1    1    2    0    0 -0.87338862124E+00 -0.17508085946E+02 -0.39702988022E+02  0.43400727402E+02  0.00000000000E+00 0. -1.
         11    1    3    3    0    0 -0.71369389283E+00 -0.73759974446E+00 -0.12972154058E+01  0.16541403888E+01  0.51100000000E-03 0. -1.
        -11    1    3    3    0    0  0.46338862660E+01  0.92999847450E+01  0.29331832485E+02  0.31117824721E+02  0.51100000000E-03 0.  1.
        -12    1    3    3    0    0 -0.30468037519E+01  0.89457009457E+01  0.11668370943E+02  0.15015307488E+02  0.00000000000E+00 0.  1.
</event>
<event>
 7    1  0.4477737E-009  0.4778727E+02  0.7816164E-02  0.1312668E+00
        -11   -1    0    0    0    0  0.00000000000E+00  0.00000000000E+00  0.45593999997E+02  0.45594000000E+02  0.51100000000E-03 0.  1.
         11   -1    0    0    0    0 -0.00000000000E+00 -0.00000000000E+00 -0.45593999997E+02  0.45594000000E+02  0.51100000000E-03 0. -1.
    9900012    2    1    2    0    0 -0.34895014138E+02  0.11687453663E+02  0.23007925471E+02  0.47787271673E+02  0.20000002866E+02 0.  0.
         12    1    1    2    0    0  0.34895014138E+02 -0.11687453663E+02 -0.23007925471E+02  0.43400728327E+02  0.00000000000E+00 0. -1.
         11    1    3    3    0    0 -0.33115881710E+00 -0.45115927539E-01  0.30032494827E+01  0.30217890935E+01  0.51100000000E-03 0. -1.
        -11    1    3    3    0    0 -0.60603153797E-01  0.46860505061E+01  0.11728837071E+01  0.48309831856E+01  0.51100000000E-03 0.  1.
        -12    1    3    3    0    0 -0.34503252167E+02  0.70465190845E+01  0.18831792281E+02  0.39934499394E+02  0.00000000000E+00 0.  1.
</event>
<event>
 7    1  0.4477737E-009  0.4778727E+02  0.7816164E-02  0.1312668E+00
        -11   -1    0    0    0    0  0.00000000000E+00  0.00000000000E+00  0.45593999997E+02  0.45594000000E+02  0.51100000000E-03 0. -1.
         11   -1    0    0    0    0 -0.00000000000E+00 -0.00000000000E+00 -0.45593999997E+02  0.45594000000E+02  0.51100000000E-03 0.  1.
    9900012    2    1    2    0    0  0.86778822232E+01  0.13063265283E+02 -0.40468119740E+02  0.47787271261E+02  0.20000000988E+02 0.  0.
         12    1    1    2    0    0 -0.86778822232E+01 -0.13063265283E+02  0.40468119740E+02  0.43400728739E+02  0.00000000000E+00 0. -1.
         11    1    3    3    0    0 -0.65029271562E+00 -0.37062413264E+01 -0.51497203091E+01  0.63779875281E+01  0.51100000000E-03 0. -1.
        -11    1    3    3    0    0  0.71386708288E+01  0.89445332861E+01 -0.28806214802E+02  0.30996182158E+02  0.51100000000E-03 0.  1.
         12    1    3    3    0    0  0.21895041100E+01  0.78249733235E+01 -0.65121846291E+01  0.10413101575E+02  0.00000000000E+00 0. -1.
</event>
<event>
 7    1  0.4477737E-009  0.4778727E+02  0.7816164E-02  0.1312668E+00
        -11   -1    0    0    0    0  0.00000000000E+00  0.00000000000E+00  0.45593999997E+02  0.45594000000E+02  0.51100000000E-03 0. -1.
         11   -1    0    0    0    0 -0.00000000000E+00 -0.00000000000E+00 -0.45593999997E+02  0.45594000000E+02  0.51100000000E-03 0.  1.
    9900012    2    1    2    0    0 -0.13819565294E+02  0.18835044976E+02 -0.36577096554E+02  0.47787270784E+02  0.19999998814E+02 0.  0.
         12    1    1    2    0    0  0.13819565294E+02 -0.18835044976E+02  0.36577096554E+02  0.43400729216E+02  0.00000000000E+00 0. -1.
         11    1    3    3    0    0 -0.64700838606E+01  0.40079048190E+00 -0.18546796755E+02  0.19647042737E+02  0.51100000000E-03 0. -1.
        -11    1    3    3    0    0 -0.88118006697E+00  0.40867272047E+00 -0.47178641491E+01  0.48168178389E+01  0.51100000000E-03 0.  1.
         12    1    3    3    0    0 -0.64683013661E+01  0.18025581773E+02 -0.13312435649E+02  0.23323410208E+02  0.00000000000E+00 0. -1.
</event>
<event>
 7    1  0.4477737E-009  0.4778727E+02  0.7816164E-02  0.1312668E+00
        -11   -1    0    0    0    0  0.00000000000E+00  0.00000000000E+00  0.45593999997E+02  0.45594000000E+02  0.51100000000E-03 0. -1.
         11   -1    0    0    0    0 -0.00000000000E+00 -0.00000000000E+00 -0.45593999997E+02  0.45594000000E+02  0.51100000000E-03 0.  1.
    9900012    2    1    2    0    0  0.11247678539E+02  0.13504578542E+02 -0.39682987661E+02  0.47787269317E+02  0.19999992122E+02 0.  0.
         12    1    1    2    0    0 -0.11247678539E+02 -0.13504578542E+02  0.39682987661E+02  0.43400730683E+02  0.00000000000E+00 0. -1.
         11    1    3    3    0    0  0.64492366034E+01  0.13694894029E+02 -0.14208107575E+02  0.20760854904E+02  0.51100000000E-03 0. -1.
        -11    1    3    3    0    0  0.67650805661E+01 -0.38672170114E+00 -0.16513887813E+02  0.17850052093E+02  0.51100000000E-03 0.  1.
         12    1    3    3    0    0 -0.19666386301E+01  0.19640621417E+00 -0.89609922730E+01  0.91763623195E+01  0.00000000000E+00 0. -1.
</event>
<event>
 7    1  0.4477737E-009  0.4778727E+02  0.7816164E-02  0.1312668E+00
        -11   -1    0    0    0    0  0.00000000000E+00  0.00000000000E+00  0.45593999997E+02  0.45594000000E+02  0.51100000000E-03 0. -1.
         11   -1    0    0    0    0 -0.00000000000E+00 -0.00000000000E+00 -0.45593999997E+02  0.45594000000E+02  0.51100000000E-03 0.  1.
    9900012    2    1    2    0    0 -0.31000691336E+02  0.21546731747E+02 -0.21408389659E+02  0.47787266595E+02  0.19999979714E+02 0.  0.
         12    1    1    2    0    0  0.31000691336E+02 -0.21546731747E+02  0.21408389659E+02  0.43400733405E+02  0.00000000000E+00 0. -1.
         11    1    3    3    0    0  0.27086129570E+00  0.98181099981E+00 -0.28943613989E+01  0.30683296513E+01  0.51100000000E-03 0. -1.
        -11    1    3    3    0    0 -0.95847041798E+01 -0.48181698795E+00 -0.66254766927E+00  0.96196502794E+01  0.51100000000E-03 0.  1.
        -12    1    3    3    0    0 -0.21686848452E+02  0.21046737735E+02 -0.17851480591E+02  0.35099286664E+02  0.00000000000E+00 0.  1.
</event>
<event>
 7    1  0.4477737E-009  0.4778728E+02  0.7816164E-02  0.1312668E+00
        -11   -1    0    0    0    0  0.00000000000E+00  0.00000000000E+00  0.45593999997E+02  0.45594000000E+02  0.51100000000E-03 0.  1.
         11   -1    0    0    0    0 -0.00000000000E+00 -0.00000000000E+00 -0.45593999997E+02  0.45594000000E+02  0.51100000000E-03 0. -1.
    9900012    2    1    2    0    0 -0.18040531501E+02  0.14131471559E+02  0.36857341952E+02  0.47787275109E+02  0.20000018532E+02 0.  0.
         12    1    1    2    0    0  0.18040531501E+02 -0.14131471559E+02 -0.36857341952E+02  0.43400724891E+02  0.00000000000E+00 0. -1.
         11    1    3    3    0    0 -0.40482009909E+01  0.77705213136E+01  0.28647767367E+02  0.29957695308E+02  0.51100000000E-03 0. -1.
        -11    1    3    3    0    0 -0.90135138469E+01  0.32449571000E+01  0.69157105495E+01  0.11815254171E+02  0.51100000000E-03 0.  1.
         12    1    3    3    0    0 -0.49788166636E+01  0.31159931454E+01  0.12938640353E+01  0.60143256308E+01  0.00000000000E+00 0. -1.
</event>
<event>
 7    1  0.4477737E-009  0.4778727E+02  0.7816164E-02  0.1312668E+00
        -11   -1    0    0    0    0  0.00000000000E+00  0.00000000000E+00  0.45593999997E+02  0.45594000000E+02  0.51100000000E-03 0.  1.
         11   -1    0    0    0    0 -0.00000000000E+00 -0.00000000000E+00 -0.45593999997E+02  0.45594000000E+02  0.51100000000E-03 0. -1.
    9900012    2    1    2    0    0  0.18175176701E+02  0.52963131986E+01  0.39054262590E+02  0.47787269499E+02  0.19999992952E+02 0.  0.
         12    1    1    2    0    0 -0.18175176701E+02 -0.52963131986E+01 -0.39054262590E+02  0.43400730501E+02  0.00000000000E+00 0. -1.
         11    1    3    3    0    0  0.52111133562E+01 -0.21086834617E+01  0.19381167508E+02  0.20179987675E+02  0.51100000000E-03 0. -1.
        -11    1    3    3    0    0  0.15036874828E+02  0.80957563099E+01  0.18279604368E+02  0.25015851194E+02  0.51100000000E-03 0.  1.
        -12    1    3    3    0    0 -0.20728114831E+01 -0.69075964964E+00  0.13934907140E+01  0.25914306297E+01  0.00000000000E+00 0.  1.
</event>
<event>
 7    1  0.4477737E-009  0.4778728E+02  0.7816164E-02  0.1312668E+00
        -11   -1    0    0    0    0  0.00000000000E+00  0.00000000000E+00  0.45593999997E+02  0.45594000000E+02  0.51100000000E-03 0.  1.
         11   -1    0    0    0    0 -0.00000000000E+00 -0.00000000000E+00 -0.45593999997E+02  0.45594000000E+02  0.51100000000E-03 0. -1.
    9900012    2    1    2    0    0 -0.11208791720E+02  0.34672389159E+00  0.41926906681E+02  0.47787277274E+02  0.20000028405E+02 0.  0.
         12    1    1    2    0    0  0.11208791720E+02 -0.34672389159E+00 -0.41926906681E+02  0.43400722726E+02  0.00000000000E+00 0. -1.
         11    1    3    3    0    0  0.26985603900E+01 -0.33927741927E+01  0.19174226857E+01  0.47402167585E+01  0.51100000000E-03 0. -1.
        -11    1    3    3    0    0 -0.12239270251E+02  0.79215497252E+00  0.27982911043E+02  0.30552750391E+02  0.51100000000E-03 0.  1.
         12    1    3    3    0    0 -0.16680818588E+01  0.29473431117E+01  0.12026572953E+02  0.12494310125E+02  0.00000000000E+00 0. -1.
</event>
<event>
 7    1  0.4477737E-009  0.4778727E+02  0.7816164E-02  0.1312668E+00
        -11   -1    0    0    0    0  0.00000000000E+00  0.00000000000E+00  0.45593999997E+02  0.45594000000E+02  0.51100000000E-03 0.  1.
         11   -1    0    0    0    0 -0.00000000000E+00 -0.00000000000E+00 -0.45593999997E+02  0.45594000000E+02  0.51100000000E-03 0. -1.
    9900012    2    1    2    0    0 -0.49265434669E+01 -0.29321479234E+02  0.31616500977E+02  0.47787272943E+02  0.20000008658E+02 0.  0.
         12    1    1    2    0    0  0.49265434669E+01  0.29321479234E+02 -0.31616500977E+02  0.43400727057E+02  0.00000000000E+00 0. -1.
         11    1    3    3    0    0 -0.95033641160E+01 -0.17889250009E+02  0.22334903778E+02  0.30152729933E+02  0.51100000000E-03 0. -1.
        -11    1    3    3    0    0 -0.98998846181E+00 -0.86399569460E+01  0.45621513003E+01  0.98204968271E+01  0.51100000000E-03 0.  1.
         12    1    3    3    0    0  0.55668091109E+01 -0.27922722791E+01  0.47194458995E+01  0.78140461834E+01  0.00000000000E+00 0. -1.
</event>
<event>
 7    1  0.4477737E-009  0.4778728E+02  0.7816164E-02  0.1312668E+00
        -11   -1    0    0    0    0  0.00000000000E+00  0.00000000000E+00  0.45593999997E+02  0.45594000000E+02  0.51100000000E-03 0. -1.
         11   -1    0    0    0    0 -0.00000000000E+00 -0.00000000000E+00 -0.45593999997E+02  0.45594000000E+02  0.51100000000E-03 0.  1.
    9900012    2    1    2    0    0 -0.42301989921E+02 -0.35163234277E+01 -0.90443260721E+01  0.47787277474E+02  0.20000029314E+02 0.  0.
         12    1    1    2    0    0  0.42301989921E+02  0.35163234277E+01  0.90443260721E+01  0.43400722526E+02  0.00000000000E+00 0. -1.
         11    1    3    3    0    0 -0.17389870558E+01 -0.44414692908E+01 -0.33384427689E+01  0.58220207681E+01  0.51100000000E-03 0.  1.
        -11    1    3    3    0    0 -0.24646458966E+02 -0.33341538618E+01 -0.12765728278E+01  0.24903697717E+02  0.51100000000E-03 0. -1.
         12    1    3    3    0    0 -0.15916543899E+02  0.42592997249E+01 -0.44293104753E+01  0.17061558988E+02  0.00000000000E+00 0. -1.
</event>
<event>
 7    1  0.4477737E-009  0.4778728E+02  0.7816164E-02  0.1312668E+00
        -11   -1    0    0    0    0  0.00000000000E+00  0.00000000000E+00  0.45593999997E+02  0.45594000000E+02  0.51100000000E-03 0.  1.
         11   -1    0    0    0    0 -0.00000000000E+00 -0.00000000000E+00 -0.45593999997E+02  0.45594000000E+02  0.51100000000E-03 0. -1.
    9900012    2    1    2    0    0 -0.39107534772E+02  0.16607004305E+02  0.88561227311E+01  0.47787276760E+02  0.20000026061E+02 0.  0.
         12    1    1    2    0    0  0.39107534772E+02 -0.16607004305E+02 -0.88561227311E+01  0.43400723240E+02  0.00000000000E+00 0. -1.
         11    1    3    3    0    0 -0.19104584875E+02  0.61115481079E+01  0.12206278658E+02  0.23480405075E+02  0.51100000000E-03 0. -1.
        -11    1    3    3    0    0 -0.83227023566E+01  0.27145106153E+01  0.24963307026E+01  0.91031648142E+01  0.51100000000E-03 0.  1.
         12    1    3    3    0    0 -0.11680247540E+02  0.77809455817E+01 -0.58464866292E+01  0.15203706872E+02  0.00000000000E+00 0. -1.
</event>
<event>
 7    1  0.4477737E-009  0.4778728E+02  0.7816164E-02  0.1312668E+00
        -11   -1    0    0    0    0  0.00000000000E+00  0.00000000000E+00  0.45593999997E+02  0.45594000000E+02  0.51100000000E-03 0.  1.
         11   -1    0    0    0    0 -0.00000000000E+00 -0.00000000000E+00 -0.45593999997E+02  0.45594000000E+02  0.51100000000E-03 0. -1.
    9900012    2    1    2    0    0 -0.14443074983E+02  0.40452426503E+02 -0.62145684380E+01  0.47787284732E+02  0.20000062406E+02 0.  0.
         12    1    1    2    0    0  0.14443074983E+02 -0.40452426503E+02  0.62145684380E+01  0.43400715268E+02  0.00000000000E+00 0. -1.
         11    1    3    3    0    0  0.11361146732E+00  0.23486627637E+02 -0.48944072234E+00  0.23492001571E+02  0.51100000000E-03 0. -1.
        -11    1    3    3    0    0 -0.12740544617E+02  0.17270390820E+02 -0.41216628340E+01  0.21853511869E+02  0.51100000000E-03 0.  1.
         12    1    3    3    0    0 -0.18161418335E+01 -0.30459195408E+00 -0.16034648817E+01  0.24417712924E+01  0.00000000000E+00 0. -1.
</event>
<event>
 7    1  0.4477737E-009  0.4778727E+02  0.7816164E-02  0.1312668E+00
        -11   -1    0    0    0    0  0.00000000000E+00  0.00000000000E+00  0.45593999997E+02  0.45594000000E+02  0.51100000000E-03 0.  1.
         11   -1    0    0    0    0 -0.00000000000E+00 -0.00000000000E+00 -0.45593999997E+02  0.45594000000E+02  0.51100000000E-03 0. -1.
    9900012    2    1    2    0    0  0.30198543036E+02  0.12988962507E+02  0.28336517038E+02  0.47787270210E+02  0.19999996193E+02 0.  0.
         12    1    1    2    0    0 -0.30198543036E+02 -0.12988962507E+02 -0.28336517038E+02  0.43400729790E+02  0.00000000000E+00 0. -1.
         11    1    3    3    0    0  0.72593695451E+01  0.41768089787E+01  0.13345261729E+02  0.15755639952E+02  0.51100000000E-03 0. -1.
        -11    1    3    3    0    0  0.18348531792E+02  0.11211348565E+02  0.15938916304E+02  0.26765873959E+02  0.51100000000E-03 0.  1.
         12    1    3    3    0    0  0.45906416992E+01 -0.23991950366E+01 -0.94766099513E+00  0.52657562986E+01  0.00000000000E+00 0. -1.
</event>
<event>
 7    1  0.4477737E-009  0.4778727E+02  0.7816164E-02  0.1312668E+00
        -11   -1    0    0    0    0  0.00000000000E+00  0.00000000000E+00  0.45593999997E+02  0.45594000000E+02  0.51100000000E-03 0. -1.
         11   -1    0    0    0    0 -0.00000000000E+00 -0.00000000000E+00 -0.45593999997E+02  0.45594000000E+02  0.51100000000E-03 0.  1.
    9900012    2    1    2    0    0 -0.42533598629E+02  0.55789256672E+01 -0.65872504359E+01  0.47787270833E+02  0.19999999034E+02 0.  0.
         12    1    1    2    0    0  0.42533598629E+02 -0.55789256672E+01  0.65872504359E+01  0.43400729167E+02  0.00000000000E+00 0. -1.
         11    1    3    3    0    0 -0.26944628449E+02  0.25262469946E+01 -0.90841335419E+01  0.28546740770E+02  0.51100000000E-03 0. -1.
        -11    1    3    3    0    0 -0.10726989290E+02  0.70002836331E+01  0.14505164040E+01  0.12890937448E+02  0.51100000000E-03 0.  1.
         12    1    3    3    0    0 -0.48619808897E+01 -0.39476049605E+01  0.10463667020E+01  0.63495926146E+01  0.00000000000E+00 0. -1.
</event>
<event>
 7    1  0.4477737E-009  0.4778727E+02  0.7816164E-02  0.1312668E+00
        -11   -1    0    0    0    0  0.00000000000E+00  0.00000000000E+00  0.45593999997E+02  0.45594000000E+02  0.51100000000E-03 0.  1.
         11   -1    0    0    0    0 -0.00000000000E+00 -0.00000000000E+00 -0.45593999997E+02  0.45594000000E+02  0.51100000000E-03 0. -1.
    9900012    2    1    2    0    0  0.24675886829E+02 -0.35700068727E+02  0.47848692262E+00  0.47787271347E+02  0.20000001377E+02 0.  0.
         12    1    1    2    0    0 -0.24675886829E+02  0.35700068727E+02 -0.47848692262E+00  0.43400728653E+02  0.00000000000E+00 0. -1.
         11    1    3    3    0    0  0.29493037440E+01 -0.16167552192E+02 -0.28719719852E+01  0.16683415711E+02  0.51100000000E-03 0. -1.
        -11    1    3    3    0    0  0.13088958313E+02 -0.12078260780E+02 -0.29770111105E+01  0.18057347773E+02  0.51100000000E-03 0.  1.
         12    1    3    3    0    0  0.86376247715E+01 -0.74542557561E+01  0.63274700183E+01  0.13046507862E+02  0.00000000000E+00 0. -1.
</event>
<event>
 7    1  0.4477737E-009  0.4778727E+02  0.7816164E-02  0.1312668E+00
        -11   -1    0    0    0    0  0.00000000000E+00  0.00000000000E+00  0.45593999997E+02  0.45594000000E+02  0.51100000000E-03 0.  1.
         11   -1    0    0    0    0 -0.00000000000E+00 -0.00000000000E+00 -0.45593999997E+02  0.45594000000E+02  0.51100000000E-03 0. -1.
    9900012    2    1    2    0    0  0.35327957528E+02  0.16881614158E+02 -0.18723510137E+02  0.47787270611E+02  0.19999998023E+02 0.  0.
         12    1    1    2    0    0 -0.35327957528E+02 -0.16881614158E+02  0.18723510137E+02  0.43400729389E+02  0.00000000000E+00 0. -1.
         11    1    3    3    0    0  0.14099377687E+01  0.50637717312E+01 -0.14808553176E+01  0.54610110227E+01  0.51100000000E-03 0. -1.
        -11    1    3    3    0    0  0.31937666635E+02  0.92633042958E+01 -0.19344040480E+02  0.38470966441E+02  0.51100000000E-03 0.  1.
        -12    1    3    3    0    0  0.19803531236E+01  0.25545381310E+01  0.21013856601E+01  0.38552931470E+01  0.00000000000E+00 0.  1.
</event>
<event>
 7    1  0.4477737E-009  0.4778727E+02  0.7816164E-02  0.1312668E+00
        -11   -1    0    0    0    0  0.00000000000E+00  0.00000000000E+00  0.45593999997E+02  0.45594000000E+02  0.51100000000E-03 0. -1.
         11   -1    0    0    0    0 -0.00000000000E+00 -0.00000000000E+00 -0.45593999997E+02  0.45594000000E+02  0.51100000000E-03 0.  1.
    9900012    2    1    2    0    0 -0.26573599227E+02 -0.27054081564E+02 -0.21107911028E+02  0.47787269440E+02  0.19999992686E+02 0.  0.
         12    1    1    2    0    0  0.26573599227E+02  0.27054081564E+02  0.21107911028E+02  0.43400730560E+02  0.00000000000E+00 0. -1.
         11    1    3    3    0    0 -0.27299595074E+02 -0.20803761117E+02 -0.19648075533E+02  0.39548846257E+02  0.51100000000E-03 0. -1.
        -11    1    3    3    0    0  0.27980424397E+01 -0.43720193890E+01 -0.16186451715E+01  0.54372426362E+01  0.51100000000E-03 0.  1.
        -12    1    3    3    0    0 -0.20720465920E+01 -0.18783010578E+01  0.15880967668E+00  0.28011805469E+01  0.00000000000E+00 0.  1.
</event>
<event>
 7    1  0.4477737E-009  0.4778727E+02  0.7816164E-02  0.1312668E+00
        -11   -1    0    0    0    0  0.00000000000E+00  0.00000000000E+00  0.45593999997E+02  0.45594000000E+02  0.51100000000E-03 0. -1.
         11   -1    0    0    0    0 -0.00000000000E+00 -0.00000000000E+00 -0.45593999997E+02  0.45594000000E+02  0.51100000000E-03 0.  1.
    9900012    2    1    2    0    0 -0.12468286830E+02 -0.40003489072E+02 -0.11308672128E+02  0.47787269825E+02  0.19999994440E+02 0.  0.
         12    1    1    2    0    0  0.12468286830E+02  0.40003489072E+02  0.11308672128E+02  0.43400730175E+02  0.00000000000E+00 0. -1.
         11    1    3    3    0    0 -0.98185989824E+00 -0.62891553107E+01  0.14022041798E+01  0.65179521481E+01  0.51100000000E-03 0. -1.
        -11    1    3    3    0    0 -0.82617965868E+01 -0.93481345129E+01 -0.10997551696E+02  0.16631026585E+02  0.51100000000E-03 0.  1.
        -12    1    3    3    0    0 -0.32246303445E+01 -0.24366199249E+02 -0.17133246114E+01  0.24638291092E+02  0.00000000000E+00 0.  1.
</event>
<event>
 7    1  0.4477737E-009  0.4778727E+02  0.7816164E-02  0.1312668E+00
        -11   -1    0    0    0    0  0.00000000000E+00  0.00000000000E+00  0.45593999997E+02  0.45594000000E+02  0.51100000000E-03 0.  1.
         11   -1    0    0    0    0 -0.00000000000E+00 -0.00000000000E+00 -0.45593999997E+02  0.45594000000E+02  0.51100000000E-03 0. -1.
    9900012    2    1    2    0    0  0.10440794278E+02  0.39411637788E+02 -0.14877355072E+02  0.47787273367E+02  0.20000010591E+02 0.  0.
         12    1    1    2    0    0 -0.10440794278E+02 -0.39411637788E+02  0.14877355072E+02  0.43400726633E+02  0.00000000000E+00 0. -1.
         11    1    3    3    0    0  0.20151525211E+01  0.37313828290E+01  0.25340468491E+01  0.49401873643E+01  0.51100000000E-03 0. -1.
        -11    1    3    3    0    0  0.45290922721E+00  0.13778914721E+02 -0.13345665136E+02  0.19187766828E+02  0.51100000000E-03 0.  1.
        -12    1    3    3    0    0  0.79727325302E+01  0.21901340238E+02 -0.40657367850E+01  0.23659319175E+02  0.00000000000E+00 0.  1.
</event>
<event>
 7    1  0.4477737E-009  0.4778727E+02  0.7816164E-02  0.1312668E+00
        -11   -1    0    0    0    0  0.00000000000E+00  0.00000000000E+00  0.45593999997E+02  0.45594000000E+02  0.51100000000E-03 0.  1.
         11   -1    0    0    0    0 -0.00000000000E+00 -0.00000000000E+00 -0.45593999997E+02  0.45594000000E+02  0.51100000000E-03 0. -1.
    9900012    2    1    2    0    0 -0.58189869864E+01  0.62959521427E+01  0.42545544114E+02  0.47787274812E+02  0.20000017178E+02 0.  0.
         12    1    1    2    0    0  0.58189869864E+01 -0.62959521427E+01 -0.42545544114E+02  0.43400725188E+02  0.00000000000E+00 0. -1.
         11    1    3    3    0    0  0.32260336330E+01 -0.30474739398E+01  0.62762411766E+01  0.76867154223E+01  0.51100000000E-03 0. -1.
        -11    1    3    3    0    0  0.20407880914E+01  0.11147435101E+00  0.92281715993E+01  0.94517931575E+01  0.51100000000E-03 0.  1.
         12    1    3    3    0    0 -0.11085808711E+02  0.92319517314E+01  0.27041131338E+02  0.30648766232E+02  0.00000000000E+00 0. -1.
</event>
<event>
 7    1  0.4477737E-009  0.4778727E+02  0.7816164E-02  0.1312668E+00
        -11   -1    0    0    0    0  0.00000000000E+00  0.00000000000E+00  0.45593999997E+02  0.45594000000E+02  0.51100000000E-03 0. -1.
         11   -1    0    0    0    0 -0.00000000000E+00 -0.00000000000E+00 -0.45593999997E+02  0.45594000000E+02  0.51100000000E-03 0.  1.
    9900012    2    1    2    0    0  0.64002296332E+01 -0.42923786861E+02 -0.45726424062E+00  0.47787268342E+02  0.19999987679E+02 0.  0.
         12    1    1    2    0    0 -0.64002296332E+01  0.42923786861E+02  0.45726424062E+00  0.43400731658E+02  0.00000000000E+00 0. -1.
         11    1    3    3    0    0  0.65334826266E+00 -0.14252644298E+02 -0.77845721768E+01  0.16253131935E+02  0.51100000000E-03 0. -1.
        -11    1    3    3    0    0  0.38684800900E+01 -0.28387963279E+02  0.75310614015E+01  0.29623613612E+02  0.51100000000E-03 0.  1.
        -12    1    3    3    0    0  0.18784012806E+01 -0.28317928390E+00 -0.20375346536E+00  0.19105227956E+01  0.00000000000E+00 0.  1.
</event>
<event>
 7    1  0.4477737E-009  0.4778727E+02  0.7816164E-02  0.1312668E+00
        -11   -1    0    0    0    0  0.00000000000E+00  0.00000000000E+00  0.45593999997E+02  0.45594000000E+02  0.51100000000E-03 0.  1.
         11   -1    0    0    0    0 -0.00000000000E+00 -0.00000000000E+00 -0.45593999997E+02  0.45594000000E+02  0.51100000000E-03 0. -1.
    9900012    2    1    2    0    0 -0.23956058704E+02  0.30659691518E+02  0.19227953066E+02  0.47787267152E+02  0.19999982253E+02 0.  0.
         12    1    1    2    0    0  0.23956058704E+02 -0.30659691518E+02 -0.19227953066E+02  0.43400732848E+02  0.00000000000E+00 0. -1.
         11    1    3    3    0    0 -0.56959644051E+01  0.22310030870E+01  0.74124339386E+01  0.96107004133E+01  0.51100000000E-03 0. -1.
        -11    1    3    3    0    0 -0.10882727238E+01  0.91787644326E+01 -0.11346520853E+01  0.93124373634E+01  0.51100000000E-03 0.  1.
        -12    1    3    3    0    0 -0.17171821575E+02  0.19249923999E+02  0.12950171212E+02  0.28864129375E+02  0.00000000000E+00 0.  1.
</event>
<event>
 7    1  0.4477737E-009  0.4778727E+02  0.7816164E-02  0.1312668E+00
        -11   -1    0    0    0    0  0.00000000000E+00  0.00000000000E+00  0.45593999997E+02  0.45594000000E+02  0.51100000000E-03 0.  1.
         11   -1    0    0    0    0 -0.00000000000E+00 -0.00000000000E+00 -0.45593999997E+02  0.45594000000E+02  0.51100000000E-03 0. -1.
    9900012    2    1    2    0    0  0.13472471926E+02 -0.34437452766E+02  0.22719539747E+02  0.47787272597E+02  0.20000007078E+02 0.  0.
         12    1    1    2    0    0 -0.13472471926E+02  0.34437452766E+02 -0.22719539747E+02  0.43400727403E+02  0.00000000000E+00 0. -1.
         11    1    3    3    0    0  0.51873017901E+01 -0.45657526653E+01 -0.25897758567E+01  0.73797788931E+01  0.51100000000E-03 0. -1.
        -11    1    3    3    0    0  0.87685347271E+01 -0.24490705487E+02  0.19801099481E+02  0.32691977570E+02  0.51100000000E-03 0.  1.
        -12    1    3    3    0    0 -0.48336459091E+00 -0.53809946136E+01  0.55082161226E+01  0.77155161339E+01  0.00000000000E+00 0.  1.
</event>
<event>
 7    1  0.4477737E-009  0.4778727E+02  0.7816164E-02  0.1312668E+00
        -11   -1    0    0    0    0  0.00000000000E+00  0.00000000000E+00  0.45593999997E+02  0.45594000000E+02  0.51100000000E-03 0.  1.
         11   -1    0    0    0    0 -0.00000000000E+00 -0.00000000000E+00 -0.45593999997E+02  0.45594000000E+02  0.51100000000E-03 0. -1.
    9900012    2    1    2    0    0 -0.70514699622E+01  0.18267953149E+02  0.38732178765E+02  0.47787274053E+02  0.20000013716E+02 0.  0.
         12    1    1    2    0    0  0.70514699622E+01 -0.18267953149E+02 -0.38732178765E+02  0.43400725947E+02  0.00000000000E+00 0. -1.
         11    1    3    3    0    0  0.80198894166E+00 -0.14688790626E+01  0.11242833532E+02  0.11366710081E+02  0.51100000000E-03 0. -1.
        -11    1    3    3    0    0 -0.78692590106E+01  0.20884898131E+02  0.24122579409E+02  0.32863399778E+02  0.51100000000E-03 0.  1.
        -12    1    3    3    0    0  0.15800106800E-01 -0.11480659191E+01  0.33667658229E+01  0.35571641942E+01  0.00000000000E+00 0.  1.
</event>
<event>
 7    1  0.4477737E-009  0.4778728E+02  0.7816164E-02  0.1312668E+00
        -11   -1    0    0    0    0  0.00000000000E+00  0.00000000000E+00  0.45593999997E+02  0.45594000000E+02  0.51100000000E-03 0.  1.
         11   -1    0    0    0    0 -0.00000000000E+00 -0.00000000000E+00 -0.45593999997E+02  0.45594000000E+02  0.51100000000E-03 0. -1.
    9900012    2    1    2    0    0 -0.29906083256E+02  0.23785040997E+02  0.20579624256E+02  0.47787275058E+02  0.20000018300E+02 0.  0.
         12    1    1    2    0    0  0.29906083256E+02 -0.23785040997E+02 -0.20579624256E+02  0.43400724942E+02  0.00000000000E+00 0. -1.
         11    1    3    3    0    0 -0.31073255331E+01  0.94116188698E+01  0.37366751584E+01  0.10592298297E+02  0.51100000000E-03 0. -1.
        -11    1    3    3    0    0 -0.23906640087E+02  0.73630473260E+01  0.15679641944E+02  0.29522755256E+02  0.51100000000E-03 0.  1.
        -12    1    3    3    0    0 -0.28921176363E+01  0.70103748017E+01  0.11633071533E+01  0.76722215045E+01  0.00000000000E+00 0.  1.
</event>
<event>
 7    1  0.4477737E-009  0.4778727E+02  0.7816164E-02  0.1312668E+00
        -11   -1    0    0    0    0  0.00000000000E+00  0.00000000000E+00  0.45593999997E+02  0.45594000000E+02  0.51100000000E-03 0.  1.
         11   -1    0    0    0    0 -0.00000000000E+00 -0.00000000000E+00 -0.45593999997E+02  0.45594000000E+02  0.51100000000E-03 0. -1.
    9900012    2    1    2    0    0 -0.36049767423E+02  0.13718162500E+02  0.19895963918E+02  0.47787273119E+02  0.20000009457E+02 0.  0.
         12    1    1    2    0    0  0.36049767423E+02 -0.13718162500E+02 -0.19895963918E+02  0.43400726881E+02  0.00000000000E+00 0. -1.
         11    1    3    3    0    0 -0.17242035931E+02  0.16292108514E+02  0.93912411426E+01  0.25513055743E+02  0.51100000000E-03 0.  1.
        -11    1    3    3    0    0 -0.13423291690E+02 -0.70742673162E+00  0.95668404176E+01  0.16498777174E+02  0.51100000000E-03 0. -1.
        -12    1    3    3    0    0 -0.53844398019E+01 -0.18665192824E+01  0.93788235751E+00  0.57754402021E+01  0.00000000000E+00 0.  1.
</event>
<event>
 7    1  0.4477737E-009  0.4778726E+02  0.7816164E-02  0.1312668E+00
        -11   -1    0    0    0    0  0.00000000000E+00  0.00000000000E+00  0.45593999997E+02  0.45594000000E+02  0.51100000000E-03 0.  1.
         11   -1    0    0    0    0 -0.00000000000E+00 -0.00000000000E+00 -0.45593999997E+02  0.45594000000E+02  0.51100000000E-03 0. -1.
    9900012    2    1    2    0    0  0.26387487753E+02 -0.14891071158E+02  0.31073798943E+02  0.47787257023E+02  0.19999936073E+02 0.  0.
         12    1    1    2    0    0 -0.26387487753E+02  0.14891071158E+02 -0.31073798943E+02  0.43400742977E+02  0.00000000000E+00 0. -1.
         11    1    3    3    0    0  0.12755818182E+02 -0.21649860073E+01  0.24620261422E+02  0.27812862755E+02  0.51100000000E-03 0. -1.
        -11    1    3    3    0    0  0.10458120756E+02 -0.96814052952E+01  0.62782688809E+01  0.15573007373E+02  0.51100000000E-03 0.  1.
         12    1    3    3    0    0  0.31735488153E+01 -0.30446798560E+01  0.17526864079E+00  0.44013868957E+01  0.00000000000E+00 0. -1.
</event>
<event>
 7    1  0.5746137E-009  0.4778727E+02  0.7816164E-02  0.1312668E+00
        -11   -1    0    0    0    0  0.00000000000E+00  0.00000000000E+00  0.45593999997E+02  0.45594000000E+02  0.51100000000E-03 0. -1.
         11   -1    0    0    0    0 -0.00000000000E+00 -0.00000000000E+00 -0.45593999997E+02  0.45594000000E+02  0.51100000000E-03 0.  1.
    9900012    2    1    2    0    0 -0.37782662080E+02  0.29806960294E+01 -0.21147314463E+02  0.47787274065E+02  0.20000013774E+02 0.  0.
         12    1    1    2    0    0  0.37782662080E+02 -0.29806960294E+01  0.21147314463E+02  0.43400725935E+02  0.00000000000E+00 0. -1.
         11    1    3    3    0    0  0.15984128262E+01 -0.16864310849E+01 -0.58665751766E+00  0.23964850659E+01  0.51100000000E-03 0. -1.
        -11    1    3    3    0    0 -0.23996587000E+02  0.67640200790E+01 -0.12212428417E+02  0.27762052578E+02  0.51100000000E-03 0.  1.
        -12    1    3    3    0    0 -0.15384487906E+02 -0.20968929646E+01 -0.83482285288E+01  0.17628736421E+02  0.00000000000E+00 0.  1.
</event>
<event>
 7    1  0.4477737E-009  0.4778728E+02  0.7816164E-02  0.1312668E+00
        -11   -1    0    0    0    0  0.00000000000E+00  0.00000000000E+00  0.45593999997E+02  0.45594000000E+02  0.51100000000E-03 0.  1.
         11   -1    0    0    0    0 -0.00000000000E+00 -0.00000000000E+00 -0.45593999997E+02  0.45594000000E+02  0.51100000000E-03 0. -1.
    9900012    2    1    2    0    0  0.20887197561E+02  0.33085618790E+02  0.18780034648E+02  0.47787275420E+02  0.20000019952E+02 0.  0.
         12    1    1    2    0    0 -0.20887197561E+02 -0.33085618790E+02 -0.18780034648E+02  0.43400724580E+02  0.00000000000E+00 0. -1.
         11    1    3    3    0    0  0.68695841057E+01  0.27490789340E+00  0.41935999126E+01  0.80531385573E+01  0.51100000000E-03 0.  1.
        -11    1    3    3    0    0  0.29492878609E+01  0.13178191192E+01  0.29735436005E+01  0.43905475653E+01  0.51100000000E-03 0. -1.
         12    1    3    3    0    0  0.11068325594E+02  0.31492891777E+02  0.11612891135E+02  0.35343589298E+02  0.00000000000E+00 0. -1.
</event>
<event>
 7    1  0.4477737E-009  0.4778727E+02  0.7816164E-02  0.1312668E+00
        -11   -1    0    0    0    0  0.00000000000E+00  0.00000000000E+00  0.45593999997E+02  0.45594000000E+02  0.51100000000E-03 0.  1.
         11   -1    0    0    0    0 -0.00000000000E+00 -0.00000000000E+00 -0.45593999997E+02  0.45594000000E+02  0.51100000000E-03 0. -1.
    9900012    2    1    2    0    0 -0.13675029529E+02 -0.31724019336E+02  0.26271726030E+02  0.47787269314E+02  0.19999992109E+02 0.  0.
         12    1    1    2    0    0  0.13675029529E+02  0.31724019336E+02 -0.26271726030E+02  0.43400730686E+02  0.00000000000E+00 0. -1.
         11    1    3    3    0    0 -0.26563129464E+01  0.76871912081E+00 -0.11561537532E+01  0.29972686430E+01  0.51100000000E-03 0. -1.
        -11    1    3    3    0    0 -0.86602348735E+01 -0.22133346469E+02  0.23608303510E+02  0.33499801326E+02  0.51100000000E-03 0.  1.
         12    1    3    3    0    0 -0.23584817095E+01 -0.10359391989E+02  0.38195762731E+01  0.11290199345E+02  0.00000000000E+00 0. -1.
</event>
<event>
 7    1  0.4477737E-009  0.4778730E+02  0.7816164E-02  0.1312668E+00
        -11   -1    0    0    0    0  0.00000000000E+00  0.00000000000E+00  0.45593999997E+02  0.45594000000E+02  0.51100000000E-03 0. -1.
         11   -1    0    0    0    0 -0.00000000000E+00 -0.00000000000E+00 -0.45593999997E+02  0.45594000000E+02  0.51100000000E-03 0.  1.
    9900012    2    1    2    0    0  0.41430730041E+02 -0.36066522333E+01 -0.12413984025E+02  0.47787304943E+02  0.20000154556E+02 0.  0.
         12    1    1    2    0    0 -0.41430730041E+02  0.36066522333E+01  0.12413984025E+02  0.43400695057E+02  0.00000000000E+00 0. -1.
         11    1    3    3    0    0  0.16391579370E+02  0.27613030459E+01 -0.45695519176E+01  0.17239184254E+02  0.51100000000E-03 0. -1.
        -11    1    3    3    0    0  0.15185308977E+02 -0.58041336191E+01 -0.11617899798E+02  0.19981420665E+02  0.51100000000E-03 0.  1.
        -12    1    3    3    0    0  0.98538416934E+01 -0.56382166005E+00  0.37734676908E+01  0.10566700024E+02  0.00000000000E+00 0.  1.
</event>
<event>
 7    1  0.4477737E-009  0.4778727E+02  0.7816164E-02  0.1312668E+00
        -11   -1    0    0    0    0  0.00000000000E+00  0.00000000000E+00  0.45593999997E+02  0.45594000000E+02  0.51100000000E-03 0. -1.
         11   -1    0    0    0    0 -0.00000000000E+00 -0.00000000000E+00 -0.45593999997E+02  0.45594000000E+02  0.51100000000E-03 0.  1.
    9900012    2    1    2    0    0 -0.23522919663E+01  0.56653912372E+01 -0.42965021724E+02  0.47787273887E+02  0.20000012962E+02 0.  0.
         12    1    1    2    0    0  0.23522919663E+01 -0.56653912372E+01  0.42965021724E+02  0.43400726113E+02  0.00000000000E+00 0. -1.
         11    1    3    3    0    0 -0.13403584317E+01  0.93506815483E+01 -0.16372267076E+02  0.18901929415E+02  0.51100000000E-03 0. -1.
        -11    1    3    3    0    0 -0.46788220373E+01 -0.41759062656E+01 -0.94063584516E+01  0.11305270823E+02  0.51100000000E-03 0.  1.
         12    1    3    3    0    0  0.36668885026E+01  0.49061595451E+00 -0.17186396197E+02  0.17580073650E+02  0.00000000000E+00 0. -1.
</event>
<event>
 7    1  0.4477737E-009  0.4778727E+02  0.7816164E-02  0.1312668E+00
        -11   -1    0    0    0    0  0.00000000000E+00  0.00000000000E+00  0.45593999997E+02  0.45594000000E+02  0.51100000000E-03 0. -1.
         11   -1    0    0    0    0 -0.00000000000E+00 -0.00000000000E+00 -0.45593999997E+02  0.45594000000E+02  0.51100000000E-03 0.  1.
    9900012    2    1    2    0    0 -0.59434449721E+01  0.60006587720E+01 -0.42571011788E+02  0.47787268572E+02  0.19999988727E+02 0.  0.
         12    1    1    2    0    0  0.59434449721E+01 -0.60006587720E+01  0.42571011788E+02  0.43400731428E+02  0.00000000000E+00 0. -1.
         11    1    3    3    0    0  0.19802891130E+01  0.91951998814E+01 -0.11947898531E+02  0.15206101584E+02  0.51100000000E-03 0. -1.
        -11    1    3    3    0    0 -0.80139240861E+01 -0.13363163588E+01 -0.17114506520E+02  0.18945053559E+02  0.51100000000E-03 0.  1.
         12    1    3    3    0    0  0.90190001038E-01 -0.18582247506E+01 -0.13508606737E+02  0.13636113428E+02  0.00000000000E+00 0. -1.
</event>
<event>
 7    1  0.4477737E-009  0.4778727E+02  0.7816164E-02  0.1312668E+00
        -11   -1    0    0    0    0  0.00000000000E+00  0.00000000000E+00  0.45593999997E+02  0.45594000000E+02  0.51100000000E-03 0.  1.
         11   -1    0    0    0    0 -0.00000000000E+00 -0.00000000000E+00 -0.45593999997E+02  0.45594000000E+02  0.51100000000E-03 0. -1.
    9900012    2    1    2    0    0  0.22106858064E+02 -0.27691854706E+02  0.25061348014E+02  0.47787272416E+02  0.20000006253E+02 0.  0.
         12    1    1    2    0    0 -0.22106858064E+02  0.27691854706E+02 -0.25061348014E+02  0.43400727584E+02  0.00000000000E+00 0. -1.
         11    1    3    3    0    0  0.12031844380E+02 -0.48149370480E+01  0.10544108640E+02  0.16707098049E+02  0.51100000000E-03 0. -1.
        -11    1    3    3    0    0 -0.14698293124E+01 -0.91425991168E+01  0.70859348085E+01  0.11660102452E+02  0.51100000000E-03 0.  1.
        -12    1    3    3    0    0  0.11544842997E+02 -0.13734318541E+02  0.74313045655E+01  0.19420071915E+02  0.00000000000E+00 0.  1.
</event>
<event>
 7    1  0.4477737E-009  0.4778727E+02  0.7816164E-02  0.1312668E+00
        -11   -1    0    0    0    0  0.00000000000E+00  0.00000000000E+00  0.45593999997E+02  0.45594000000E+02  0.51100000000E-03 0.  1.
         11   -1    0    0    0    0 -0.00000000000E+00 -0.00000000000E+00 -0.45593999997E+02  0.45594000000E+02  0.51100000000E-03 0. -1.
    9900012    2    1    2    0    0  0.24346247405E+02  0.24919755151E+02  0.25882220957E+02  0.47787270500E+02  0.19999997518E+02 0.  0.
         12    1    1    2    0    0 -0.24346247405E+02 -0.24919755151E+02 -0.25882220957E+02  0.43400729500E+02  0.00000000000E+00 0. -1.
         11    1    3    3    0    0  0.88656477841E+01  0.12388345990E+02  0.88678393921E+01  0.17626951034E+02  0.51100000000E-03 0. -1.
        -11    1    3    3    0    0  0.89911764957E+01 -0.17066408236E+01  0.76267223671E+01  0.11913050491E+02  0.51100000000E-03 0.  1.
        -12    1    3    3    0    0  0.64894231252E+01  0.14238049984E+02  0.93876591974E+01  0.18247268975E+02  0.00000000000E+00 0.  1.
</event>
<event>
 7    1  0.4477737E-009  0.4778727E+02  0.7816164E-02  0.1312668E+00
        -11   -1    0    0    0    0  0.00000000000E+00  0.00000000000E+00  0.45593999997E+02  0.45594000000E+02  0.51100000000E-03 0.  1.
         11   -1    0    0    0    0 -0.00000000000E+00 -0.00000000000E+00 -0.45593999997E+02  0.45594000000E+02  0.51100000000E-03 0. -1.
    9900012    2    1    2    0    0  0.73048048420E+00  0.26495371666E+02  0.34366916484E+02  0.47787271089E+02  0.20000000202E+02 0.  0.
         12    1    1    2    0    0 -0.73048048420E+00 -0.26495371666E+02 -0.34366916484E+02  0.43400728911E+02  0.00000000000E+00 0. -1.
         11    1    3    3    0    0 -0.19349520921E+01 -0.23128020659E+01  0.32075305655E+01  0.44024249663E+01  0.51100000000E-03 0. -1.
        -11    1    3    3    0    0 -0.69784024404E+00  0.21680438464E+02  0.18686951155E+02  0.28630936707E+02  0.51100000000E-03 0.  1.
        -12    1    3    3    0    0  0.33632728203E+01  0.71277352676E+01  0.12472434763E+02  0.14753909415E+02  0.00000000000E+00 0.  1.
</event>
<event>
 7    1  0.4477737E-009  0.4778726E+02  0.7816164E-02  0.1312668E+00
        -11   -1    0    0    0    0  0.00000000000E+00  0.00000000000E+00  0.45593999997E+02  0.45594000000E+02  0.51100000000E-03 0.  1.
         11   -1    0    0    0    0 -0.00000000000E+00 -0.00000000000E+00 -0.45593999997E+02  0.45594000000E+02  0.51100000000E-03 0. -1.
    9900012    2    1    2    0    0 -0.27623800637E+02 -0.32793858311E+02 -0.67166041026E+01  0.47787259509E+02  0.19999947403E+02 0.  0.
         12    1    1    2    0    0  0.27623800637E+02  0.32793858311E+02  0.67166041026E+01  0.43400740491E+02  0.00000000000E+00 0. -1.
         11    1    3    3    0    0 -0.77371281130E+01 -0.12275572738E+02 -0.97483197648E+01  0.17480920342E+02  0.51100000000E-03 0. -1.
        -11    1    3    3    0    0 -0.10476000317E+02 -0.12503462235E+02  0.63549772034E+01  0.17506252769E+02  0.51100000000E-03 0.  1.
        -12    1    3    3    0    0 -0.94106722074E+01 -0.80148233372E+01 -0.33232615412E+01  0.12800086398E+02  0.00000000000E+00 0.  1.
</event>
<event>
 7    1  0.4477737E-009  0.4778727E+02  0.7816164E-02  0.1312668E+00
        -11   -1    0    0    0    0  0.00000000000E+00  0.00000000000E+00  0.45593999997E+02  0.45594000000E+02  0.51100000000E-03 0.  1.
         11   -1    0    0    0    0 -0.00000000000E+00 -0.00000000000E+00 -0.45593999997E+02  0.45594000000E+02  0.51100000000E-03 0. -1.
    9900012    2    1    2    0    0  0.11538097989E+01  0.43379919458E+02  0.68879674112E+00  0.47787272700E+02  0.20000007548E+02 0.  0.
         12    1    1    2    0    0 -0.11538097989E+01 -0.43379919458E+02 -0.68879674112E+00  0.43400727300E+02  0.00000000000E+00 0. -1.
         11    1    3    3    0    0 -0.12520967504E+01  0.68112396451E+01 -0.24329237439E+01  0.73402895025E+01  0.51100000000E-03 0. -1.
        -11    1    3    3    0    0 -0.51772483775E+01  0.59239805656E+01  0.40819242641E+01  0.88633826761E+01  0.51100000000E-03 0.  1.
        -12    1    3    3    0    0  0.75831549268E+01  0.30644699247E+02 -0.96020377907E+00  0.31583600521E+02  0.00000000000E+00 0.  1.
</event>
<event>
 7    1  0.4477737E-009  0.4778732E+02  0.7816164E-02  0.1312668E+00
        -11   -1    0    0    0    0  0.00000000000E+00  0.00000000000E+00  0.45593999997E+02  0.45594000000E+02  0.51100000000E-03 0. -1.
         11   -1    0    0    0    0 -0.00000000000E+00 -0.00000000000E+00 -0.45593999997E+02  0.45594000000E+02  0.51100000000E-03 0.  1.
    9900012    2    1    2    0    0  0.36815041880E+02  0.71156349068E+01 -0.21854961624E+02  0.47787321245E+02  0.20000228885E+02 0.  0.
         12    1    1    2    0    0 -0.36815041880E+02 -0.71156349068E+01  0.21854961624E+02  0.43400678755E+02  0.00000000000E+00 0. -1.
         11    1    3    3    0    0  0.30788090510E+02  0.52743552134E+01 -0.98874857485E+01  0.32764122373E+02  0.51100000000E-03 0. -1.
        -11    1    3    3    0    0 -0.25882864272E+00  0.27221523282E+01 -0.36034188531E+01  0.45234647402E+01  0.51100000000E-03 0.  1.
        -12    1    3    3    0    0  0.62857800127E+01 -0.88087263472E+00 -0.83640570225E+01  0.10499734132E+02  0.00000000000E+00 0.  1.
</event>
<event>
 7    1  0.4477737E-009  0.4778728E+02  0.7816164E-02  0.1312668E+00
        -11   -1    0    0    0    0  0.00000000000E+00  0.00000000000E+00  0.45593999997E+02  0.45594000000E+02  0.51100000000E-03 0.  1.
         11   -1    0    0    0    0 -0.00000000000E+00 -0.00000000000E+00 -0.45593999997E+02  0.45594000000E+02  0.51100000000E-03 0. -1.
    9900012    2    1    2    0    0  0.10944340173E+02  0.17507935042E+01  0.41961628858E+02  0.47787283921E+02  0.20000058709E+02 0.  0.
         12    1    1    2    0    0 -0.10944340173E+02 -0.17507935042E+01 -0.41961628858E+02  0.43400716079E+02  0.00000000000E+00 0. -1.
         11    1    3    3    0    0  0.63377192520E+01  0.50047974224E+01  0.14489627129E+02  0.16588067312E+02  0.51100000000E-03 0. -1.
        -11    1    3    3    0    0  0.60343152292E+01 -0.78003671543E+01  0.16266488879E+02  0.19022548429E+02  0.51100000000E-03 0.  1.
        -12    1    3    3    0    0 -0.14276943083E+01  0.45463632361E+01  0.11205512851E+02  0.12176668180E+02  0.00000000000E+00 0.  1.
</event>
<event>
 7    1  0.4477737E-009  0.4778727E+02  0.7816164E-02  0.1312668E+00
        -11   -1    0    0    0    0  0.00000000000E+00  0.00000000000E+00  0.45593999997E+02  0.45594000000E+02  0.51100000000E-03 0. -1.
         11   -1    0    0    0    0 -0.00000000000E+00 -0.00000000000E+00 -0.45593999997E+02  0.45594000000E+02  0.51100000000E-03 0.  1.
    9900012    2    1    2    0    0  0.17332471158E+02  0.27582131543E+02 -0.28678126383E+02  0.47787268788E+02  0.19999989711E+02 0.  0.
         12    1    1    2    0    0 -0.17332471158E+02 -0.27582131543E+02  0.28678126383E+02  0.43400731212E+02  0.00000000000E+00 0. -1.
         11    1    3    3    0    0  0.71143836067E+01  0.20270668285E+02 -0.88121124598E+01  0.23219986501E+02  0.51100000000E-03 0. -1.
        -11    1    3    3    0    0  0.11073544181E+02  0.75150517439E+01 -0.19410846245E+02  0.23577114659E+02  0.51100000000E-03 0.  1.
         12    1    3    3    0    0 -0.85545662943E+00 -0.20358848565E+00 -0.45516767804E+00  0.99016762796E+00  0.00000000000E+00 0. -1.
</event>
<event>
 7    1  0.4477737E-009  0.4778727E+02  0.7816164E-02  0.1312668E+00
        -11   -1    0    0    0    0  0.00000000000E+00  0.00000000000E+00  0.45593999997E+02  0.45594000000E+02  0.51100000000E-03 0. -1.
         11   -1    0    0    0    0 -0.00000000000E+00 -0.00000000000E+00 -0.45593999997E+02  0.45594000000E+02  0.51100000000E-03 0.  1.
    9900012    2    1    2    0    0 -0.32088023610E+02  0.28179112959E+02  0.77407637758E+01  0.47787273161E+02  0.20000009650E+02 0.  0.
         12    1    1    2    0    0  0.32088023610E+02 -0.28179112959E+02 -0.77407637758E+01  0.43400726839E+02  0.00000000000E+00 0. -1.
         11    1    3    3    0    0 -0.19510160837E+02  0.21910264326E+02  0.43281752008E+00  0.29340984816E+02  0.51100000000E-03 0. -1.
        -11    1    3    3    0    0 -0.98793750207E+01  0.43766639098E+01  0.42363174674E+00  0.10813727475E+02  0.51100000000E-03 0.  1.
         12    1    3    3    0    0 -0.26984877521E+01  0.18921847230E+01  0.68843145090E+01  0.76325608699E+01  0.00000000000E+00 0. -1.
</event>
<event>
 7    1  0.4477737E-009  0.4778727E+02  0.7816164E-02  0.1312668E+00
        -11   -1    0    0    0    0  0.00000000000E+00  0.00000000000E+00  0.45593999997E+02  0.45594000000E+02  0.51100000000E-03 0.  1.
         11   -1    0    0    0    0 -0.00000000000E+00 -0.00000000000E+00 -0.45593999997E+02  0.45594000000E+02  0.51100000000E-03 0. -1.
    9900012    2    1    2    0    0  0.22544643940E+02  0.87491359492E+01  0.36039081409E+02  0.47787265685E+02  0.19999975565E+02 0.  0.
         12    1    1    2    0    0 -0.22544643940E+02 -0.87491359492E+01 -0.36039081409E+02  0.43400734315E+02  0.00000000000E+00 0. -1.
         11    1    3    3    0    0  0.16023667631E+02  0.40697091783E+01  0.18852652237E+02  0.25074747332E+02  0.51100000000E-03 0. -1.
        -11    1    3    3    0    0 -0.89961646778E+00  0.52578306988E+01  0.18162200994E+01  0.56349577778E+01  0.51100000000E-03 0.  1.
         12    1    3    3    0    0  0.74205927774E+01 -0.57840392797E+00  0.15370209072E+02  0.17077560575E+02  0.00000000000E+00 0. -1.
</event>
<event>
 7    1  0.4477737E-009  0.4778724E+02  0.7816164E-02  0.1312668E+00
        -11   -1    0    0    0    0  0.00000000000E+00  0.00000000000E+00  0.45593999997E+02  0.45594000000E+02  0.51100000000E-03 0.  1.
         11   -1    0    0    0    0 -0.00000000000E+00 -0.00000000000E+00 -0.45593999997E+02  0.45594000000E+02  0.51100000000E-03 0. -1.
    9900012    2    1    2    0    0 -0.17513268420E+02  0.36249286028E+01  0.39544547936E+02  0.47787240219E+02  0.19999859452E+02 0.  0.
         12    1    1    2    0    0  0.17513268420E+02 -0.36249286028E+01 -0.39544547936E+02  0.43400759781E+02  0.00000000000E+00 0. -1.
         11    1    3    3    0    0 -0.51267530414E+01  0.24544250676E+01  0.11272351330E+01  0.57946922667E+01  0.51100000000E-03 0. -1.
        -11    1    3    3    0    0 -0.13986934695E+00 -0.91913768288E+00  0.18465520582E+02  0.18488910950E+02  0.51100000000E-03 0.  1.
        -12    1    3    3    0    0 -0.12246646032E+02  0.20896412181E+01  0.19951792222E+02  0.23503637002E+02  0.00000000000E+00 0.  1.
</event>
<event>
 7    1  0.4477737E-009  0.4778727E+02  0.7816164E-02  0.1312668E+00
        -11   -1    0    0    0    0  0.00000000000E+00  0.00000000000E+00  0.45593999997E+02  0.45594000000E+02  0.51100000000E-03 0.  1.
         11   -1    0    0    0    0 -0.00000000000E+00 -0.00000000000E+00 -0.45593999997E+02  0.45594000000E+02  0.51100000000E-03 0. -1.
    9900012    2    1    2    0    0 -0.52190611399E+01  0.33628764440E+02  0.26934939371E+02  0.47787270100E+02  0.19999995695E+02 0.  0.
         12    1    1    2    0    0  0.52190611399E+01 -0.33628764440E+02 -0.26934939371E+02  0.43400729900E+02  0.00000000000E+00 0. -1.
         11    1    3    3    0    0 -0.37681352888E+00 -0.23688503705E+01  0.30179931728E+01  0.38550906041E+01  0.51100000000E-03 0. -1.
        -11    1    3    3    0    0 -0.39195872520E+01  0.33409629807E+02  0.19959771202E+02  0.39114690268E+02  0.51100000000E-03 0.  1.
        -12    1    3    3    0    0 -0.92266035898E+00  0.25879850032E+01  0.39571749955E+01  0.48174892278E+01  0.00000000000E+00 0.  1.
</event>
<event>
 7    1  0.4477737E-009  0.4778727E+02  0.7816164E-02  0.1312668E+00
        -11   -1    0    0    0    0  0.00000000000E+00  0.00000000000E+00  0.45593999997E+02  0.45594000000E+02  0.51100000000E-03 0. -1.
         11   -1    0    0    0    0 -0.00000000000E+00 -0.00000000000E+00 -0.45593999997E+02  0.45594000000E+02  0.51100000000E-03 0.  1.
    9900012    2    1    2    0    0  0.18349821103E+02 -0.19387269896E+02 -0.34220477321E+02  0.47787271473E+02  0.20000001954E+02 0.  0.
         12    1    1    2    0    0 -0.18349821103E+02  0.19387269896E+02  0.34220477321E+02  0.43400728527E+02  0.00000000000E+00 0. -1.
         11    1    3    3    0    0  0.12937031830E+02 -0.15568886811E+02 -0.16864405112E+02  0.26347014805E+02  0.51100000000E-03 0. -1.
        -11    1    3    3    0    0  0.76249832949E+01  0.59243843785E+00 -0.10244281352E+02  0.12784234597E+02  0.51100000000E-03 0.  1.
        -12    1    3    3    0    0 -0.22121940212E+01 -0.44108215237E+01 -0.71117908571E+01  0.86560220712E+01  0.00000000000E+00 0.  1.
</event>
<event>
 7    1  0.4477737E-009  0.4778725E+02  0.7816164E-02  0.1312668E+00
        -11   -1    0    0    0    0  0.00000000000E+00  0.00000000000E+00  0.45593999997E+02  0.45594000000E+02  0.51100000000E-03 0. -1.
         11   -1    0    0    0    0 -0.00000000000E+00 -0.00000000000E+00 -0.45593999997E+02  0.45594000000E+02  0.51100000000E-03 0.  1.
    9900012    2    1    2    0    0 -0.32274592927E+00 -0.29697874533E+02  0.31647385180E+02  0.47787252248E+02  0.19999914297E+02 0.  0.
         12    1    1    2    0    0  0.32274592927E+00  0.29697874533E+02 -0.31647385180E+02  0.43400747752E+02  0.00000000000E+00 0. -1.
         11    1    3    3    0    0  0.66993448839E+01 -0.57907593321E+01  0.53699660779E+01  0.10356189041E+02  0.51100000000E-03 0.  1.
        -11    1    3    3    0    0  0.54419740745E+00  0.41812755807E+00  0.24691240127E+01  0.25627241608E+01  0.51100000000E-03 0. -1.
         12    1    3    3    0    0 -0.75662882206E+01 -0.24325242759E+02  0.23808295090E+02  0.34868339046E+02  0.00000000000E+00 0. -1.
</event>
<event>
 7    1  0.4477737E-009  0.4778727E+02  0.7816164E-02  0.1312668E+00
        -11   -1    0    0    0    0  0.00000000000E+00  0.00000000000E+00  0.45593999997E+02  0.45594000000E+02  0.51100000000E-03 0.  1.
         11   -1    0    0    0    0 -0.00000000000E+00 -0.00000000000E+00 -0.45593999997E+02  0.45594000000E+02  0.51100000000E-03 0. -1.
    9900012    2    1    2    0    0  0.42975501226E+02 -0.19118605865E+01  0.57510328078E+01  0.47787270803E+02  0.19999998898E+02 0.  0.
         12    1    1    2    0    0 -0.42975501226E+02  0.19118605865E+01 -0.57510328078E+01  0.43400729197E+02  0.00000000000E+00 0. -1.
         11    1    3    3    0    0  0.15280552273E+02  0.19413686864E+01 -0.59863769372E+01  0.16525764709E+02  0.51100000000E-03 0. -1.
        -11    1    3    3    0    0  0.18011810891E+02  0.11537974853E+01  0.79390286074E+01  0.19717625509E+02  0.51100000000E-03 0.  1.
         12    1    3    3    0    0  0.96831380616E+01 -0.50070267582E+01  0.37983811376E+01  0.11543880584E+02  0.00000000000E+00 0. -1.
</event>
<event>
 7    1  0.4477737E-009  0.4778727E+02  0.7816164E-02  0.1312668E+00
        -11   -1    0    0    0    0  0.00000000000E+00  0.00000000000E+00  0.45593999997E+02  0.45594000000E+02  0.51100000000E-03 0.  1.
         11   -1    0    0    0    0 -0.00000000000E+00 -0.00000000000E+00 -0.45593999997E+02  0.45594000000E+02  0.51100000000E-03 0. -1.
    9900012    2    1    2    0    0 -0.60678314685E+01  0.35073161638E+02  0.24833005276E+02  0.47787269625E+02  0.19999993530E+02 0.  0.
         12    1    1    2    0    0  0.60678314685E+01 -0.35073161638E+02 -0.24833005276E+02  0.43400730375E+02  0.00000000000E+00 0. -1.
         11    1    3    3    0    0 -0.33106899554E+01  0.16101422172E+01  0.73766993826E+01  0.82443265330E+01  0.51100000000E-03 0. -1.
        -11    1    3    3    0    0 -0.62523982357E+01  0.28595232027E+02  0.12768435344E+02  0.31934506725E+02  0.51100000000E-03 0.  1.
        -12    1    3    3    0    0  0.34952567227E+01  0.48677873931E+01  0.46878705500E+01  0.76084363673E+01  0.00000000000E+00 0.  1.
</event>
<event>
 7    1  0.4477737E-009  0.4778726E+02  0.7816164E-02  0.1312668E+00
        -11   -1    0    0    0    0  0.00000000000E+00  0.00000000000E+00  0.45593999997E+02  0.45594000000E+02  0.51100000000E-03 0.  1.
         11   -1    0    0    0    0 -0.00000000000E+00 -0.00000000000E+00 -0.45593999997E+02  0.45594000000E+02  0.51100000000E-03 0. -1.
    9900012    2    1    2    0    0 -0.95554182773E+01  0.40674481526E+02  0.11743270281E+02  0.47787264260E+02  0.19999969068E+02 0.  0.
         12    1    1    2    0    0  0.95554182773E+01 -0.40674481526E+02 -0.11743270281E+02  0.43400735740E+02  0.00000000000E+00 0. -1.
         11    1    3    3    0    0 -0.20877013201E+01  0.17934097387E+02  0.89860300262E+01  0.20167773347E+02  0.51100000000E-03 0. -1.
        -11    1    3    3    0    0 -0.24234993141E+01  0.40332284395E+01  0.63607220568E+01  0.79119571482E+01  0.51100000000E-03 0.  1.
         12    1    3    3    0    0 -0.50442176432E+01  0.18707155700E+02 -0.36034818020E+01  0.19707533765E+02  0.00000000000E+00 0. -1.
</event>
<event>
 7    1  0.4477737E-009  0.4778726E+02  0.7816164E-02  0.1312668E+00
        -11   -1    0    0    0    0  0.00000000000E+00  0.00000000000E+00  0.45593999997E+02  0.45594000000E+02  0.51100000000E-03 0.  1.
         11   -1    0    0    0    0 -0.00000000000E+00 -0.00000000000E+00 -0.45593999997E+02  0.45594000000E+02  0.51100000000E-03 0. -1.
    9900012    2    1    2    0    0 -0.18242575947E+02  0.27747534064E+02  0.27944713756E+02  0.47787259791E+02  0.19999948689E+02 0.  0.
         12    1    1    2    0    0  0.18242575947E+02 -0.27747534064E+02 -0.27944713756E+02  0.43400740209E+02  0.00000000000E+00 0. -1.
         11    1    3    3    0    0 -0.90142349319E+00  0.97918651159E+01  0.15040635647E+02  0.17969805444E+02  0.51100000000E-03 0. -1.
        -11    1    3    3    0    0 -0.51357373565E+01  0.97480159853E+00 -0.32011178738E-01  0.52275291800E+01  0.51100000000E-03 0.  1.
         12    1    3    3    0    0 -0.12205415097E+02  0.16980867350E+02  0.12936089288E+02  0.24589925167E+02  0.00000000000E+00 0. -1.
</event>
<event>
 7    1  0.4477737E-009  0.4778728E+02  0.7816164E-02  0.1312668E+00
        -11   -1    0    0    0    0  0.00000000000E+00  0.00000000000E+00  0.45593999997E+02  0.45594000000E+02  0.51100000000E-03 0.  1.
         11   -1    0    0    0    0 -0.00000000000E+00 -0.00000000000E+00 -0.45593999997E+02  0.45594000000E+02  0.51100000000E-03 0. -1.
    9900012    2    1    2    0    0  0.24641945588E+02  0.89070530031E+01  0.34598579720E+02  0.47787276571E+02  0.20000025197E+02 0.  0.
         12    1    1    2    0    0 -0.24641945588E+02 -0.89070530031E+01 -0.34598579720E+02  0.43400723429E+02  0.00000000000E+00 0. -1.
         11    1    3    3    0    0  0.20120889841E+02  0.94451361973E+01  0.17848077558E+02  0.28506397152E+02  0.51100000000E-03 0. -1.
        -11    1    3    3    0    0  0.45721061391E+01  0.29256037422E+01  0.65419832409E+01  0.85006386106E+01  0.51100000000E-03 0.  1.
         12    1    3    3    0    0 -0.51050392521E-01 -0.34636869364E+01  0.10208518921E+02  0.10780240809E+02  0.00000000000E+00 0. -1.
</event>
<event>
 7    1  0.4477737E-009  0.4778727E+02  0.7816164E-02  0.1312668E+00
        -11   -1    0    0    0    0  0.00000000000E+00  0.00000000000E+00  0.45593999997E+02  0.45594000000E+02  0.51100000000E-03 0. -1.
         11   -1    0    0    0    0 -0.00000000000E+00 -0.00000000000E+00 -0.45593999997E+02  0.45594000000E+02  0.51100000000E-03 0.  1.
    9900012    2    1    2    0    0  0.22523558683E+02  0.36359974910E+02  0.73665001541E+01  0.47787265032E+02  0.19999972587E+02 0.  0.
         12    1    1    2    0    0 -0.22523558683E+02 -0.36359974910E+02 -0.73665001541E+01  0.43400734968E+02  0.00000000000E+00 0. -1.
         11    1    3    3    0    0 -0.29541486587E+01  0.22504882183E+01  0.79843635480E+00  0.37985776802E+01  0.51100000000E-03 0. -1.
        -11    1    3    3    0    0  0.24623467702E+01  0.15773242363E+00  0.60074374490E+00  0.25394732608E+01  0.51100000000E-03 0.  1.
         12    1    3    3    0    0  0.23015360572E+02  0.33951754268E+02  0.59673200544E+01  0.41449214091E+02  0.00000000000E+00 0. -1.
</event>
<event>
 7    1  0.4477737E-009  0.4778727E+02  0.7816164E-02  0.1312668E+00
        -11   -1    0    0    0    0  0.00000000000E+00  0.00000000000E+00  0.45593999997E+02  0.45594000000E+02  0.51100000000E-03 0.  1.
         11   -1    0    0    0    0 -0.00000000000E+00 -0.00000000000E+00 -0.45593999997E+02  0.45594000000E+02  0.51100000000E-03 0. -1.
    9900012    2    1    2    0    0 -0.15260157191E+01  0.30438628741E+02  0.30899587355E+02  0.47787270256E+02  0.19999996404E+02 0.  0.
         12    1    1    2    0    0  0.15260157191E+01 -0.30438628741E+02 -0.30899587355E+02  0.43400729744E+02  0.00000000000E+00 0. -1.
         11    1    3    3    0    0  0.92574439111E+00  0.13151371684E+01  0.34115088052E+01  0.37716019194E+01  0.51100000000E-03 0. -1.
        -11    1    3    3    0    0  0.29655286779E+01 -0.14596608781E+01  0.23009545059E+01  0.40273269197E+01  0.51100000000E-03 0.  1.
        -12    1    3    3    0    0 -0.54172887881E+01  0.30583152451E+02  0.25187124044E+02  0.39988341417E+02  0.00000000000E+00 0.  1.
</event>
<event>
 7    1  0.4477737E-009  0.4778729E+02  0.7816164E-02  0.1312668E+00
        -11   -1    0    0    0    0  0.00000000000E+00  0.00000000000E+00  0.45593999997E+02  0.45594000000E+02  0.51100000000E-03 0. -1.
         11   -1    0    0    0    0 -0.00000000000E+00 -0.00000000000E+00 -0.45593999997E+02  0.45594000000E+02  0.51100000000E-03 0.  1.
    9900012    2    1    2    0    0 -0.23906248846E+02 -0.33500846729E+02  0.13777013771E+02  0.47787290629E+02  0.20000089295E+02 0.  0.
         12    1    1    2    0    0  0.23906248846E+02  0.33500846729E+02 -0.13777013771E+02  0.43400709371E+02  0.00000000000E+00 0. -1.
         11    1    3    3    0    0 -0.42210925968E+00 -0.13784149672E+02 -0.20428737037E+00  0.13792124275E+02  0.51100000000E-03 0. -1.
        -11    1    3    3    0    0 -0.20213744646E+02 -0.14683698813E+02  0.11361157133E+02  0.27445990146E+02  0.51100000000E-03 0.  1.
         12    1    3    3    0    0 -0.32703949399E+01 -0.50329982436E+01  0.26201440083E+01  0.65491762083E+01  0.00000000000E+00 0. -1.
</event>
<event>
 7    1  0.4477737E-009  0.4778728E+02  0.7816164E-02  0.1312668E+00
        -11   -1    0    0    0    0  0.00000000000E+00  0.00000000000E+00  0.45593999997E+02  0.45594000000E+02  0.51100000000E-03 0.  1.
         11   -1    0    0    0    0 -0.00000000000E+00 -0.00000000000E+00 -0.45593999997E+02  0.45594000000E+02  0.51100000000E-03 0. -1.
    9900012    2    1    2    0    0  0.41114901696E+02 -0.10735696449E+02  0.88279218123E+01  0.47787279693E+02  0.20000039430E+02 0.  0.
         12    1    1    2    0    0 -0.41114901696E+02  0.10735696449E+02 -0.88279218123E+01  0.43400720307E+02  0.00000000000E+00 0. -1.
         11    1    3    3    0    0  0.41267636366E+01 -0.28492375064E+01 -0.22704047455E+01  0.55048224722E+01  0.51100000000E-03 0. -1.
        -11    1    3    3    0    0  0.33088141780E+01 -0.30462432100E+01  0.65629894372E+01  0.79561724197E+01  0.51100000000E-03 0.  1.
        -12    1    3    3    0    0  0.33679323881E+02 -0.48402157322E+01  0.45353371206E+01  0.34326284801E+02  0.00000000000E+00 0.  1.
</event>
<event>
 7    1  0.4477737E-009  0.4778729E+02  0.7816164E-02  0.1312668E+00
        -11   -1    0    0    0    0  0.00000000000E+00  0.00000000000E+00  0.45593999997E+02  0.45594000000E+02  0.51100000000E-03 0. -1.
         11   -1    0    0    0    0 -0.00000000000E+00 -0.00000000000E+00 -0.45593999997E+02  0.45594000000E+02  0.51100000000E-03 0.  1.
    9900012    2    1    2    0    0  0.33372050677E+02  0.26196043785E+02 -0.91484855843E+01  0.47787294189E+02  0.20000105524E+02 0.  0.
         12    1    1    2    0    0 -0.33372050677E+02 -0.26196043785E+02  0.91484855843E+01  0.43400705811E+02  0.00000000000E+00 0. -1.
         11    1    3    3    0    0  0.15577080279E+02  0.19335006115E+02 -0.89587953063E+01  0.26395982745E+02  0.51100000000E-03 0.  1.
        -11    1    3    3    0    0  0.65219708443E+01 -0.98679896492E+00 -0.31972234329E+01  0.73302192213E+01  0.51100000000E-03 0. -1.
         12    1    3    3    0    0  0.11272999555E+02  0.78478366356E+01  0.30075331550E+01  0.14061092223E+02  0.00000000000E+00 0. -1.
</event>
<event>
 7    1  0.4477737E-009  0.4778727E+02  0.7816164E-02  0.1312668E+00
        -11   -1    0    0    0    0  0.00000000000E+00  0.00000000000E+00  0.45593999997E+02  0.45594000000E+02  0.51100000000E-03 0. -1.
         11   -1    0    0    0    0 -0.00000000000E+00 -0.00000000000E+00 -0.45593999997E+02  0.45594000000E+02  0.51100000000E-03 0.  1.
    9900012    2    1    2    0    0  0.22603326058E+02 -0.10941215902E+02 -0.35397782067E+02  0.47787268098E+02  0.19999986568E+02 0.  0.
         12    1    1    2    0    0 -0.22603326058E+02  0.10941215902E+02  0.35397782067E+02  0.43400731902E+02  0.00000000000E+00 0. -1.
         11    1    3    3    0    0  0.68933778855E+01  0.71315915227E+00 -0.50937320720E+01  0.86007767865E+01  0.51100000000E-03 0. -1.
        -11    1    3    3    0    0  0.12955145467E+02 -0.11200765416E+02 -0.31726117066E+02  0.36053286179E+02  0.51100000000E-03 0.  1.
        -12    1    3    3    0    0  0.27548027055E+01 -0.45360963840E+00  0.14220670707E+01  0.31332051327E+01  0.00000000000E+00 0.  1.
</event>
<event>
 7    1  0.4477737E-009  0.4778727E+02  0.7816164E-02  0.1312668E+00
        -11   -1    0    0    0    0  0.00000000000E+00  0.00000000000E+00  0.45593999997E+02  0.45594000000E+02  0.51100000000E-03 0.  1.
         11   -1    0    0    0    0 -0.00000000000E+00 -0.00000000000E+00 -0.45593999997E+02  0.45594000000E+02  0.51100000000E-03 0. -1.
    9900012    2    1    2    0    0 -0.34926781590E+02 -0.25303146643E+02 -0.48470253202E+01  0.47787274698E+02  0.20000016658E+02 0.  0.
         12    1    1    2    0    0  0.34926781590E+02  0.25303146643E+02  0.48470253202E+01  0.43400725302E+02  0.00000000000E+00 0. -1.
         11    1    3    3    0    0 -0.87609462574E+01 -0.74334300079E+01 -0.92308917897E+01  0.14738365734E+02  0.51100000000E-03 0. -1.
        -11    1    3    3    0    0 -0.12145736144E+02 -0.10622548499E+02  0.59304009873E+01  0.17190901641E+02  0.51100000000E-03 0.  1.
         12    1    3    3    0    0 -0.14020099189E+02 -0.72471681363E+01 -0.15465345178E+01  0.15858007324E+02  0.00000000000E+00 0. -1.
</event>
<event>
 7    1  0.4477737E-009  0.4778727E+02  0.7816164E-02  0.1312668E+00
        -11   -1    0    0    0    0  0.00000000000E+00  0.00000000000E+00  0.45593999997E+02  0.45594000000E+02  0.51100000000E-03 0.  1.
         11   -1    0    0    0    0 -0.00000000000E+00 -0.00000000000E+00 -0.45593999997E+02  0.45594000000E+02  0.51100000000E-03 0. -1.
    9900012    2    1    2    0    0 -0.29285069488E+02 -0.14480288052E+02  0.28571476388E+02  0.47787270744E+02  0.19999998630E+02 0.  0.
         12    1    1    2    0    0  0.29285069488E+02  0.14480288052E+02 -0.28571476388E+02  0.43400729256E+02  0.00000000000E+00 0. -1.
         11    1    3    3    0    0  0.21573697764E+01 -0.66587436283E-01  0.59387030034E+00  0.22386068064E+01  0.51100000000E-03 0. -1.
        -11    1    3    3    0    0 -0.27475085629E+02 -0.15732134750E+02  0.25760494126E+02  0.40816460552E+02  0.51100000000E-03 0.  1.
        -12    1    3    3    0    0 -0.39673536351E+01  0.13184341345E+01  0.22171119625E+01  0.47322033860E+01  0.00000000000E+00 0.  1.
</event>
<event>
 7    1  0.4477737E-009  0.4778727E+02  0.7816164E-02  0.1312668E+00
        -11   -1    0    0    0    0  0.00000000000E+00  0.00000000000E+00  0.45593999997E+02  0.45594000000E+02  0.51100000000E-03 0. -1.
         11   -1    0    0    0    0 -0.00000000000E+00 -0.00000000000E+00 -0.45593999997E+02  0.45594000000E+02  0.51100000000E-03 0.  1.
    9900012    2    1    2    0    0 -0.29882250319E+02  0.30211741435E+02  0.88275229098E+01  0.47787269990E+02  0.19999995195E+02 0.  0.
         12    1    1    2    0    0  0.29882250319E+02 -0.30211741435E+02 -0.88275229098E+01  0.43400730010E+02  0.00000000000E+00 0. -1.
         11    1    3    3    0    0 -0.14566280784E+02  0.22989869389E+02  0.11961272372E+02  0.29728482427E+02  0.51100000000E-03 0. -1.
        -11    1    3    3    0    0 -0.81124855149E+01  0.58016003757E+01 -0.38301306964E+01  0.10683673973E+02  0.51100000000E-03 0.  1.
        -12    1    3    3    0    0 -0.72034840201E+01  0.14202716696E+01  0.69638123404E+00  0.73751135901E+01  0.00000000000E+00 0.  1.
</event>
<event>
 7    1  0.4477737E-009  0.4778726E+02  0.7816164E-02  0.1312668E+00
        -11   -1    0    0    0    0  0.00000000000E+00  0.00000000000E+00  0.45593999997E+02  0.45594000000E+02  0.51100000000E-03 0.  1.
         11   -1    0    0    0    0 -0.00000000000E+00 -0.00000000000E+00 -0.45593999997E+02  0.45594000000E+02  0.51100000000E-03 0. -1.
    9900012    2    1    2    0    0  0.91068421784E+00 -0.40830188804E+02 -0.14686394979E+02  0.47787264281E+02  0.19999969163E+02 0.  0.
         12    1    1    2    0    0 -0.91068421784E+00  0.40830188804E+02  0.14686394979E+02  0.43400735719E+02  0.00000000000E+00 0. -1.
         11    1    3    3    0    0  0.28416773127E+01 -0.28228931556E+01 -0.25084559621E+01  0.47261196866E+01  0.51100000000E-03 0. -1.
        -11    1    3    3    0    0 -0.57862344445E+01 -0.80928150460E+01 -0.76749281142E+01  0.12564978561E+02  0.51100000000E-03 0.  1.
        -12    1    3    3    0    0  0.38552413496E+01 -0.29914480602E+02 -0.45030109022E+01  0.30496166033E+02  0.00000000000E+00 0.  1.
</event>
<event>
 7    1  0.4477737E-009  0.4778727E+02  0.7816164E-02  0.1312668E+00
        -11   -1    0    0    0    0  0.00000000000E+00  0.00000000000E+00  0.45593999997E+02  0.45594000000E+02  0.51100000000E-03 0.  1.
         11   -1    0    0    0    0 -0.00000000000E+00 -0.00000000000E+00 -0.45593999997E+02  0.45594000000E+02  0.51100000000E-03 0. -1.
    9900012    2    1    2    0    0  0.82184803831E+01 -0.50949833078E+01  0.42309820672E+02  0.47787271895E+02  0.20000003879E+02 0.  0.
         12    1    1    2    0    0 -0.82184803831E+01  0.50949833078E+01 -0.42309820672E+02  0.43400728105E+02  0.00000000000E+00 0. -1.
         11    1    3    3    0    0  0.23519049239E+01 -0.88781695085E-01 -0.14094927825E+01  0.27433572727E+01  0.51100000000E-03 0. -1.
        -11    1    3    3    0    0  0.70539433491E+01 -0.60097326252E+01  0.36374583071E+02  0.37536452907E+02  0.51100000000E-03 0.  1.
         12    1    3    3    0    0 -0.11873678899E+01  0.10035310125E+01  0.73447303837E+01  0.75074617154E+01  0.00000000000E+00 0. -1.
</event>
<event>
 7    1  0.4477737E-009  0.4778726E+02  0.7816164E-02  0.1312668E+00
        -11   -1    0    0    0    0  0.00000000000E+00  0.00000000000E+00  0.45593999997E+02  0.45594000000E+02  0.51100000000E-03 0.  1.
         11   -1    0    0    0    0 -0.00000000000E+00 -0.00000000000E+00 -0.45593999997E+02  0.45594000000E+02  0.51100000000E-03 0. -1.
    9900012    2    1    2    0    0 -0.33697358073E+02 -0.20465511632E+02  0.18145928114E+02  0.47787264815E+02  0.19999971599E+02 0.  0.
         12    1    1    2    0    0  0.33697358073E+02  0.20465511632E+02 -0.18145928114E+02  0.43400735185E+02  0.00000000000E+00 0. -1.
         11    1    3    3    0    0  0.23084845278E+01 -0.58181030179E+00  0.39150698460E+00  0.24126504145E+01  0.51100000000E-03 0. -1.
        -11    1    3    3    0    0 -0.26994209746E+02 -0.11146927622E+02  0.12355469643E+02  0.31711180766E+02  0.51100000000E-03 0.  1.
         12    1    3    3    0    0 -0.90116328546E+01 -0.87367737082E+01  0.53989514870E+01  0.13663433635E+02  0.00000000000E+00 0. -1.
</event>
<event>
 7    1  0.4477737E-009  0.4778727E+02  0.7816164E-02  0.1312668E+00
        -11   -1    0    0    0    0  0.00000000000E+00  0.00000000000E+00  0.45593999997E+02  0.45594000000E+02  0.51100000000E-03 0. -1.
         11   -1    0    0    0    0 -0.00000000000E+00 -0.00000000000E+00 -0.45593999997E+02  0.45594000000E+02  0.51100000000E-03 0.  1.
    9900012    2    1    2    0    0 -0.41774686360E+02  0.73814636500E+01 -0.91658506902E+01  0.47787271378E+02  0.20000001519E+02 0.  0.
         12    1    1    2    0    0  0.41774686360E+02 -0.73814636500E+01  0.91658506902E+01  0.43400728622E+02  0.00000000000E+00 0. -1.
         11    1    3    3    0    0 -0.16532268512E+01  0.30722842695E+01 -0.51206238301E+01  0.61961986996E+01  0.51100000000E-03 0. -1.
        -11    1    3    3    0    0 -0.27190098113E+02 -0.11247118432E+01 -0.96650118298E+00  0.27230507467E+02  0.51100000000E-03 0.  1.
        -12    1    3    3    0    0 -0.12931361396E+02  0.54338912238E+01 -0.30787256771E+01  0.14360565211E+02  0.00000000000E+00 0.  1.
</event>
<event>
 7    1  0.4477737E-009  0.4778727E+02  0.7816164E-02  0.1312668E+00
        -11   -1    0    0    0    0  0.00000000000E+00  0.00000000000E+00  0.45593999997E+02  0.45594000000E+02  0.51100000000E-03 0.  1.
         11   -1    0    0    0    0 -0.00000000000E+00 -0.00000000000E+00 -0.45593999997E+02  0.45594000000E+02  0.51100000000E-03 0. -1.
    9900012    2    1    2    0    0  0.23621820650E+02  0.34941936572E+02  0.10232007886E+02  0.47787270425E+02  0.19999997178E+02 0.  0.
         12    1    1    2    0    0 -0.23621820650E+02 -0.34941936572E+02 -0.10232007886E+02  0.43400729575E+02  0.00000000000E+00 0. -1.
         11    1    3    3    0    0  0.19589645178E+02  0.33833169180E+02  0.56674454515E+01  0.39503891874E+02  0.51100000000E-03 0. -1.
        -11    1    3    3    0    0  0.22866172378E+01 -0.55492283253E+00 -0.73158642522E+00  0.24640975429E+01  0.51100000000E-03 0.  1.
         12    1    3    3    0    0  0.17455582341E+01  0.16636902244E+01  0.52961488601E+01  0.58192810089E+01  0.00000000000E+00 0. -1.
</event>
<event>
 7    1  0.4477737E-009  0.4778727E+02  0.7816164E-02  0.1312668E+00
        -11   -1    0    0    0    0  0.00000000000E+00  0.00000000000E+00  0.45593999997E+02  0.45594000000E+02  0.51100000000E-03 0.  1.
         11   -1    0    0    0    0 -0.00000000000E+00 -0.00000000000E+00 -0.45593999997E+02  0.45594000000E+02  0.51100000000E-03 0. -1.
    9900012    2    1    2    0    0  0.39974993230E+01 -0.33548108686E+02  0.27242757202E+02  0.47787269393E+02  0.19999992471E+02 0.  0.
         12    1    1    2    0    0 -0.39974993230E+01  0.33548108686E+02 -0.27242757202E+02  0.43400730607E+02  0.00000000000E+00 0. -1.
         11    1    3    3    0    0  0.67603652932E+01 -0.99744695132E+01  0.17809971491E+02  0.21503201290E+02  0.51100000000E-03 0. -1.
        -11    1    3    3    0    0 -0.42622218326E+01 -0.10040838977E+02  0.45596497845E+01  0.11822664198E+02  0.51100000000E-03 0.  1.
         12    1    3    3    0    0  0.14993558624E+01 -0.13532800196E+02  0.48731359264E+01  0.14461403905E+02  0.00000000000E+00 0. -1.
</event>
<event>
 7    1  0.4477737E-009  0.4778727E+02  0.7816164E-02  0.1312668E+00
        -11   -1    0    0    0    0  0.00000000000E+00  0.00000000000E+00  0.45593999997E+02  0.45594000000E+02  0.51100000000E-03 0.  1.
         11   -1    0    0    0    0 -0.00000000000E+00 -0.00000000000E+00 -0.45593999997E+02  0.45594000000E+02  0.51100000000E-03 0. -1.
    9900012    2    1    2    0    0 -0.98469679322E+01 -0.16857670809E+02  0.38761828766E+02  0.47787271759E+02  0.20000003259E+02 0.  0.
         12    1    1    2    0    0  0.98469679322E+01  0.16857670809E+02 -0.38761828766E+02  0.43400728241E+02  0.00000000000E+00 0. -1.
         11    1    3    3    0    0 -0.50454313448E+01 -0.17775127836E+02  0.20026814720E+02  0.27248575286E+02  0.51100000000E-03 0. -1.
        -11    1    3    3    0    0 -0.43373189403E+01  0.17892979918E+01  0.53444608016E+01  0.71117638047E+01  0.51100000000E-03 0.  1.
        -12    1    3    3    0    0 -0.46421764706E+00 -0.87184096470E+00  0.13390553244E+02  0.13426932668E+02  0.00000000000E+00 0.  1.
</event>
<event>
 7    1  0.4477737E-009  0.4778727E+02  0.7816164E-02  0.1312668E+00
        -11   -1    0    0    0    0  0.00000000000E+00  0.00000000000E+00  0.45593999997E+02  0.45594000000E+02  0.51100000000E-03 0. -1.
         11   -1    0    0    0    0 -0.00000000000E+00 -0.00000000000E+00 -0.45593999997E+02  0.45594000000E+02  0.51100000000E-03 0.  1.
    9900012    2    1    2    0    0  0.16955928889E+02  0.30628078902E+02 -0.25652303355E+02  0.47787269486E+02  0.19999992896E+02 0.  0.
         12    1    1    2    0    0 -0.16955928889E+02 -0.30628078902E+02  0.25652303355E+02  0.43400730514E+02  0.00000000000E+00 0. -1.
         11    1    3    3    0    0  0.48999894712E+01  0.38444123605E+01 -0.10627680978E+02  0.12318157591E+02  0.51100000000E-03 0. -1.
        -11    1    3    3    0    0  0.37753212773E+01  0.19115933011E+02 -0.44140390585E+01  0.19978881018E+02  0.51100000000E-03 0.  1.
        -12    1    3    3    0    0  0.82806181404E+01  0.76677335298E+01 -0.10610583318E+02  0.15490230877E+02  0.00000000000E+00 0.  1.
</event>
<event>
 7    1  0.4477737E-009  0.4778727E+02  0.7816164E-02  0.1312668E+00
        -11   -1    0    0    0    0  0.00000000000E+00  0.00000000000E+00  0.45593999997E+02  0.45594000000E+02  0.51100000000E-03 0.  1.
         11   -1    0    0    0    0 -0.00000000000E+00 -0.00000000000E+00 -0.45593999997E+02  0.45594000000E+02  0.51100000000E-03 0. -1.
    9900012    2    1    2    0    0  0.37589744542E+02 -0.21558105263E+02 -0.24253127158E+01  0.47787274902E+02  0.20000017587E+02 0.  0.
         12    1    1    2    0    0 -0.37589744542E+02  0.21558105263E+02  0.24253127158E+01  0.43400725098E+02  0.00000000000E+00 0. -1.
         11    1    3    3    0    0  0.13858646534E+02 -0.76680794334E+01  0.57699129799E+01  0.16856850892E+02  0.51100000000E-03 0. -1.
        -11    1    3    3    0    0  0.97535386103E+01 -0.78748971239E+01 -0.93960113387E+01  0.15666223204E+02  0.51100000000E-03 0.  1.
        -12    1    3    3    0    0  0.13977559398E+02 -0.60151287054E+01  0.12007856430E+01  0.15264200806E+02  0.00000000000E+00 0.  1.
</event>
<event>
 7    1  0.4477737E-009  0.4778728E+02  0.7816164E-02  0.1312668E+00
        -11   -1    0    0    0    0  0.00000000000E+00  0.00000000000E+00  0.45593999997E+02  0.45594000000E+02  0.51100000000E-03 0.  1.
         11   -1    0    0    0    0 -0.00000000000E+00 -0.00000000000E+00 -0.45593999997E+02  0.45594000000E+02  0.51100000000E-03 0. -1.
    9900012    2    1    2    0    0  0.26446362690E+02 -0.13548639352E+02  0.31633007124E+02  0.47787275726E+02  0.20000021343E+02 0.  0.
         12    1    1    2    0    0 -0.26446362690E+02  0.13548639352E+02 -0.31633007124E+02  0.43400724274E+02  0.00000000000E+00 0. -1.
         11    1    3    3    0    0  0.11653487578E+01 -0.32348541211E+01 -0.23488961368E+01  0.41640884038E+01  0.51100000000E-03 0. -1.
        -11    1    3    3    0    0  0.18377323364E+02 -0.81346400832E+01  0.25647548085E+02  0.32583663182E+02  0.51100000000E-03 0.  1.
         12    1    3    3    0    0  0.69036905682E+01 -0.21791451474E+01  0.83343551758E+01  0.11039524140E+02  0.00000000000E+00 0. -1.
</event>
<event>
 7    1  0.4477737E-009  0.4778728E+02  0.7816164E-02  0.1312668E+00
        -11   -1    0    0    0    0  0.00000000000E+00  0.00000000000E+00  0.45593999997E+02  0.45594000000E+02  0.51100000000E-03 0.  1.
         11   -1    0    0    0    0 -0.00000000000E+00 -0.00000000000E+00 -0.45593999997E+02  0.45594000000E+02  0.51100000000E-03 0. -1.
    9900012    2    1    2    0    0  0.76694969701E+01  0.40711539901E+02  0.12937232764E+02  0.47787278157E+02  0.20000032430E+02 0.  0.
         12    1    1    2    0    0 -0.76694969701E+01 -0.40711539901E+02 -0.12937232764E+02  0.43400721843E+02  0.00000000000E+00 0. -1.
         11    1    3    3    0    0 -0.16451852950E+01  0.77390368672E+00 -0.22403627029E+01  0.28852706758E+01  0.51100000000E-03 0. -1.
        -11    1    3    3    0    0  0.29328245709E+01  0.31628418920E+02  0.11972903512E+02  0.33945673688E+02  0.51100000000E-03 0.  1.
         12    1    3    3    0    0  0.63818576942E+01  0.83092172942E+01  0.32046919553E+01  0.10956333794E+02  0.00000000000E+00 0. -1.
</event>
<event>
 7    1  0.4477737E-009  0.4778727E+02  0.7816164E-02  0.1312668E+00
        -11   -1    0    0    0    0  0.00000000000E+00  0.00000000000E+00  0.45593999997E+02  0.45594000000E+02  0.51100000000E-03 0.  1.
         11   -1    0    0    0    0 -0.00000000000E+00 -0.00000000000E+00 -0.45593999997E+02  0.45594000000E+02  0.51100000000E-03 0. -1.
    9900012    2    1    2    0    0  0.17754506894E+02 -0.34789252823E+02  0.18923758837E+02  0.47787271025E+02  0.19999999911E+02 0.  0.
         12    1    1    2    0    0 -0.17754506894E+02  0.34789252823E+02 -0.18923758837E+02  0.43400728975E+02  0.00000000000E+00 0. -1.
         11    1    3    3    0    0 -0.50629303387E+00  0.19361227234E+01  0.14410864510E+01  0.24660969682E+01  0.51100000000E-03 0. -1.
        -11    1    3    3    0    0  0.35635609060E+00 -0.18537744680E+01  0.29746797280E+01  0.35230936954E+01  0.51100000000E-03 0.  1.
         12    1    3    3    0    0  0.17904443837E+02 -0.34871601079E+02  0.14507992658E+02  0.41798080361E+02  0.00000000000E+00 0. -1.
</event>
<event>
 7    1  0.4477737E-009  0.4778727E+02  0.7816164E-02  0.1312668E+00
        -11   -1    0    0    0    0  0.00000000000E+00  0.00000000000E+00  0.45593999997E+02  0.45594000000E+02  0.51100000000E-03 0. -1.
         11   -1    0    0    0    0 -0.00000000000E+00 -0.00000000000E+00 -0.45593999997E+02  0.45594000000E+02  0.51100000000E-03 0.  1.
    9900012    2    1    2    0    0 -0.41672142824E+02  0.34142393741E+01 -0.11636095882E+02  0.47787271372E+02  0.20000001493E+02 0.  0.
         12    1    1    2    0    0  0.41672142824E+02 -0.34142393741E+01  0.11636095882E+02  0.43400728628E+02  0.00000000000E+00 0. -1.
         11    1    3    3    0    0 -0.30107911055E+01  0.51667718047E+01 -0.27178382154E+01  0.65686405587E+01  0.51100000000E-03 0. -1.
        -11    1    3    3    0    0 -0.28579144744E+02  0.19049303316E+01 -0.25749433084E+01  0.28758070296E+02  0.51100000000E-03 0.  1.
        -12    1    3    3    0    0 -0.10082206975E+02 -0.36574627622E+01 -0.63433143587E+01  0.12460560517E+02  0.00000000000E+00 0.  1.
</event>
<event>
 7    1  0.4477737E-009  0.4778727E+02  0.7816164E-02  0.1312668E+00
        -11   -1    0    0    0    0  0.00000000000E+00  0.00000000000E+00  0.45593999997E+02  0.45594000000E+02  0.51100000000E-03 0.  1.
         11   -1    0    0    0    0 -0.00000000000E+00 -0.00000000000E+00 -0.45593999997E+02  0.45594000000E+02  0.51100000000E-03 0. -1.
    9900012    2    1    2    0    0 -0.30484966121E+02 -0.90449426374E+00  0.30878343638E+02  0.47787269878E+02  0.19999994684E+02 0.  0.
         12    1    1    2    0    0  0.30484966121E+02  0.90449426374E+00 -0.30878343638E+02  0.43400730122E+02  0.00000000000E+00 0. -1.
         11    1    3    3    0    0 -0.51607814085E+01 -0.35479470676E+00  0.16466658759E+02  0.17260080967E+02  0.51100000000E-03 0. -1.
        -11    1    3    3    0    0 -0.63462985192E+01  0.26187063732E+01  0.72822910429E+01  0.10008241157E+02  0.51100000000E-03 0.  1.
         12    1    3    3    0    0 -0.18977886193E+02 -0.31684059302E+01  0.71293938365E+01  0.20518947755E+02  0.00000000000E+00 0. -1.
</event>
<event>
 7    1  0.4477737E-009  0.4778727E+02  0.7816164E-02  0.1312668E+00
        -11   -1    0    0    0    0  0.00000000000E+00  0.00000000000E+00  0.45593999997E+02  0.45594000000E+02  0.51100000000E-03 0.  1.
         11   -1    0    0    0    0 -0.00000000000E+00 -0.00000000000E+00 -0.45593999997E+02  0.45594000000E+02  0.51100000000E-03 0. -1.
    9900012    2    1    2    0    0 -0.36751925836E+01 -0.29300250841E+02  0.31805840184E+02  0.47787271784E+02  0.20000003371E+02 0.  0.
         12    1    1    2    0    0  0.36751925836E+01  0.29300250841E+02 -0.31805840184E+02  0.43400728216E+02  0.00000000000E+00 0. -1.
         11    1    3    3    0    0 -0.19559070988E+01 -0.24775503180E+01  0.21808606661E+01  0.38366628290E+01  0.51100000000E-03 0. -1.
        -11    1    3    3    0    0  0.40400996704E+01 -0.56889965244E+01 -0.15865833541E+00  0.69794168475E+01  0.51100000000E-03 0.  1.
        -12    1    3    3    0    0 -0.57593851552E+01 -0.21133703999E+02  0.29783637853E+02  0.36971192107E+02  0.00000000000E+00 0.  1.
</event>
<event>
 7    1  0.5252990E-009  0.4778727E+02  0.7816164E-02  0.1312668E+00
        -11   -1    0    0    0    0  0.00000000000E+00  0.00000000000E+00  0.45593999997E+02  0.45594000000E+02  0.51100000000E-03 0. -1.
         11   -1    0    0    0    0 -0.00000000000E+00 -0.00000000000E+00 -0.45593999997E+02  0.45594000000E+02  0.51100000000E-03 0.  1.
    9900012    2    1    2    0    0 -0.19843771561E+02  0.35055699578E+02 -0.16153826368E+02  0.47787269027E+02  0.19999990800E+02 0.  0.
         12    1    1    2    0    0  0.19843771561E+02 -0.35055699578E+02  0.16153826368E+02  0.43400730973E+02  0.00000000000E+00 0. -1.
         11    1    3    3    0    0 -0.16677582291E+02  0.26878340942E+02 -0.66893288044E+01  0.32331626668E+02  0.51100000000E-03 0. -1.
        -11    1    3    3    0    0 -0.23565144570E+01  0.85706225179E+01 -0.10710536308E+02  0.13918488387E+02  0.51100000000E-03 0.  1.
         12    1    3    3    0    0 -0.80967481258E+00 -0.39326388124E+00  0.12460387436E+01  0.15371539718E+01  0.00000000000E+00 0. -1.
</event>
<event>
 7    1  0.4477737E-009  0.4778727E+02  0.7816164E-02  0.1312668E+00
        -11   -1    0    0    0    0  0.00000000000E+00  0.00000000000E+00  0.45593999997E+02  0.45594000000E+02  0.51100000000E-03 0.  1.
         11   -1    0    0    0    0 -0.00000000000E+00 -0.00000000000E+00 -0.45593999997E+02  0.45594000000E+02  0.51100000000E-03 0. -1.
    9900012    2    1    2    0    0 -0.34614778887E+02  0.25946247165E+02  0.34975361133E+01  0.47787269382E+02  0.19999992420E+02 0.  0.
         12    1    1    2    0    0  0.34614778887E+02 -0.25946247165E+02 -0.34975361133E+01  0.43400730618E+02  0.00000000000E+00 0. -1.
         11    1    3    3    0    0 -0.29918573259E+01 -0.15034978207E+01 -0.13281422062E+01  0.36021768330E+01  0.51100000000E-03 0. -1.
        -11    1    3    3    0    0 -0.27003640758E+02  0.24551107773E+02  0.86715253973E+01  0.37511982886E+02  0.51100000000E-03 0.  1.
        -12    1    3    3    0    0 -0.46192808035E+01  0.28986372122E+01 -0.38458470778E+01  0.66731096631E+01  0.00000000000E+00 0.  1.
</event>
<event>
 7    1  0.4477737E-009  0.4778727E+02  0.7816164E-02  0.1312668E+00
        -11   -1    0    0    0    0  0.00000000000E+00  0.00000000000E+00  0.45593999997E+02  0.45594000000E+02  0.51100000000E-03 0. -1.
         11   -1    0    0    0    0 -0.00000000000E+00 -0.00000000000E+00 -0.45593999997E+02  0.45594000000E+02  0.51100000000E-03 0.  1.
    9900012    2    1    2    0    0  0.21900830821E+02  0.35160285929E+02 -0.12951109207E+02  0.47787270433E+02  0.19999997211E+02 0.  0.
         12    1    1    2    0    0 -0.21900830821E+02 -0.35160285929E+02  0.12951109207E+02  0.43400729567E+02  0.00000000000E+00 0. -1.
         11    1    3    3    0    0  0.24895509242E+01  0.14015375558E+02 -0.69756063916E+01  0.15852056668E+02  0.51100000000E-03 0. -1.
        -11    1    3    3    0    0  0.21026221606E+02  0.20858196104E+02 -0.50272388065E+01  0.30040630320E+02  0.51100000000E-03 0.  1.
        -12    1    3    3    0    0 -0.16149417097E+01  0.28671426810E+00 -0.94826400901E+00  0.18945834444E+01  0.00000000000E+00 0.  1.
</event>
<event>
 7    1  0.4477737E-009  0.4778726E+02  0.7816164E-02  0.1312668E+00
        -11   -1    0    0    0    0  0.00000000000E+00  0.00000000000E+00  0.45593999997E+02  0.45594000000E+02  0.51100000000E-03 0.  1.
         11   -1    0    0    0    0 -0.00000000000E+00 -0.00000000000E+00 -0.45593999997E+02  0.45594000000E+02  0.51100000000E-03 0. -1.
    9900012    2    1    2    0    0  0.26205199111E+02  0.73601057422E+01  0.33804440528E+02  0.47787264795E+02  0.19999971504E+02 0.  0.
         12    1    1    2    0    0 -0.26205199111E+02 -0.73601057422E+01 -0.33804440528E+02  0.43400735205E+02  0.00000000000E+00 0. -1.
         11    1    3    3    0    0  0.54890038336E+00  0.67117053903E+01  0.92539138848E+01  0.11444789353E+02  0.51100000000E-03 0. -1.
        -11    1    3    3    0    0  0.14870749899E+02  0.15028273522E+01  0.91617768124E+01  0.17530996755E+02  0.51100000000E-03 0.  1.
         12    1    3    3    0    0  0.10785548828E+02 -0.85442700038E+00  0.15388749831E+02  0.18811478687E+02  0.00000000000E+00 0. -1.
</event>
<event>
 7    1  0.4477737E-009  0.4778727E+02  0.7816164E-02  0.1312668E+00
        -11   -1    0    0    0    0  0.00000000000E+00  0.00000000000E+00  0.45593999997E+02  0.45594000000E+02  0.51100000000E-03 0.  1.
         11   -1    0    0    0    0 -0.00000000000E+00 -0.00000000000E+00 -0.45593999997E+02  0.45594000000E+02  0.51100000000E-03 0. -1.
    9900012    2    1    2    0    0 -0.18632125014E+02  0.32242264944E+02  0.22291330191E+02  0.47787272668E+02  0.20000007404E+02 0.  0.
         12    1    1    2    0    0  0.18632125014E+02 -0.32242264944E+02 -0.22291330191E+02  0.43400727332E+02  0.00000000000E+00 0. -1.
         11    1    3    3    0    0 -0.14170986501E+02  0.82263644633E+01  0.10278237313E+02  0.19342494493E+02  0.51100000000E-03 0. -1.
        -11    1    3    3    0    0 -0.15729624743E+01  0.13365299523E+02  0.10966509355E+02  0.17360004896E+02  0.51100000000E-03 0.  1.
         12    1    3    3    0    0 -0.28881760382E+01  0.10650600957E+02  0.10465835229E+01  0.11084773279E+02  0.00000000000E+00 0. -1.
</event>
<event>
 7    1  0.4477737E-009  0.4778727E+02  0.7816164E-02  0.1312668E+00
        -11   -1    0    0    0    0  0.00000000000E+00  0.00000000000E+00  0.45593999997E+02  0.45594000000E+02  0.51100000000E-03 0.  1.
         11   -1    0    0    0    0 -0.00000000000E+00 -0.00000000000E+00 -0.45593999997E+02  0.45594000000E+02  0.51100000000E-03 0. -1.
    9900012    2    1    2    0    0 -0.29276475138E+02 -0.79509719649E+01  0.31036967583E+02  0.47787270646E+02  0.19999998184E+02 0.  0.
         12    1    1    2    0    0  0.29276475138E+02  0.79509719649E+01 -0.31036967583E+02  0.43400729354E+02  0.00000000000E+00 0. -1.
         11    1    3    3    0    0 -0.14831772164E+01 -0.92290840418E+00 -0.96715085448E+00  0.19967362405E+01  0.51100000000E-03 0. -1.
        -11    1    3    3    0    0 -0.47511905666E+01 -0.51490030818E+01  0.16578422476E+02  0.17998059245E+02  0.51100000000E-03 0.  1.
        -12    1    3    3    0    0 -0.23042107355E+02 -0.18790604790E+01  0.15425695961E+02  0.27792475160E+02  0.00000000000E+00 0.  1.
</event>
<event>
 7    1  0.4477737E-009  0.4778727E+02  0.7816164E-02  0.1312668E+00
        -11   -1    0    0    0    0  0.00000000000E+00  0.00000000000E+00  0.45593999997E+02  0.45594000000E+02  0.51100000000E-03 0.  1.
         11   -1    0    0    0    0 -0.00000000000E+00 -0.00000000000E+00 -0.45593999997E+02  0.45594000000E+02  0.51100000000E-03 0. -1.
    9900012    2    1    2    0    0  0.25340939647E+01 -0.25470681371E+02  0.35049199024E+02  0.47787267357E+02  0.19999983189E+02 0.  0.
         12    1    1    2    0    0 -0.25340939647E+01  0.25470681371E+02 -0.35049199024E+02  0.43400732643E+02  0.00000000000E+00 0. -1.
         11    1    3    3    0    0 -0.74168123511E+01 -0.11854353933E+02  0.91137649305E+01  0.16691181027E+02  0.51100000000E-03 0. -1.
        -11    1    3    3    0    0  0.58783835728E+01 -0.91769333151E+01  0.14152621309E+02  0.17862479914E+02  0.51100000000E-03 0.  1.
         12    1    3    3    0    0  0.40725227430E+01 -0.44393941231E+01  0.11782812784E+02  0.13233606416E+02  0.00000000000E+00 0. -1.
</event>
<event>
 7    1  0.4477737E-009  0.4778727E+02  0.7816164E-02  0.1312668E+00
        -11   -1    0    0    0    0  0.00000000000E+00  0.00000000000E+00  0.45593999997E+02  0.45594000000E+02  0.51100000000E-03 0.  1.
         11   -1    0    0    0    0 -0.00000000000E+00 -0.00000000000E+00 -0.45593999997E+02  0.45594000000E+02  0.51100000000E-03 0. -1.
    9900012    2    1    2    0    0 -0.27726968757E+02 -0.35948712518E+00  0.33387263614E+02  0.47787269602E+02  0.19999993423E+02 0.  0.
         12    1    1    2    0    0  0.27726968757E+02  0.35948712518E+00 -0.33387263614E+02  0.43400730398E+02  0.00000000000E+00 0. -1.
         11    1    3    3    0    0 -0.40992499828E+01  0.55585426943E+01  0.43288864298E+01  0.81511045441E+01  0.51100000000E-03 0. -1.
        -11    1    3    3    0    0 -0.14518702484E+02  0.17671151911E+01  0.12530257636E+02  0.19259355509E+02  0.51100000000E-03 0.  1.
         12    1    3    3    0    0 -0.91090162902E+01 -0.76851450105E+01  0.16528119548E+02  0.20376809549E+02  0.00000000000E+00 0. -1.
</event>
<event>
 7    1  0.4477737E-009  0.4778726E+02  0.7816164E-02  0.1312668E+00
        -11   -1    0    0    0    0  0.00000000000E+00  0.00000000000E+00  0.45593999997E+02  0.45594000000E+02  0.51100000000E-03 0.  1.
         11   -1    0    0    0    0 -0.00000000000E+00 -0.00000000000E+00 -0.45593999997E+02  0.45594000000E+02  0.51100000000E-03 0. -1.
    9900012    2    1    2    0    0  0.32857029094E+02 -0.89065540632E+01  0.26920503578E+02  0.47787256008E+02  0.19999931445E+02 0.  0.
         12    1    1    2    0    0 -0.32857029094E+02  0.89065540632E+01 -0.26920503578E+02  0.43400743992E+02  0.00000000000E+00 0. -1.
         11    1    3    3    0    0  0.12409824804E+02  0.23950812174E+01  0.11787079727E+01  0.12693680256E+02  0.51100000000E-03 0. -1.
        -11    1    3    3    0    0  0.58836538445E+01 -0.56688292739E+01  0.76176171314E+01  0.11170546044E+02  0.51100000000E-03 0.  1.
         12    1    3    3    0    0  0.14563550445E+02 -0.56328060068E+01  0.18124178473E+02  0.23923029708E+02  0.00000000000E+00 0. -1.
</event>
<event>
 7    1  0.4477737E-009  0.4778727E+02  0.7816164E-02  0.1312668E+00
        -11   -1    0    0    0    0  0.00000000000E+00  0.00000000000E+00  0.45593999997E+02  0.45594000000E+02  0.51100000000E-03 0.  1.
         11   -1    0    0    0    0 -0.00000000000E+00 -0.00000000000E+00 -0.45593999997E+02  0.45594000000E+02  0.51100000000E-03 0. -1.
    9900012    2    1    2    0    0 -0.38047956779E+01 -0.25868253683E+02  0.34640730787E+02  0.47787271340E+02  0.20000001347E+02 0.  0.
         12    1    1    2    0    0  0.38047956779E+01  0.25868253683E+02 -0.34640730787E+02  0.43400728660E+02  0.00000000000E+00 0. -1.
         11    1    3    3    0    0  0.37423299836E+01 -0.15994615977E-01  0.41720374829E+01  0.56045683647E+01  0.51100000000E-03 0. -1.
        -11    1    3    3    0    0 -0.10269043202E+02 -0.18014435584E+02  0.19833612713E+02  0.28693994689E+02  0.51100000000E-03 0.  1.
        -12    1    3    3    0    0  0.27219175409E+01 -0.78378234826E+01  0.10635080591E+02  0.13488708286E+02  0.00000000000E+00 0.  1.
</event>
<event>
 7    1  0.4477737E-009  0.4778727E+02  0.7816164E-02  0.1312668E+00
        -11   -1    0    0    0    0  0.00000000000E+00  0.00000000000E+00  0.45593999997E+02  0.45594000000E+02  0.51100000000E-03 0. -1.
         11   -1    0    0    0    0 -0.00000000000E+00 -0.00000000000E+00 -0.45593999997E+02  0.45594000000E+02  0.51100000000E-03 0.  1.
    9900012    2    1    2    0    0 -0.19160565064E+02  0.32009786503E+02 -0.22178135167E+02  0.47787269995E+02  0.19999995213E+02 0.  0.
         12    1    1    2    0    0  0.19160565064E+02 -0.32009786503E+02  0.22178135167E+02  0.43400730005E+02  0.00000000000E+00 0. -1.
         11    1    3    3    0    0  0.11064648458E+01  0.10424112927E+01 -0.44123111472E+00  0.15828995280E+01  0.51100000000E-03 0. -1.
        -11    1    3    3    0    0  0.20005251412E+01  0.87978814882E+01 -0.25031556298E+01  0.93632584013E+01  0.51100000000E-03 0.  1.
        -12    1    3    3    0    0 -0.22267555051E+02  0.22169493722E+02 -0.19233748423E+02  0.36841112065E+02  0.00000000000E+00 0.  1.
</event>
<event>
 7    1  0.4477737E-009  0.4778727E+02  0.7816164E-02  0.1312668E+00
        -11   -1    0    0    0    0  0.00000000000E+00  0.00000000000E+00  0.45593999997E+02  0.45594000000E+02  0.51100000000E-03 0. -1.
         11   -1    0    0    0    0 -0.00000000000E+00 -0.00000000000E+00 -0.45593999997E+02  0.45594000000E+02  0.51100000000E-03 0.  1.
    9900012    2    1    2    0    0 -0.39956507407E+01  0.41422172591E+02  0.12323212329E+02  0.47787272251E+02  0.20000005501E+02 0.  0.
         12    1    1    2    0    0  0.39956507407E+01 -0.41422172591E+02 -0.12323212329E+02  0.43400727749E+02  0.00000000000E+00 0. -1.
         11    1    3    3    0    0  0.17951320333E+01  0.33928194365E+01 -0.14144036953E+01  0.40907530871E+01  0.51100000000E-03 0. -1.
        -11    1    3    3    0    0  0.57330179508E+00  0.33245464695E+02  0.90605850889E+01  0.34462788630E+02  0.51100000000E-03 0.  1.
        -12    1    3    3    0    0 -0.63640845691E+01  0.47838884598E+01  0.46770309359E+01  0.92337305339E+01  0.00000000000E+00 0.  1.
</event>
<event>
 7    1  0.4477737E-009  0.4778727E+02  0.7816164E-02  0.1312668E+00
        -11   -1    0    0    0    0  0.00000000000E+00  0.00000000000E+00  0.45593999997E+02  0.45594000000E+02  0.51100000000E-03 0. -1.
         11   -1    0    0    0    0 -0.00000000000E+00 -0.00000000000E+00 -0.45593999997E+02  0.45594000000E+02  0.51100000000E-03 0.  1.
    9900012    2    1    2    0    0  0.41640260837E+02  0.93489050670E+01 -0.78936479057E+01  0.47787273903E+02  0.20000013032E+02 0.  0.
         12    1    1    2    0    0 -0.41640260837E+02 -0.93489050670E+01  0.78936479057E+01  0.43400726097E+02  0.00000000000E+00 0. -1.
         11    1    3    3    0    0  0.11827888306E+02  0.69906532327E+01 -0.64655820046E+01  0.15184595000E+02  0.51100000000E-03 0. -1.
        -11    1    3    3    0    0  0.32533407623E+01 -0.86243001191E+00  0.40788468008E+01  0.52881946945E+01  0.51100000000E-03 0.  1.
        -12    1    3    3    0    0  0.26559031768E+02  0.32206818463E+01 -0.55069127019E+01  0.27314484208E+02  0.00000000000E+00 0.  1.
</event>
<event>
 7    1  0.4477737E-009  0.4778727E+02  0.7816164E-02  0.1312668E+00
        -11   -1    0    0    0    0  0.00000000000E+00  0.00000000000E+00  0.45593999997E+02  0.45594000000E+02  0.51100000000E-03 0. -1.
         11   -1    0    0    0    0 -0.00000000000E+00 -0.00000000000E+00 -0.45593999997E+02  0.45594000000E+02  0.51100000000E-03 0.  1.
    9900012    2    1    2    0    0  0.34686983944E+01  0.33418343725E+02 -0.27473728959E+02  0.47787270181E+02  0.19999996065E+02 0.  0.
         12    1    1    2    0    0 -0.34686983944E+01 -0.33418343725E+02  0.27473728959E+02  0.43400729819E+02  0.00000000000E+00 0. -1.
         11    1    3    3    0    0  0.29179966549E+01  0.42024162048E+01  0.10830058447E+01  0.52295227657E+01  0.51100000000E-03 0. -1.
        -11    1    3    3    0    0  0.41272252917E+00  0.31200640255E+01  0.83157970242E+00  0.32552518293E+01  0.51100000000E-03 0.  1.
        -12    1    3    3    0    0  0.13797921034E+00  0.26095863495E+02 -0.29388314506E+02  0.39302495586E+02  0.00000000000E+00 0.  1.
</event>
<event>
 7    1  0.6785272E-009  0.4778728E+02  0.7816164E-02  0.1312668E+00
        -11   -1    0    0    0    0  0.00000000000E+00  0.00000000000E+00  0.45593999997E+02  0.45594000000E+02  0.51100000000E-03 0. -1.
         11   -1    0    0    0    0 -0.00000000000E+00 -0.00000000000E+00 -0.45593999997E+02  0.45594000000E+02  0.51100000000E-03 0.  1.
    9900012    2    1    2    0    0 -0.22320407792E+02  0.71583157913E+00 -0.37214374493E+02  0.47787277796E+02  0.20000030784E+02 0.  0.
         12    1    1    2    0    0  0.22320407792E+02 -0.71583157913E+00  0.37214374493E+02  0.43400722204E+02  0.00000000000E+00 0. -1.
         11    1    3    3    0    0  0.94771522655E+00 -0.22995701008E+01 -0.42398649955E+00  0.25230837505E+01  0.51100000000E-03 0. -1.
        -11    1    3    3    0    0 -0.22032215072E+02  0.52861458304E+01 -0.27556592140E+02  0.35675308119E+02  0.51100000000E-03 0.  1.
        -12    1    3    3    0    0 -0.12359079466E+01 -0.22707441505E+01 -0.92337958540E+01  0.95888859271E+01  0.00000000000E+00 0.  1.
</event>
<event>
 7    1  0.4477737E-009  0.4778727E+02  0.7816164E-02  0.1312668E+00
        -11   -1    0    0    0    0  0.00000000000E+00  0.00000000000E+00  0.45593999997E+02  0.45594000000E+02  0.51100000000E-03 0.  1.
         11   -1    0    0    0    0 -0.00000000000E+00 -0.00000000000E+00 -0.45593999997E+02  0.45594000000E+02  0.51100000000E-03 0. -1.
    9900012    2    1    2    0    0 -0.27429806410E+02 -0.12775636108E+02  0.31112894293E+02  0.47787270180E+02  0.19999996056E+02 0.  0.
         12    1    1    2    0    0  0.27429806410E+02  0.12775636108E+02 -0.31112894293E+02  0.43400729820E+02  0.00000000000E+00 0. -1.
         11    1    3    3    0    0  0.77131499927E+00 -0.12942423692E+01 -0.73854128306E+00  0.16779253935E+01  0.51100000000E-03 0. -1.
        -11    1    3    3    0    0 -0.22377877567E+02 -0.23872715211E+01  0.20502640142E+02  0.30443828977E+02  0.51100000000E-03 0.  1.
        -12    1    3    3    0    0 -0.58232438419E+01 -0.90941222175E+01  0.11348795434E+02  0.15665515809E+02  0.00000000000E+00 0.  1.
</event>
<event>
 7    1  0.4477737E-009  0.4778727E+02  0.7816164E-02  0.1312668E+00
        -11   -1    0    0    0    0  0.00000000000E+00  0.00000000000E+00  0.45593999997E+02  0.45594000000E+02  0.51100000000E-03 0.  1.
         11   -1    0    0    0    0 -0.00000000000E+00 -0.00000000000E+00 -0.45593999997E+02  0.45594000000E+02  0.51100000000E-03 0. -1.
    9900012    2    1    2    0    0  0.41332650711E+02  0.81936394946E+01  0.10397102523E+02  0.47787268625E+02  0.19999988970E+02 0.  0.
         12    1    1    2    0    0 -0.41332650711E+02 -0.81936394946E+01 -0.10397102523E+02  0.43400731375E+02  0.00000000000E+00 0. -1.
         11    1    3    3    0    0  0.47693834119E+01 -0.39299996993E+01  0.44552498459E+01  0.76184753866E+01  0.51100000000E-03 0. -1.
        -11    1    3    3    0    0  0.33767903971E+02  0.11524807796E+02  0.26058706410E+01  0.35775453811E+02  0.51100000000E-03 0.  1.
        -12    1    3    3    0    0  0.27953633286E+01  0.59883139806E+00  0.33359820358E+01  0.43933394275E+01  0.00000000000E+00 0.  1.
</event>
<event>
 7    1  0.4477737E-009  0.4778728E+02  0.7816164E-02  0.1312668E+00
        -11   -1    0    0    0    0  0.00000000000E+00  0.00000000000E+00  0.45593999997E+02  0.45594000000E+02  0.51100000000E-03 0. -1.
         11   -1    0    0    0    0 -0.00000000000E+00 -0.00000000000E+00 -0.45593999997E+02  0.45594000000E+02  0.51100000000E-03 0.  1.
    9900012    2    1    2    0    0 -0.29507003604E+02 -0.15034713409E+02 -0.28052027696E+02  0.47787284258E+02  0.20000060247E+02 0.  0.
         12    1    1    2    0    0  0.29507003604E+02  0.15034713409E+02  0.28052027696E+02  0.43400715742E+02  0.00000000000E+00 0. -1.
         11    1    3    3    0    0 -0.10869272870E+01 -0.30351516453E+00  0.97485959001E+00  0.14912692123E+01  0.51100000000E-03 0. -1.
        -11    1    3    3    0    0 -0.28094543576E+02 -0.17357342832E+02 -0.28447319081E+02  0.43587047297E+02  0.51100000000E-03 0.  1.
        -12    1    3    3    0    0 -0.32553274191E+00  0.26261445873E+01 -0.57956820527E+00  0.27089677488E+01  0.00000000000E+00 0.  1.
</event>
<event>
 7    1  0.4477737E-009  0.4778727E+02  0.7816164E-02  0.1312668E+00
        -11   -1    0    0    0    0  0.00000000000E+00  0.00000000000E+00  0.45593999997E+02  0.45594000000E+02  0.51100000000E-03 0. -1.
         11   -1    0    0    0    0 -0.00000000000E+00 -0.00000000000E+00 -0.45593999997E+02  0.45594000000E+02  0.51100000000E-03 0.  1.
    9900012    2    1    2    0    0 -0.30355100227E+02 -0.22926784990E+02 -0.20893866741E+02  0.47787271352E+02  0.20000001402E+02 0.  0.
         12    1    1    2    0    0  0.30355100227E+02  0.22926784990E+02  0.20893866741E+02  0.43400728648E+02  0.00000000000E+00 0. -1.
         11    1    3    3    0    0  0.25036872487E+01 -0.33994891211E+01 -0.27221463400E+01  0.50234507145E+01  0.51100000000E-03 0. -1.
        -11    1    3    3    0    0 -0.20887945065E+02 -0.13851697799E+02 -0.89134079009E+01  0.26601214665E+02  0.51100000000E-03 0.  1.
         12    1    3    3    0    0 -0.11970842411E+02 -0.56755980698E+01 -0.92583125001E+01  0.16162605973E+02  0.00000000000E+00 0. -1.
</event>
<event>
 7    1  0.4477737E-009  0.4778727E+02  0.7816164E-02  0.1312668E+00
        -11   -1    0    0    0    0  0.00000000000E+00  0.00000000000E+00  0.45593999997E+02  0.45594000000E+02  0.51100000000E-03 0. -1.
         11   -1    0    0    0    0 -0.00000000000E+00 -0.00000000000E+00 -0.45593999997E+02  0.45594000000E+02  0.51100000000E-03 0.  1.
    9900012    2    1    2    0    0 -0.17935907171E+02  0.38341743897E+02 -0.95831653112E+01  0.47787272489E+02  0.20000006588E+02 0.  0.
         12    1    1    2    0    0  0.17935907171E+02 -0.38341743897E+02  0.95831653112E+01  0.43400727511E+02  0.00000000000E+00 0. -1.
         11    1    3    3    0    0 -0.15423646023E+01  0.30165999217E+01  0.18769000119E+01  0.38731792587E+01  0.51100000000E-03 0. -1.
        -11    1    3    3    0    0 -0.68443831308E+01  0.31331557496E+01 -0.65507092715E+01  0.99786791517E+01  0.51100000000E-03 0.  1.
        -12    1    3    3    0    0 -0.95491594377E+01  0.32191988225E+02 -0.49093560516E+01  0.33935414079E+02  0.00000000000E+00 0.  1.
</event>
<event>
 7    1  0.4477737E-009  0.4778727E+02  0.7816164E-02  0.1312668E+00
        -11   -1    0    0    0    0  0.00000000000E+00  0.00000000000E+00  0.45593999997E+02  0.45594000000E+02  0.51100000000E-03 0.  1.
         11   -1    0    0    0    0 -0.00000000000E+00 -0.00000000000E+00 -0.45593999997E+02  0.45594000000E+02  0.51100000000E-03 0. -1.
    9900012    2    1    2    0    0 -0.33674395516E+02 -0.24775163368E+02  0.11655441128E+02  0.47787274878E+02  0.20000017477E+02 0.  0.
         12    1    1    2    0    0  0.33674395516E+02  0.24775163368E+02 -0.11655441128E+02  0.43400725122E+02  0.00000000000E+00 0. -1.
         11    1    3    3    0    0 -0.19221703762E+02 -0.16380357687E+02 -0.15020957979E+01  0.25299136458E+02  0.51100000000E-03 0. -1.
        -11    1    3    3    0    0 -0.12705984378E+02 -0.37584857990E+01  0.89680023751E+01  0.15999791291E+02  0.51100000000E-03 0.  1.
        -12    1    3    3    0    0 -0.17467073761E+01 -0.46363198814E+01  0.41895345511E+01  0.64883471281E+01  0.00000000000E+00 0.  1.
</event>
<event>
 7    1  0.4477737E-009  0.4778727E+02  0.7816164E-02  0.1312668E+00
        -11   -1    0    0    0    0  0.00000000000E+00  0.00000000000E+00  0.45593999997E+02  0.45594000000E+02  0.51100000000E-03 0. -1.
         11   -1    0    0    0    0 -0.00000000000E+00 -0.00000000000E+00 -0.45593999997E+02  0.45594000000E+02  0.51100000000E-03 0.  1.
    9900012    2    1    2    0    0  0.21327470024E+02  0.37727972203E+02 -0.23157014409E+01  0.47787270313E+02  0.19999996664E+02 0.  0.
         12    1    1    2    0    0 -0.21327470024E+02 -0.37727972203E+02  0.23157014409E+01  0.43400729687E+02  0.00000000000E+00 0. -1.
         11    1    3    3    0    0 -0.28203715846E+00  0.42208826221E+01  0.37931460431E+01  0.56818440874E+01  0.51100000000E-03 0. -1.
        -11    1    3    3    0    0  0.22019667033E+02  0.32587809614E+02 -0.78393439077E+01  0.40103446047E+02  0.51100000000E-03 0.  1.
        -12    1    3    3    0    0 -0.41015985059E+00  0.91927996757E+00  0.17304964237E+01  0.20019801783E+01  0.00000000000E+00 0.  1.
</event>
<event>
 7    1  0.4477737E-009  0.4778724E+02  0.7816164E-02  0.1312668E+00
        -11   -1    0    0    0    0  0.00000000000E+00  0.00000000000E+00  0.45593999997E+02  0.45594000000E+02  0.51100000000E-03 0.  1.
         11   -1    0    0    0    0 -0.00000000000E+00 -0.00000000000E+00 -0.45593999997E+02  0.45594000000E+02  0.51100000000E-03 0. -1.
    9900012    2    1    2    0    0 -0.25115396471E+01 -0.24646170948E+02  0.35635436844E+02  0.47787240411E+02  0.19999860329E+02 0.  0.
         12    1    1    2    0    0  0.25115396471E+01  0.24646170948E+02 -0.35635436844E+02  0.43400759589E+02  0.00000000000E+00 0. -1.
         11    1    3    3    0    0  0.41673466590E+01 -0.13326400861E+02  0.12537844863E+02  0.18765854421E+02  0.51100000000E-03 0. -1.
        -11    1    3    3    0    0 -0.89674534183E+01 -0.11716087841E+02  0.17074117416E+02  0.22565624763E+02  0.51100000000E-03 0.  1.
        -12    1    3    3    0    0  0.22885671123E+01  0.39631775382E+00  0.60234745650E+01  0.64557612273E+01  0.00000000000E+00 0.  1.
</event>
<event>
 7    1  0.4477737E-009  0.4778727E+02  0.7816164E-02  0.1312668E+00
        -11   -1    0    0    0    0  0.00000000000E+00  0.00000000000E+00  0.45593999997E+02  0.45594000000E+02  0.51100000000E-03 0.  1.
         11   -1    0    0    0    0 -0.00000000000E+00 -0.00000000000E+00 -0.45593999997E+02  0.45594000000E+02  0.51100000000E-03 0. -1.
    9900012    2    1    2    0    0 -0.39105541050E+02  0.95130408391E+01  0.16244458345E+02  0.47787265977E+02  0.19999976897E+02 0.  0.
         12    1    1    2    0    0  0.39105541050E+02 -0.95130408391E+01 -0.16244458345E+02  0.43400734023E+02  0.00000000000E+00 0. -1.
         11    1    3    3    0    0 -0.94886172279E+01  0.85851079261E+01 -0.48752228241E+00  0.12805296296E+02  0.51100000000E-03 0. -1.
        -11    1    3    3    0    0 -0.25794753617E+02  0.20443716129E+01  0.11271939561E+02  0.28224198681E+02  0.51100000000E-03 0.  1.
         12    1    3    3    0    0 -0.38221702049E+01 -0.11164386999E+01  0.54600410659E+01  0.67577709999E+01  0.00000000000E+00 0. -1.
</event>
<event>
 7    1  0.4477737E-009  0.4778728E+02  0.7816164E-02  0.1312668E+00
        -11   -1    0    0    0    0  0.00000000000E+00  0.00000000000E+00  0.45593999997E+02  0.45594000000E+02  0.51100000000E-03 0. -1.
         11   -1    0    0    0    0 -0.00000000000E+00 -0.00000000000E+00 -0.45593999997E+02  0.45594000000E+02  0.51100000000E-03 0.  1.
    9900012    2    1    2    0    0  0.27088057309E+02 -0.27491687976E+02  0.19851106147E+02  0.47787283741E+02  0.20000057888E+02 0.  0.
         12    1    1    2    0    0 -0.27088057309E+02  0.27491687976E+02 -0.19851106147E+02  0.43400716259E+02  0.00000000000E+00 0. -1.
         11    1    3    3    0    0  0.13242875876E+02 -0.18905062185E+02  0.43528890520E+01  0.23488779897E+02  0.51100000000E-03 0. -1.
        -11    1    3    3    0    0  0.12383322198E+02 -0.99700395028E+01  0.15612947515E+02  0.22282560147E+02  0.51100000000E-03 0.  1.
         12    1    3    3    0    0  0.14618592349E+01  0.13834137115E+01 -0.11473041982E+00  0.20159436969E+01  0.00000000000E+00 0. -1.
</event>
<event>
 7    1  0.4477737E-009  0.4778727E+02  0.7816164E-02  0.1312668E+00
        -11   -1    0    0    0    0  0.00000000000E+00  0.00000000000E+00  0.45593999997E+02  0.45594000000E+02  0.51100000000E-03 0.  1.
         11   -1    0    0    0    0 -0.00000000000E+00 -0.00000000000E+00 -0.45593999997E+02  0.45594000000E+02  0.51100000000E-03 0. -1.
    9900012    2    1    2    0    0  0.20232348390E+01 -0.39359955212E+02  0.18174810844E+02  0.47787270713E+02  0.19999998487E+02 0.  0.
         12    1    1    2    0    0 -0.20232348390E+01  0.39359955212E+02 -0.18174810844E+02  0.43400729287E+02  0.00000000000E+00 0. -1.
         11    1    3    3    0    0 -0.55205136216E+00 -0.60447033218E+01 -0.37894737812E+01  0.71556488702E+01  0.51100000000E-03 0. -1.
        -11    1    3    3    0    0  0.17321451313E+01 -0.33223007459E+02  0.20974260668E+02  0.39327956496E+02  0.51100000000E-03 0.  1.
         12    1    3    3    0    0  0.84314106987E+00 -0.92244431221E-01  0.99002395743E+00  0.13036653463E+01  0.00000000000E+00 0. -1.
</event>
<event>
 7    1  0.4477737E-009  0.4778727E+02  0.7816164E-02  0.1312668E+00
        -11   -1    0    0    0    0  0.00000000000E+00  0.00000000000E+00  0.45593999997E+02  0.45594000000E+02  0.51100000000E-03 0.  1.
         11   -1    0    0    0    0 -0.00000000000E+00 -0.00000000000E+00 -0.45593999997E+02  0.45594000000E+02  0.51100000000E-03 0. -1.
    9900012    2    1    2    0    0 -0.37957956766E+02  0.83821325034E+01  0.19301735546E+02  0.47787267031E+02  0.19999981703E+02 0.  0.
         12    1    1    2    0    0  0.37957956766E+02 -0.83821325034E+01 -0.19301735546E+02  0.43400732969E+02  0.00000000000E+00 0. -1.
         11    1    3    3    0    0 -0.23567682120E+02  0.26820766862E+01  0.14140905630E+02  0.27615111591E+02  0.51100000000E-03 0.  1.
        -11    1    3    3    0    0 -0.77758477317E+01  0.89226010882E+01  0.49006472237E+01  0.12809877501E+02  0.51100000000E-03 0. -1.
         12    1    3    3    0    0 -0.66144269135E+01 -0.32225452710E+01  0.26018269229E+00  0.73622779390E+01  0.00000000000E+00 0. -1.
</event>
<event>
 7    1  0.4477737E-009  0.4778724E+02  0.7816164E-02  0.1312668E+00
        -11   -1    0    0    0    0  0.00000000000E+00  0.00000000000E+00  0.45593999997E+02  0.45594000000E+02  0.51100000000E-03 0. -1.
         11   -1    0    0    0    0 -0.00000000000E+00 -0.00000000000E+00 -0.45593999997E+02  0.45594000000E+02  0.51100000000E-03 0.  1.
    9900012    2    1    2    0    0  0.32760994234E+02  0.32933822350E+01 -0.28275372666E+02  0.47787241837E+02  0.19999866831E+02 0.  0.
         12    1    1    2    0    0 -0.32760994234E+02 -0.32933822350E+01  0.28275372666E+02  0.43400758163E+02  0.00000000000E+00 0. -1.
         11    1    3    3    0    0  0.12460808777E+02 -0.35517982112E+01 -0.17090787377E+02  0.21447191875E+02  0.51100000000E-03 0. -1.
        -11    1    3    3    0    0  0.20972562381E+02  0.80283321591E+01 -0.10225337557E+02  0.24675089027E+02  0.51100000000E-03 0.  1.
        -12    1    3    3    0    0 -0.67237692398E+00 -0.11831517130E+01 -0.95924773162E+00  0.16649609348E+01  0.00000000000E+00 0.  1.
</event>
<event>
 7    1  0.4477737E-009  0.4778727E+02  0.7816164E-02  0.1312668E+00
        -11   -1    0    0    0    0  0.00000000000E+00  0.00000000000E+00  0.45593999997E+02  0.45594000000E+02  0.51100000000E-03 0.  1.
         11   -1    0    0    0    0 -0.00000000000E+00 -0.00000000000E+00 -0.45593999997E+02  0.45594000000E+02  0.51100000000E-03 0. -1.
    9900012    2    1    2    0    0  0.17823795442E+02 -0.28748359998E+02  0.27193153329E+02  0.47787268733E+02  0.19999989461E+02 0.  0.
         12    1    1    2    0    0 -0.17823795442E+02  0.28748359998E+02 -0.27193153329E+02  0.43400731267E+02  0.00000000000E+00 0. -1.
         11    1    3    3    0    0  0.47924393647E+01 -0.19092850113E+02  0.17989946724E+02  0.26667256775E+02  0.51100000000E-03 0. -1.
        -11    1    3    3    0    0  0.10588698935E+01  0.20224570330E+01  0.10117274369E+01  0.24970243429E+01  0.51100000000E-03 0.  1.
        -12    1    3    3    0    0  0.11972486184E+02 -0.11677966918E+02  0.81914791684E+01  0.18622987616E+02  0.00000000000E+00 0.  1.
</event>
<event>
 7    1  0.4477737E-009  0.4778727E+02  0.7816164E-02  0.1312668E+00
        -11   -1    0    0    0    0  0.00000000000E+00  0.00000000000E+00  0.45593999997E+02  0.45594000000E+02  0.51100000000E-03 0.  1.
         11   -1    0    0    0    0 -0.00000000000E+00 -0.00000000000E+00 -0.45593999997E+02  0.45594000000E+02  0.51100000000E-03 0. -1.
    9900012    2    1    2    0    0  0.60666112013E+00 -0.42912524857E+02  0.64630388063E+01  0.47787266159E+02  0.19999977724E+02 0.  0.
         12    1    1    2    0    0 -0.60666112013E+00  0.42912524857E+02 -0.64630388063E+01  0.43400733841E+02  0.00000000000E+00 0. -1.
         11    1    3    3    0    0 -0.23098513880E+01 -0.17552770661E+01  0.46484883240E+01  0.54794940435E+01  0.51100000000E-03 0. -1.
        -11    1    3    3    0    0  0.60417729024E+01 -0.30968388779E+02  0.38225315312E+00  0.31554559752E+02  0.51100000000E-03 0.  1.
        -12    1    3    3    0    0 -0.31252603942E+01 -0.10188859012E+02  0.14322973292E+01  0.10753212363E+02  0.00000000000E+00 0.  1.
</event>
<event>
 7    1  0.4477737E-009  0.4778727E+02  0.7816164E-02  0.1312668E+00
        -11   -1    0    0    0    0  0.00000000000E+00  0.00000000000E+00  0.45593999997E+02  0.45594000000E+02  0.51100000000E-03 0. -1.
         11   -1    0    0    0    0 -0.00000000000E+00 -0.00000000000E+00 -0.45593999997E+02  0.45594000000E+02  0.51100000000E-03 0.  1.
    9900012    2    1    2    0    0 -0.68562357832E+01 -0.84040431935E+01 -0.42023652075E+02  0.47787271379E+02  0.20000001525E+02 0.  0.
         12    1    1    2    0    0  0.68562357832E+01  0.84040431935E+01  0.42023652075E+02  0.43400728621E+02  0.00000000000E+00 0. -1.
         11    1    3    3    0    0  0.26068979053E+01  0.22854143347E+01 -0.42152346270E+01  0.54577686459E+01  0.51100000000E-03 0. -1.
        -11    1    3    3    0    0 -0.64925096932E+01 -0.11728692291E+02 -0.36566049456E+02  0.38945999513E+02  0.51100000000E-03 0.  1.
        -12    1    3    3    0    0 -0.29706239953E+01  0.10392347624E+01 -0.12423679920E+01  0.33835032201E+01  0.00000000000E+00 0.  1.
</event>
<event>
 7    1  0.4477737E-009  0.4778728E+02  0.7816164E-02  0.1312668E+00
        -11   -1    0    0    0    0  0.00000000000E+00  0.00000000000E+00  0.45593999997E+02  0.45594000000E+02  0.51100000000E-03 0.  1.
         11   -1    0    0    0    0 -0.00000000000E+00 -0.00000000000E+00 -0.45593999997E+02  0.45594000000E+02  0.51100000000E-03 0. -1.
    9900012    2    1    2    0    0  0.27830643260E+02  0.24889468427E+02  0.22126736262E+02  0.47787276498E+02  0.20000024866E+02 0.  0.
         12    1    1    2    0    0 -0.27830643260E+02 -0.24889468427E+02 -0.22126736262E+02  0.43400723502E+02  0.00000000000E+00 0. -1.
         11    1    3    3    0    0  0.19209239771E+02  0.10112580874E+02  0.13800802518E+02  0.25723944778E+02  0.51100000000E-03 0. -1.
        -11    1    3    3    0    0 -0.10396507353E+00  0.18572089065E+01 -0.24758980811E+01  0.30967895034E+01  0.51100000000E-03 0.  1.
        -12    1    3    3    0    0  0.87253685621E+01  0.12919678647E+02  0.10801831826E+02  0.18966542217E+02  0.00000000000E+00 0.  1.
</event>
<event>
 7    1  0.4477737E-009  0.4778727E+02  0.7816164E-02  0.1312668E+00
        -11   -1    0    0    0    0  0.00000000000E+00  0.00000000000E+00  0.45593999997E+02  0.45594000000E+02  0.51100000000E-03 0.  1.
         11   -1    0    0    0    0 -0.00000000000E+00 -0.00000000000E+00 -0.45593999997E+02  0.45594000000E+02  0.51100000000E-03 0. -1.
    9900012    2    1    2    0    0  0.81373261636E+01 -0.32079865506E+02  0.28076492989E+02  0.47787270668E+02  0.19999998284E+02 0.  0.
         12    1    1    2    0    0 -0.81373261636E+01  0.32079865506E+02 -0.28076492989E+02  0.43400729332E+02  0.00000000000E+00 0. -1.
         11    1    3    3    0    0  0.71079970231E+01 -0.19819997122E+01  0.88503460894E+01  0.11523045201E+02  0.51100000000E-03 0. -1.
        -11    1    3    3    0    0 -0.17458213203E+01 -0.22816149181E+02  0.13233969801E+02  0.26434116450E+02  0.51100000000E-03 0.  1.
        -12    1    3    3    0    0  0.27751504608E+01 -0.72817166124E+01  0.59921770989E+01  0.98301090171E+01  0.00000000000E+00 0.  1.
</event>
<event>
 7    1  0.4477737E-009  0.4778727E+02  0.7816164E-02  0.1312668E+00
        -11   -1    0    0    0    0  0.00000000000E+00  0.00000000000E+00  0.45593999997E+02  0.45594000000E+02  0.51100000000E-03 0.  1.
         11   -1    0    0    0    0 -0.00000000000E+00 -0.00000000000E+00 -0.45593999997E+02  0.45594000000E+02  0.51100000000E-03 0. -1.
    9900012    2    1    2    0    0 -0.73407107190E+01  0.14286708446E+02  0.40319069036E+02  0.47787269591E+02  0.19999993373E+02 0.  0.
         12    1    1    2    0    0  0.73407107190E+01 -0.14286708446E+02 -0.40319069036E+02  0.43400730409E+02  0.00000000000E+00 0. -1.
         11    1    3    3    0    0 -0.85730881764E+01  0.13531135338E+01  0.71207623475E+01  0.11226487153E+02  0.51100000000E-03 0. -1.
        -11    1    3    3    0    0 -0.33122923902E+01  0.76910935877E+01  0.17777588963E+02  0.19651129002E+02  0.51100000000E-03 0.  1.
         12    1    3    3    0    0  0.45446698476E+01  0.52425013247E+01  0.15420717726E+02  0.16909653437E+02  0.00000000000E+00 0. -1.
</event>
<event>
 7    1  0.4477737E-009  0.4778727E+02  0.7816164E-02  0.1312668E+00
        -11   -1    0    0    0    0  0.00000000000E+00  0.00000000000E+00  0.45593999997E+02  0.45594000000E+02  0.51100000000E-03 0. -1.
         11   -1    0    0    0    0 -0.00000000000E+00 -0.00000000000E+00 -0.45593999997E+02  0.45594000000E+02  0.51100000000E-03 0.  1.
    9900012    2    1    2    0    0  0.16557531566E+02 -0.40115950280E+02  0.42700924463E+00  0.47787266650E+02  0.19999979965E+02 0.  0.
         12    1    1    2    0    0 -0.16557531566E+02  0.40115950280E+02 -0.42700924463E+00  0.43400733350E+02  0.00000000000E+00 0. -1.
         11    1    3    3    0    0 -0.94376555682E+00 -0.24784674641E+01 -0.36292007637E+01  0.44949519287E+01  0.51100000000E-03 0. -1.
        -11    1    3    3    0    0  0.17960504608E+02 -0.27026388324E+02  0.23489684531E+01  0.32534951124E+02  0.51100000000E-03 0.  1.
         12    1    3    3    0    0 -0.45920748547E+00 -0.10611094492E+02  0.17072415553E+01  0.10757363597E+02  0.00000000000E+00 0. -1.
</event>
<event>
 7    1  0.4477737E-009  0.4778727E+02  0.7816164E-02  0.1312668E+00
        -11   -1    0    0    0    0  0.00000000000E+00  0.00000000000E+00  0.45593999997E+02  0.45594000000E+02  0.51100000000E-03 0. -1.
         11   -1    0    0    0    0 -0.00000000000E+00 -0.00000000000E+00 -0.45593999997E+02  0.45594000000E+02  0.51100000000E-03 0.  1.
    9900012    2    1    2    0    0  0.21734158286E+01  0.28416814115E+02 -0.32732002947E+02  0.47787273304E+02  0.20000010301E+02 0.  0.
         12    1    1    2    0    0 -0.21734158286E+01 -0.28416814115E+02  0.32732002947E+02  0.43400726696E+02  0.00000000000E+00 0. -1.
         11    1    3    3    0    0  0.73447285053E+01  0.28589585197E+01 -0.12314302256E+02  0.14620558161E+02  0.51100000000E-03 0. -1.
        -11    1    3    3    0    0 -0.22253449807E+01  0.14193374509E+02 -0.10440260940E+02  0.17759591465E+02  0.51100000000E-03 0.  1.
         12    1    3    3    0    0 -0.29459676960E+01  0.11364481086E+02 -0.99774397515E+01  0.15407123678E+02  0.00000000000E+00 0. -1.
</event>
<event>
 7    1  0.4477737E-009  0.4778727E+02  0.7816164E-02  0.1312668E+00
        -11   -1    0    0    0    0  0.00000000000E+00  0.00000000000E+00  0.45593999997E+02  0.45594000000E+02  0.51100000000E-03 0.  1.
         11   -1    0    0    0    0 -0.00000000000E+00 -0.00000000000E+00 -0.45593999997E+02  0.45594000000E+02  0.51100000000E-03 0. -1.
    9900012    2    1    2    0    0 -0.39839867055E+02 -0.10516931385E+02  0.13630932393E+02  0.47787272234E+02  0.20000005422E+02 0.  0.
         12    1    1    2    0    0  0.39839867055E+02  0.10516931385E+02 -0.13630932393E+02  0.43400727766E+02  0.00000000000E+00 0. -1.
         11    1    3    3    0    0 -0.39823715967E+01 -0.84873046633E+01  0.39315050898E+01  0.10166137738E+02  0.51100000000E-03 0. -1.
        -11    1    3    3    0    0 -0.25922207339E+02 -0.39721927528E+01  0.71287628133E+01  0.27176431114E+02  0.51100000000E-03 0.  1.
         12    1    3    3    0    0 -0.99352881200E+01  0.19425660309E+01  0.25706644899E+01  0.10444703382E+02  0.00000000000E+00 0. -1.
</event>
<event>
 7    1  0.5479676E-009  0.4778727E+02  0.7816164E-02  0.1312668E+00
        -11   -1    0    0    0    0  0.00000000000E+00  0.00000000000E+00  0.45593999997E+02  0.45594000000E+02  0.51100000000E-03 0. -1.
         11   -1    0    0    0    0 -0.00000000000E+00 -0.00000000000E+00 -0.45593999997E+02  0.45594000000E+02  0.51100000000E-03 0.  1.
    9900012    2    1    2    0    0  0.43361017027E+02 -0.88890719844E+00  0.16295474174E+01  0.47787269840E+02  0.19999994508E+02 0.  0.
         12    1    1    2    0    0 -0.43361017027E+02  0.88890719844E+00 -0.16295474174E+01  0.43400730160E+02  0.00000000000E+00 0. -1.
         11    1    3    3    0    0  0.42446782968E+01  0.32354577840E+01  0.53169570665E+01  0.75336255298E+01  0.51100000000E-03 0. -1.
        -11    1    3    3    0    0  0.20630488041E+02 -0.10218372727E+01 -0.56287918530E+01  0.21408981438E+02  0.51100000000E-03 0.  1.
         12    1    3    3    0    0  0.18485850690E+02 -0.31025277097E+01  0.19413822039E+01  0.18844662873E+02  0.00000000000E+00 0. -1.
</event>
<event>
 7    1  0.4477737E-009  0.4778727E+02  0.7816164E-02  0.1312668E+00
        -11   -1    0    0    0    0  0.00000000000E+00  0.00000000000E+00  0.45593999997E+02  0.45594000000E+02  0.51100000000E-03 0.  1.
         11   -1    0    0    0    0 -0.00000000000E+00 -0.00000000000E+00 -0.45593999997E+02  0.45594000000E+02  0.51100000000E-03 0. -1.
    9900012    2    1    2    0    0 -0.66092191956E+01  0.41220211645E+02  0.11867420585E+02  0.47787270770E+02  0.19999998747E+02 0.  0.
         12    1    1    2    0    0  0.66092191956E+01 -0.41220211645E+02 -0.11867420585E+02  0.43400729230E+02  0.00000000000E+00 0. -1.
         11    1    3    3    0    0 -0.97034348233E+01  0.18384572138E+02  0.90002197827E+01  0.22652882741E+02  0.51100000000E-03 0. -1.
        -11    1    3    3    0    0  0.40694869597E+01  0.21060370439E+02  0.51733811120E+01  0.22064990359E+02  0.51100000000E-03 0.  1.
        -12    1    3    3    0    0 -0.97527133210E+00  0.17752690670E+01 -0.23061803099E+01  0.30693976694E+01  0.00000000000E+00 0.  1.
</event>
<event>
 7    1  0.4477737E-009  0.4778727E+02  0.7816164E-02  0.1312668E+00
        -11   -1    0    0    0    0  0.00000000000E+00  0.00000000000E+00  0.45593999997E+02  0.45594000000E+02  0.51100000000E-03 0. -1.
         11   -1    0    0    0    0 -0.00000000000E+00 -0.00000000000E+00 -0.45593999997E+02  0.45594000000E+02  0.51100000000E-03 0.  1.
    9900012    2    1    2    0    0 -0.20883547290E+02 -0.29960946298E+02 -0.23448721901E+02  0.47787269485E+02  0.19999992888E+02 0.  0.
         12    1    1    2    0    0  0.20883547290E+02  0.29960946298E+02  0.23448721901E+02  0.43400730515E+02  0.00000000000E+00 0. -1.
         11    1    3    3    0    0  0.90142974447E+00  0.26859875760E+00  0.10500021326E+01  0.14096899008E+01  0.51100000000E-03 0. -1.
        -11    1    3    3    0    0 -0.21641270892E+02 -0.23308223114E+02 -0.23114051932E+02  0.39317645752E+02  0.51100000000E-03 0.  1.
        -12    1    3    3    0    0 -0.14370614213E+00 -0.69213219415E+01 -0.13846721020E+01  0.70599338314E+01  0.00000000000E+00 0.  1.
</event>
<event>
 7    1  0.4477737E-009  0.4778727E+02  0.7816164E-02  0.1312668E+00
        -11   -1    0    0    0    0  0.00000000000E+00  0.00000000000E+00  0.45593999997E+02  0.45594000000E+02  0.51100000000E-03 0.  1.
         11   -1    0    0    0    0 -0.00000000000E+00 -0.00000000000E+00 -0.45593999997E+02  0.45594000000E+02  0.51100000000E-03 0. -1.
    9900012    2    1    2    0    0 -0.31004907306E+02 -0.73745002829E+01  0.29460747918E+02  0.47787271903E+02  0.20000003914E+02 0.  0.
         12    1    1    2    0    0  0.31004907306E+02  0.73745002829E+01 -0.29460747918E+02  0.43400728097E+02  0.00000000000E+00 0. -1.
         11    1    3    3    0    0 -0.29892180550E+01 -0.75004904832E+01  0.60834193401E+01  0.10109439806E+02  0.51100000000E-03 0. -1.
        -11    1    3    3    0    0 -0.95367228403E+01  0.27793009718E+01  0.12862933673E+02  0.16252035545E+02  0.51100000000E-03 0.  1.
        -12    1    3    3    0    0 -0.18478966411E+02 -0.26533107715E+01  0.10514394905E+02  0.21425796552E+02  0.00000000000E+00 0.  1.
</event>
<event>
 7    1  0.4477737E-009  0.4778727E+02  0.7816164E-02  0.1312668E+00
        -11   -1    0    0    0    0  0.00000000000E+00  0.00000000000E+00  0.45593999997E+02  0.45594000000E+02  0.51100000000E-03 0. -1.
         11   -1    0    0    0    0 -0.00000000000E+00 -0.00000000000E+00 -0.45593999997E+02  0.45594000000E+02  0.51100000000E-03 0.  1.
    9900012    2    1    2    0    0  0.37077840540E+02  0.22128186369E+02  0.43817913299E+01  0.47787274356E+02  0.20000015101E+02 0.  0.
         12    1    1    2    0    0 -0.37077840540E+02 -0.22128186369E+02 -0.43817913299E+01  0.43400725644E+02  0.00000000000E+00 0. -1.
         11    1    3    3    0    0  0.43922166949E+01 -0.19017331399E+01  0.33554619727E+01  0.58452785855E+01  0.51100000000E-03 0. -1.
        -11    1    3    3    0    0  0.11571496487E+02  0.14597102124E+02  0.23708560038E+01  0.18777536575E+02  0.51100000000E-03 0.  1.
         12    1    3    3    0    0  0.21114127359E+02  0.94328173851E+01 -0.13445266466E+01  0.23164459196E+02  0.00000000000E+00 0. -1.
</event>
<event>
 7    1  0.4477737E-009  0.4778727E+02  0.7816164E-02  0.1312668E+00
        -11   -1    0    0    0    0  0.00000000000E+00  0.00000000000E+00  0.45593999997E+02  0.45594000000E+02  0.51100000000E-03 0.  1.
         11   -1    0    0    0    0 -0.00000000000E+00 -0.00000000000E+00 -0.45593999997E+02  0.45594000000E+02  0.51100000000E-03 0. -1.
    9900012    2    1    2    0    0 -0.10100498683E+02  0.90910583899E+01  0.41218396553E+02  0.47787266934E+02  0.19999981259E+02 0.  0.
         12    1    1    2    0    0  0.10100498683E+02 -0.90910583899E+01 -0.41218396553E+02  0.43400733066E+02  0.00000000000E+00 0. -1.
         11    1    3    3    0    0 -0.65026155412E+01 -0.14398728100E+01  0.44600978548E+01  0.80155920381E+01  0.51100000000E-03 0. -1.
        -11    1    3    3    0    0 -0.52952370491E+01  0.11850007717E+02  0.30229814745E+02  0.32898387773E+02  0.51100000000E-03 0.  1.
        -12    1    3    3    0    0  0.16973539075E+01 -0.13190765175E+01  0.65284839531E+01  0.68732871228E+01  0.00000000000E+00 0.  1.
</event>
<event>
 7    1  0.4477737E-009  0.4778727E+02  0.7816164E-02  0.1312668E+00
        -11   -1    0    0    0    0  0.00000000000E+00  0.00000000000E+00  0.45593999997E+02  0.45594000000E+02  0.51100000000E-03 0. -1.
         11   -1    0    0    0    0 -0.00000000000E+00 -0.00000000000E+00 -0.45593999997E+02  0.45594000000E+02  0.51100000000E-03 0.  1.
    9900012    2    1    2    0    0  0.43042352242E+02 -0.51530553722E+01 -0.21035855940E+01  0.47787272604E+02  0.20000007110E+02 0.  0.
         12    1    1    2    0    0 -0.43042352242E+02  0.51530553722E+01  0.21035855940E+01  0.43400727396E+02  0.00000000000E+00 0. -1.
         11    1    3    3    0    0  0.66082982815E+01  0.40049663820E+01 -0.11008385727E+01  0.78052038873E+01  0.51100000000E-03 0. -1.
        -11    1    3    3    0    0  0.36020957693E+02 -0.98198965525E+01  0.14948792064E+01  0.37365417508E+02  0.51100000000E-03 0.  1.
        -12    1    3    3    0    0  0.41309626679E+00  0.66187479835E+00 -0.24976262278E+01  0.26166512087E+01  0.00000000000E+00 0.  1.
</event>
<event>
 7    1  0.4477737E-009  0.4778727E+02  0.7816164E-02  0.1312668E+00
        -11   -1    0    0    0    0  0.00000000000E+00  0.00000000000E+00  0.45593999997E+02  0.45594000000E+02  0.51100000000E-03 0.  1.
         11   -1    0    0    0    0 -0.00000000000E+00 -0.00000000000E+00 -0.45593999997E+02  0.45594000000E+02  0.51100000000E-03 0. -1.
    9900012    2    1    2    0    0 -0.37872968436E+02 -0.21045231117E+02  0.25218581356E+01  0.47787271212E+02  0.20000000762E+02 0.  0.
         12    1    1    2    0    0  0.37872968436E+02  0.21045231117E+02 -0.25218581356E+01  0.43400728788E+02  0.00000000000E+00 0. -1.
         11    1    3    3    0    0 -0.17354308874E+02 -0.29962484725E+01  0.64685215132E+01  0.18761431508E+02  0.51100000000E-03 0. -1.
        -11    1    3    3    0    0 -0.19714461172E+02 -0.14410523361E+02 -0.54283327046E+01  0.25015794192E+02  0.51100000000E-03 0.  1.
        -12    1    3    3    0    0 -0.80419838971E+00 -0.36384592839E+01  0.14816693270E+01  0.40100455116E+01  0.00000000000E+00 0.  1.
</event>
<event>
 7    1  0.4477737E-009  0.4778727E+02  0.7816164E-02  0.1312668E+00
        -11   -1    0    0    0    0  0.00000000000E+00  0.00000000000E+00  0.45593999997E+02  0.45594000000E+02  0.51100000000E-03 0.  1.
         11   -1    0    0    0    0 -0.00000000000E+00 -0.00000000000E+00 -0.45593999997E+02  0.45594000000E+02  0.51100000000E-03 0. -1.
    9900012    2    1    2    0    0 -0.16152683113E+02 -0.40282760286E+02 -0.11597491629E+00  0.47787269612E+02  0.19999993468E+02 0.  0.
         12    1    1    2    0    0  0.16152683113E+02  0.40282760286E+02  0.11597491629E+00  0.43400730388E+02  0.00000000000E+00 0. -1.
         11    1    3    3    0    0  0.58970573385E-01 -0.86978395836E+01  0.20935064356E+01  0.89464328315E+01  0.51100000000E-03 0. -1.
        -11    1    3    3    0    0  0.53702867136E-01 -0.16529636002E+02  0.32436513025E+00  0.16532905472E+02  0.51100000000E-03 0.  1.
        -12    1    3    3    0    0 -0.16265356554E+02 -0.15055284701E+02 -0.25338464822E+01  0.22307931308E+02  0.00000000000E+00 0.  1.
</event>
<event>
 7    1  0.4477737E-009  0.4778727E+02  0.7816164E-02  0.1312668E+00
        -11   -1    0    0    0    0  0.00000000000E+00  0.00000000000E+00  0.45593999997E+02  0.45594000000E+02  0.51100000000E-03 0.  1.
         11   -1    0    0    0    0 -0.00000000000E+00 -0.00000000000E+00 -0.45593999997E+02  0.45594000000E+02  0.51100000000E-03 0. -1.
    9900012    2    1    2    0    0 -0.38386093123E+02  0.15350121594E+02  0.13210021109E+02  0.47787273786E+02  0.20000012498E+02 0.  0.
         12    1    1    2    0    0  0.38386093123E+02 -0.15350121594E+02 -0.13210021109E+02  0.43400726214E+02  0.00000000000E+00 0. -1.
         11    1    3    3    0    0 -0.12595804854E+01  0.30574784396E+01  0.62643428973E+01  0.70835520471E+01  0.51100000000E-03 0. -1.
        -11    1    3    3    0    0 -0.17599273041E+02  0.11798116135E+01  0.30791194959E+01  0.17905511558E+02  0.51100000000E-03 0.  1.
         12    1    3    3    0    0 -0.19527239597E+02  0.11112831541E+02  0.38665587154E+01  0.22798210181E+02  0.00000000000E+00 0. -1.
</event>
<event>
 7    1  0.4477737E-009  0.4778727E+02  0.7816164E-02  0.1312668E+00
        -11   -1    0    0    0    0  0.00000000000E+00  0.00000000000E+00  0.45593999997E+02  0.45594000000E+02  0.51100000000E-03 0.  1.
         11   -1    0    0    0    0 -0.00000000000E+00 -0.00000000000E+00 -0.45593999997E+02  0.45594000000E+02  0.51100000000E-03 0. -1.
    9900012    2    1    2    0    0 -0.12973605074E+02  0.20171837471E+02  0.36171888031E+02  0.47787274899E+02  0.20000017574E+02 0.  0.
         12    1    1    2    0    0  0.12973605074E+02 -0.20171837471E+02 -0.36171888031E+02  0.43400725101E+02  0.00000000000E+00 0. -1.
         11    1    3    3    0    0 -0.78258445749E+01  0.15461217220E+02  0.28382200829E+02  0.33254208837E+02  0.51100000000E-03 0.  1.
        -11    1    3    3    0    0 -0.32146351146E+01  0.19263116133E+01  0.98689504065E+01  0.10556549519E+02  0.51100000000E-03 0. -1.
         12    1    3    3    0    0 -0.19331253846E+01  0.27843086377E+01 -0.20792632046E+01  0.39765165429E+01  0.00000000000E+00 0. -1.
</event>
<event>
 7    1  0.4477737E-009  0.4778727E+02  0.7816164E-02  0.1312668E+00
        -11   -1    0    0    0    0  0.00000000000E+00  0.00000000000E+00  0.45593999997E+02  0.45594000000E+02  0.51100000000E-03 0.  1.
         11   -1    0    0    0    0 -0.00000000000E+00 -0.00000000000E+00 -0.45593999997E+02  0.45594000000E+02  0.51100000000E-03 0. -1.
    9900012    2    1    2    0    0 -0.38998908245E+02  0.25801468654E+00  0.19043170820E+02  0.47787265320E+02  0.19999973902E+02 0.  0.
         12    1    1    2    0    0  0.38998908245E+02 -0.25801468654E+00 -0.19043170820E+02  0.43400734680E+02  0.00000000000E+00 0. -1.
         11    1    3    3    0    0 -0.21151232231E+02 -0.52482042294E+01  0.16028540167E+01  0.21851485391E+02  0.51100000000E-03 0. -1.
        -11    1    3    3    0    0 -0.15756548350E+02  0.38850773180E+01  0.13115333242E+02  0.20865632221E+02  0.51100000000E-03 0.  1.
         12    1    3    3    0    0 -0.20911276641E+01  0.16211415980E+01  0.43249835609E+01  0.50701477090E+01  0.00000000000E+00 0. -1.
</event>
<event>
 7    1  0.4477737E-009  0.4778728E+02  0.7816164E-02  0.1312668E+00
        -11   -1    0    0    0    0  0.00000000000E+00  0.00000000000E+00  0.45593999997E+02  0.45594000000E+02  0.51100000000E-03 0.  1.
         11   -1    0    0    0    0 -0.00000000000E+00 -0.00000000000E+00 -0.45593999997E+02  0.45594000000E+02  0.51100000000E-03 0. -1.
    9900012    2    1    2    0    0  0.80495638899E+01 -0.41939982482E+02  0.77372347570E+01  0.47787280984E+02  0.20000045319E+02 0.  0.
         12    1    1    2    0    0 -0.80495638899E+01  0.41939982482E+02 -0.77372347570E+01  0.43400719016E+02  0.00000000000E+00 0. -1.
         11    1    3    3    0    0  0.28093008811E+01 -0.10653072213E+01  0.34021660641E+01  0.45389189357E+01  0.51100000000E-03 0. -1.
        -11    1    3    3    0    0  0.46074656351E+01 -0.32922192775E+02 -0.16365418964E+01  0.33283295905E+02  0.51100000000E-03 0.  1.
        -12    1    3    3    0    0  0.63279737373E+00 -0.79524824859E+01  0.59716105893E+01  0.99650661430E+01  0.00000000000E+00 0.  1.
</event>
<event>
 7    1  0.4477737E-009  0.4778727E+02  0.7816164E-02  0.1312668E+00
        -11   -1    0    0    0    0  0.00000000000E+00  0.00000000000E+00  0.45593999997E+02  0.45594000000E+02  0.51100000000E-03 0.  1.
         11   -1    0    0    0    0 -0.00000000000E+00 -0.00000000000E+00 -0.45593999997E+02  0.45594000000E+02  0.51100000000E-03 0. -1.
    9900012    2    1    2    0    0  0.11233336424E+02  0.19309163915E+02  0.37210101652E+02  0.47787270476E+02  0.19999997408E+02 0.  0.
         12    1    1    2    0    0 -0.11233336424E+02 -0.19309163915E+02 -0.37210101652E+02  0.43400729524E+02  0.00000000000E+00 0. -1.
         11    1    3    3    0    0 -0.11896031902E+01  0.35612625849E+01  0.20434823511E+01  0.42747593300E+01  0.51100000000E-03 0. -1.
        -11    1    3    3    0    0  0.87134796871E+01  0.11283839533E+02  0.93444443077E+01  0.17046067070E+02  0.51100000000E-03 0.  1.
        -12    1    3    3    0    0  0.37094599267E+01  0.44640617971E+01  0.25822174993E+02  0.26466444076E+02  0.00000000000E+00 0.  1.
</event>
<event>
 7    1  0.4657254E-009  0.4778727E+02  0.7816164E-02  0.1312668E+00
        -11   -1    0    0    0    0  0.00000000000E+00  0.00000000000E+00  0.45593999997E+02  0.45594000000E+02  0.51100000000E-03 0.  1.
         11   -1    0    0    0    0 -0.00000000000E+00 -0.00000000000E+00 -0.45593999997E+02  0.45594000000E+02  0.51100000000E-03 0. -1.
    9900012    2    1    2    0    0  0.15174519386E+02  0.27722128280E+02  0.29746272352E+02  0.47787272428E+02  0.20000006308E+02 0.  0.
         12    1    1    2    0    0 -0.15174519386E+02 -0.27722128280E+02 -0.29746272352E+02  0.43400727572E+02  0.00000000000E+00 0. -1.
         11    1    3    3    0    0 -0.13298070208E+01  0.24881284550E+01 -0.12463009126E+01  0.30842237511E+01  0.51100000000E-03 0. -1.
        -11    1    3    3    0    0  0.12027513445E+02  0.88279778880E+01  0.17486813232E+02  0.22986581097E+02  0.51100000000E-03 0.  1.
        -12    1    3    3    0    0  0.44768129615E+01  0.16406021937E+02  0.13505760032E+02  0.21716467580E+02  0.00000000000E+00 0.  1.
</event>
<event>
 7    1  0.4477737E-009  0.4778727E+02  0.7816164E-02  0.1312668E+00
        -11   -1    0    0    0    0  0.00000000000E+00  0.00000000000E+00  0.45593999997E+02  0.45594000000E+02  0.51100000000E-03 0.  1.
         11   -1    0    0    0    0 -0.00000000000E+00 -0.00000000000E+00 -0.45593999997E+02  0.45594000000E+02  0.51100000000E-03 0. -1.
    9900012    2    1    2    0    0 -0.44384363580E+01  0.48193865835E+01  0.42903346737E+02  0.47787269988E+02  0.19999995184E+02 0.  0.
         12    1    1    2    0    0  0.44384363580E+01 -0.48193865835E+01 -0.42903346737E+02  0.43400730012E+02  0.00000000000E+00 0. -1.
         11    1    3    3    0    0 -0.93921127891E+01  0.57346722457E+01  0.20517390293E+02  0.23282215382E+02  0.51100000000E-03 0. -1.
        -11    1    3    3    0    0  0.15701693382E+01 -0.44043648039E+01  0.14562981422E+02  0.15295237469E+02  0.51100000000E-03 0.  1.
         12    1    3    3    0    0  0.33835070930E+01  0.34890791417E+01  0.78229750218E+01  0.92098171370E+01  0.00000000000E+00 0. -1.
</event>
<event>
 7    1  0.4477737E-009  0.4778727E+02  0.7816164E-02  0.1312668E+00
        -11   -1    0    0    0    0  0.00000000000E+00  0.00000000000E+00  0.45593999997E+02  0.45594000000E+02  0.51100000000E-03 0.  1.
         11   -1    0    0    0    0 -0.00000000000E+00 -0.00000000000E+00 -0.45593999997E+02  0.45594000000E+02  0.51100000000E-03 0. -1.
    9900012    2    1    2    0    0  0.81605395941E+00  0.57646829547E+01  0.43008436776E+02  0.47787272499E+02  0.20000006634E+02 0.  0.
         12    1    1    2    0    0 -0.81605395941E+00 -0.57646829547E+01 -0.43008436776E+02  0.43400727501E+02  0.00000000000E+00 0. -1.
         11    1    3    3    0    0 -0.19708943843E+01 -0.49821300969E+01  0.24123560444E+02  0.24711378224E+02  0.51100000000E-03 0. -1.
        -11    1    3    3    0    0 -0.14015631852E+01  0.71990064714E+01  0.13624583057E+02  0.15473181227E+02  0.51100000000E-03 0.  1.
         12    1    3    3    0    0  0.41885115289E+01  0.35478065801E+01  0.52602932755E+01  0.76027130488E+01  0.00000000000E+00 0. -1.
</event>
<event>
 7    1  0.4477737E-009  0.4778728E+02  0.7816164E-02  0.1312668E+00
        -11   -1    0    0    0    0  0.00000000000E+00  0.00000000000E+00  0.45593999997E+02  0.45594000000E+02  0.51100000000E-03 0. -1.
         11   -1    0    0    0    0 -0.00000000000E+00 -0.00000000000E+00 -0.45593999997E+02  0.45594000000E+02  0.51100000000E-03 0.  1.
    9900012    2    1    2    0    0 -0.18419193022E+02 -0.31984291743E+02 -0.22833337218E+02  0.47787275600E+02  0.20000020772E+02 0.  0.
         12    1    1    2    0    0  0.18419193022E+02  0.31984291743E+02  0.22833337218E+02  0.43400724400E+02  0.00000000000E+00 0. -1.
         11    1    3    3    0    0 -0.65040466162E+01 -0.10451484498E+01 -0.68975536718E+01  0.95378826049E+01  0.51100000000E-03 0. -1.
        -11    1    3    3    0    0 -0.10506941405E+02 -0.30875951673E+02 -0.16704599996E+02  0.36643742586E+02  0.51100000000E-03 0.  1.
        -12    1    3    3    0    0 -0.14082050002E+01 -0.63191620637E-01  0.76881644990E+00  0.16056504094E+01  0.00000000000E+00 0.  1.
</event>
<event>
 7    1  0.4477737E-009  0.4778728E+02  0.7816164E-02  0.1312668E+00
        -11   -1    0    0    0    0  0.00000000000E+00  0.00000000000E+00  0.45593999997E+02  0.45594000000E+02  0.51100000000E-03 0.  1.
         11   -1    0    0    0    0 -0.00000000000E+00 -0.00000000000E+00 -0.45593999997E+02  0.45594000000E+02  0.51100000000E-03 0. -1.
    9900012    2    1    2    0    0  0.22796818199E+02  0.61714709616E+01  0.36412098539E+02  0.47787275422E+02  0.20000019961E+02 0.  0.
         12    1    1    2    0    0 -0.22796818199E+02 -0.61714709616E+01 -0.36412098539E+02  0.43400724578E+02  0.00000000000E+00 0. -1.
         11    1    3    3    0    0 -0.19889382582E+01  0.53123882562E+01  0.51859137649E+01  0.76857690713E+01  0.51100000000E-03 0. -1.
        -11    1    3    3    0    0  0.91216848091E+00 -0.54483552444E+00  0.25464361135E+01  0.27592089858E+01  0.51100000000E-03 0.  1.
         12    1    3    3    0    0  0.23873587976E+02  0.14039182298E+01  0.28679748661E+02  0.37342297365E+02  0.00000000000E+00 0. -1.
</event>
<event>
 7    1  0.4477737E-009  0.4778727E+02  0.7816164E-02  0.1312668E+00
        -11   -1    0    0    0    0  0.00000000000E+00  0.00000000000E+00  0.45593999997E+02  0.45594000000E+02  0.51100000000E-03 0.  1.
         11   -1    0    0    0    0 -0.00000000000E+00 -0.00000000000E+00 -0.45593999997E+02  0.45594000000E+02  0.51100000000E-03 0. -1.
    9900012    2    1    2    0    0 -0.40227506559E+02 -0.12300626043E+01  0.16243701302E+02  0.47787272242E+02  0.20000005459E+02 0.  0.
         12    1    1    2    0    0  0.40227506559E+02  0.12300626043E+01 -0.16243701302E+02  0.43400727758E+02  0.00000000000E+00 0. -1.
         11    1    3    3    0    0 -0.14034049438E+02 -0.39928635730E+01 -0.82180711439E+00  0.14614132555E+02  0.51100000000E-03 0. -1.
        -11    1    3    3    0    0 -0.15736035855E+02  0.67394873484E+01  0.86933442094E+01  0.19199420511E+02  0.51100000000E-03 0.  1.
         12    1    3    3    0    0 -0.10457421266E+02 -0.39766863797E+01  0.83721642073E+01  0.13973719176E+02  0.00000000000E+00 0. -1.
</event>
<event>
 7    1  0.4477737E-009  0.4778727E+02  0.7816164E-02  0.1312668E+00
        -11   -1    0    0    0    0  0.00000000000E+00  0.00000000000E+00  0.45593999997E+02  0.45594000000E+02  0.51100000000E-03 0.  1.
         11   -1    0    0    0    0 -0.00000000000E+00 -0.00000000000E+00 -0.45593999997E+02  0.45594000000E+02  0.51100000000E-03 0. -1.
    9900012    2    1    2    0    0  0.13295679782E+01  0.42429076596E+02  0.90348762765E+01  0.47787270960E+02  0.19999999617E+02 0.  0.
         12    1    1    2    0    0 -0.13295679782E+01 -0.42429076596E+02 -0.90348762765E+01  0.43400729040E+02  0.00000000000E+00 0. -1.
         11    1    3    3    0    0 -0.24925523557E+01  0.11658207565E+02 -0.28655218844E+01  0.12261233087E+02  0.51100000000E-03 0. -1.
        -11    1    3    3    0    0  0.69902814054E+01  0.28687112539E+02  0.11595628389E+02  0.31721807293E+02  0.51100000000E-03 0.  1.
        -12    1    3    3    0    0 -0.31681610715E+01  0.20837564925E+01  0.30476977161E+00  0.38042305804E+01  0.00000000000E+00 0.  1.
</event>
<event>
 7    1  0.4477737E-009  0.4778728E+02  0.7816164E-02  0.1312668E+00
        -11   -1    0    0    0    0  0.00000000000E+00  0.00000000000E+00  0.45593999997E+02  0.45594000000E+02  0.51100000000E-03 0. -1.
         11   -1    0    0    0    0 -0.00000000000E+00 -0.00000000000E+00 -0.45593999997E+02  0.45594000000E+02  0.51100000000E-03 0.  1.
    9900012    2    1    2    0    0  0.23707850838E+02  0.31620349223E+02 -0.17936381199E+02  0.47787280572E+02  0.20000043442E+02 0.  0.
         12    1    1    2    0    0 -0.23707850838E+02 -0.31620349223E+02  0.17936381199E+02  0.43400719428E+02  0.00000000000E+00 0. -1.
         11    1    3    3    0    0  0.93884398334E+01  0.31545749625E+01 -0.14220296416E+01  0.10005814023E+02  0.51100000000E-03 0. -1.
        -11    1    3    3    0    0 -0.49293455018E+00  0.77169993454E+01 -0.74131265441E+01  0.10712119715E+02  0.51100000000E-03 0.  1.
        -12    1    3    3    0    0  0.14812345555E+02  0.20748774915E+02 -0.91012250131E+01  0.27069346834E+02  0.00000000000E+00 0.  1.
</event>
<event>
 7    1  0.4477737E-009  0.4778727E+02  0.7816164E-02  0.1312668E+00
        -11   -1    0    0    0    0  0.00000000000E+00  0.00000000000E+00  0.45593999997E+02  0.45594000000E+02  0.51100000000E-03 0.  1.
         11   -1    0    0    0    0 -0.00000000000E+00 -0.00000000000E+00 -0.45593999997E+02  0.45594000000E+02  0.51100000000E-03 0. -1.
    9900012    2    1    2    0    0 -0.29075657245E+02  0.23496028823E+02 -0.22049179101E+02  0.47787268281E+02  0.19999987402E+02 0.  0.
         12    1    1    2    0    0  0.29075657245E+02 -0.23496028823E+02  0.22049179101E+02  0.43400731719E+02  0.00000000000E+00 0. -1.
         11    1    3    3    0    0 -0.16531071374E+02  0.97939631021E+01 -0.13757621988E+02  0.23631974041E+02  0.51100000000E-03 0. -1.
        -11    1    3    3    0    0 -0.16835465794E+01  0.45135331224E+01  0.32708615204E+01  0.58227867623E+01  0.51100000000E-03 0.  1.
        -12    1    3    3    0    0 -0.10861039292E+02  0.91885325984E+01 -0.11562418633E+02  0.18332507478E+02  0.00000000000E+00 0.  1.
</event>
<event>
 7    1  0.4477737E-009  0.4778727E+02  0.7816164E-02  0.1312668E+00
        -11   -1    0    0    0    0  0.00000000000E+00  0.00000000000E+00  0.45593999997E+02  0.45594000000E+02  0.51100000000E-03 0.  1.
         11   -1    0    0    0    0 -0.00000000000E+00 -0.00000000000E+00 -0.45593999997E+02  0.45594000000E+02  0.51100000000E-03 0. -1.
    9900012    2    1    2    0    0 -0.28212049453E+02 -0.58395926447E+01  0.32459244296E+02  0.47787272853E+02  0.20000008246E+02 0.  0.
         12    1    1    2    0    0  0.28212049453E+02  0.58395926447E+01 -0.32459244296E+02  0.43400727147E+02  0.00000000000E+00 0. -1.
         11    1    3    3    0    0 -0.26870877660E+01 -0.23603455732E+01 -0.13154365003E+01  0.38107801477E+01  0.51100000000E-03 0. -1.
        -11    1    3    3    0    0 -0.22547941257E+02  0.12195686018E+01  0.27751825437E+02  0.35777937586E+02  0.51100000000E-03 0.  1.
        -12    1    3    3    0    0 -0.29770204301E+01 -0.46988156733E+01  0.60228553592E+01  0.81985551197E+01  0.00000000000E+00 0.  1.
</event>
<event>
 7    1  0.4477737E-009  0.4778733E+02  0.7816164E-02  0.1312668E+00
        -11   -1    0    0    0    0  0.00000000000E+00  0.00000000000E+00  0.45593999997E+02  0.45594000000E+02  0.51100000000E-03 0.  1.
         11   -1    0    0    0    0 -0.00000000000E+00 -0.00000000000E+00 -0.45593999997E+02  0.45594000000E+02  0.51100000000E-03 0. -1.
    9900012    2    1    2    0    0 -0.31192232913E+02  0.21491599755E+02  0.21184287016E+02  0.47787328685E+02  0.20000262807E+02 0.  0.
         12    1    1    2    0    0  0.31192232913E+02 -0.21491599755E+02 -0.21184287016E+02  0.43400671315E+02  0.00000000000E+00 0. -1.
         11    1    3    3    0    0 -0.61431166331E+01  0.37746126980E+01 -0.74987829360E+00  0.72489930821E+01  0.51100000000E-03 0. -1.
        -11    1    3    3    0    0 -0.17701627726E+02  0.55453768067E+01  0.17856215453E+02  0.25747684529E+02  0.51100000000E-03 0.  1.
        -12    1    3    3    0    0 -0.73474885547E+01  0.12171610251E+02  0.40779498570E+01  0.14790651074E+02  0.00000000000E+00 0.  1.
</event>
<event>
 7    1  0.4477737E-009  0.4778725E+02  0.7816164E-02  0.1312668E+00
        -11   -1    0    0    0    0  0.00000000000E+00  0.00000000000E+00  0.45593999997E+02  0.45594000000E+02  0.51100000000E-03 0. -1.
         11   -1    0    0    0    0 -0.00000000000E+00 -0.00000000000E+00 -0.45593999997E+02  0.45594000000E+02  0.51100000000E-03 0.  1.
    9900012    2    1    2    0    0 -0.40793039128E+02  0.11313766423E+02 -0.95682654059E+01  0.47787250527E+02  0.19999906450E+02 0.  0.
         12    1    1    2    0    0  0.40793039128E+02 -0.11313766423E+02  0.95682654059E+01  0.43400749473E+02  0.00000000000E+00 0. -1.
         11    1    3    3    0    0 -0.50900804227E+00  0.12407572078E+01 -0.98924893738E+00  0.16664877308E+01  0.51100000000E-03 0. -1.
        -11    1    3    3    0    0 -0.33762971325E+02  0.29260151643E+01 -0.11263619729E+01  0.33908236301E+02  0.51100000000E-03 0.  1.
        -12    1    3    3    0    0 -0.65210597605E+01  0.71469940509E+01 -0.74526544956E+01  0.12212526495E+02  0.00000000000E+00 0.  1.
</event>
<event>
 7    1  0.4477737E-009  0.4778727E+02  0.7816164E-02  0.1312668E+00
        -11   -1    0    0    0    0  0.00000000000E+00  0.00000000000E+00  0.45593999997E+02  0.45594000000E+02  0.51100000000E-03 0. -1.
         11   -1    0    0    0    0 -0.00000000000E+00 -0.00000000000E+00 -0.45593999997E+02  0.45594000000E+02  0.51100000000E-03 0.  1.
    9900012    2    1    2    0    0  0.28485737587E+01 -0.43287997421E+02  0.12877318083E+01  0.47787270210E+02  0.19999996193E+02 0.  0.
         12    1    1    2    0    0 -0.28485737587E+01  0.43287997421E+02 -0.12877318083E+01  0.43400729790E+02  0.00000000000E+00 0. -1.
         11    1    3    3    0    0 -0.12023257081E+01 -0.22251412475E+02 -0.72781752288E+01  0.23442328792E+02  0.51100000000E-03 0. -1.
        -11    1    3    3    0    0  0.26262509865E+01 -0.19792019132E+02  0.96385178633E+01  0.22170300910E+02  0.51100000000E-03 0.  1.
        -12    1    3    3    0    0  0.14246484802E+01 -0.12445658134E+01 -0.10726108262E+01  0.21746405084E+01  0.00000000000E+00 0.  1.
</event>
<event>
 7    1  0.4477737E-009  0.4778727E+02  0.7816164E-02  0.1312668E+00
        -11   -1    0    0    0    0  0.00000000000E+00  0.00000000000E+00  0.45593999997E+02  0.45594000000E+02  0.51100000000E-03 0.  1.
         11   -1    0    0    0    0 -0.00000000000E+00 -0.00000000000E+00 -0.45593999997E+02  0.45594000000E+02  0.51100000000E-03 0. -1.
    9900012    2    1    2    0    0  0.29771681354E+02 -0.83765111329E+01  0.30448390483E+02  0.47787269218E+02  0.19999991673E+02 0.  0.
         12    1    1    2    0    0 -0.29771681354E+02  0.83765111329E+01 -0.30448390483E+02  0.43400730782E+02  0.00000000000E+00 0. -1.
         11    1    3    3    0    0  0.12001712762E+02  0.58222152816E+01  0.88847498736E+01  0.16027416529E+02  0.51100000000E-03 0. -1.
        -11    1    3    3    0    0  0.17433670949E+02 -0.13694009027E+02  0.21815953839E+02  0.31102967835E+02  0.51100000000E-03 0.  1.
        -12    1    3    3    0    0  0.33629764298E+00 -0.50471738736E+00 -0.25231322945E+00  0.65688485409E+00  0.00000000000E+00 0.  1.
</event>
<event>
 7    1  0.4477737E-009  0.4778727E+02  0.7816164E-02  0.1312668E+00
        -11   -1    0    0    0    0  0.00000000000E+00  0.00000000000E+00  0.45593999997E+02  0.45594000000E+02  0.51100000000E-03 0. -1.
         11   -1    0    0    0    0 -0.00000000000E+00 -0.00000000000E+00 -0.45593999997E+02  0.45594000000E+02  0.51100000000E-03 0.  1.
    9900012    2    1    2    0    0  0.41573470616E+02 -0.18826092042E+01 -0.12317711619E+02  0.47787266181E+02  0.19999977826E+02 0.  0.
         12    1    1    2    0    0 -0.41573470616E+02  0.18826092042E+01  0.12317711619E+02  0.43400733819E+02  0.00000000000E+00 0. -1.
         11    1    3    3    0    0  0.97861343636E+01  0.72798332452E+00 -0.58322877091E+01  0.11415514254E+02  0.51100000000E-03 0. -1.
        -11    1    3    3    0    0  0.14001348143E+02 -0.11852651326E+01 -0.11140039430E+02  0.17931622404E+02  0.51100000000E-03 0.  1.
        -12    1    3    3    0    0  0.17785988109E+02 -0.14253273961E+01  0.46546155196E+01  0.18440129523E+02  0.00000000000E+00 0.  1.
</event>
<event>
 7    1  0.4477737E-009  0.4778727E+02  0.7816164E-02  0.1312668E+00
        -11   -1    0    0    0    0  0.00000000000E+00  0.00000000000E+00  0.45593999997E+02  0.45594000000E+02  0.51100000000E-03 0.  1.
         11   -1    0    0    0    0 -0.00000000000E+00 -0.00000000000E+00 -0.45593999997E+02  0.45594000000E+02  0.51100000000E-03 0. -1.
    9900012    2    1    2    0    0 -0.29790386141E+02 -0.27636646441E+02  0.15243743147E+02  0.47787273761E+02  0.20000012386E+02 0.  0.
         12    1    1    2    0    0  0.29790386141E+02  0.27636646441E+02 -0.15243743147E+02  0.43400726239E+02  0.00000000000E+00 0. -1.
         11    1    3    3    0    0  0.16453987682E+01 -0.25095037730E+01  0.27364177359E+00  0.30132750247E+01  0.51100000000E-03 0. -1.
        -11    1    3    3    0    0 -0.17374382453E+02 -0.64656878113E+01  0.92497126637E+01  0.20717902141E+02  0.51100000000E-03 0.  1.
        -12    1    3    3    0    0 -0.14061402456E+02 -0.18661454857E+02  0.57203887096E+01  0.24056096595E+02  0.00000000000E+00 0.  1.
</event>
<event>
 7    1  0.4477737E-009  0.4778727E+02  0.7816164E-02  0.1312668E+00
        -11   -1    0    0    0    0  0.00000000000E+00  0.00000000000E+00  0.45593999997E+02  0.45594000000E+02  0.51100000000E-03 0.  1.
         11   -1    0    0    0    0 -0.00000000000E+00 -0.00000000000E+00 -0.45593999997E+02  0.45594000000E+02  0.51100000000E-03 0. -1.
    9900012    2    1    2    0    0 -0.27695658284E+02  0.38937535557E+01  0.33187531089E+02  0.47787273920E+02  0.20000013109E+02 0.  0.
         12    1    1    2    0    0  0.27695658284E+02 -0.38937535557E+01 -0.33187531089E+02  0.43400726080E+02  0.00000000000E+00 0. -1.
         11    1    3    3    0    0 -0.20440311974E+02 -0.24883361346E+01  0.24259942586E+02  0.31820480588E+02  0.51100000000E-03 0. -1.
        -11    1    3    3    0    0 -0.61846332199E+01 -0.54539857427E+00  0.46244084771E+01  0.77415955522E+01  0.51100000000E-03 0.  1.
         12    1    3    3    0    0 -0.10707130901E+01  0.69274882646E+01  0.43031800258E+01  0.82251977795E+01  0.00000000000E+00 0. -1.
</event>
<event>
 7    1  0.4477737E-009  0.4778727E+02  0.7816164E-02  0.1312668E+00
        -11   -1    0    0    0    0  0.00000000000E+00  0.00000000000E+00  0.45593999997E+02  0.45594000000E+02  0.51100000000E-03 0. -1.
         11   -1    0    0    0    0 -0.00000000000E+00 -0.00000000000E+00 -0.45593999997E+02  0.45594000000E+02  0.51100000000E-03 0.  1.
    9900012    2    1    2    0    0  0.28720694529E+02  0.28116448898E+02 -0.16377120761E+02  0.47787273309E+02  0.20000010325E+02 0.  0.
         12    1    1    2    0    0 -0.28720694529E+02 -0.28116448898E+02  0.16377120761E+02  0.43400726691E+02  0.00000000000E+00 0. -1.
         11    1    3    3    0    0  0.42373147900E+01  0.19648774099E+01 -0.63040472989E+00  0.47130659077E+01  0.51100000000E-03 0. -1.
        -11    1    3    3    0    0  0.13150927276E+02  0.25532466353E+02 -0.11941883974E+02  0.31104056317E+02  0.51100000000E-03 0.  1.
        -12    1    3    3    0    0  0.11332452463E+02  0.61910513545E+00 -0.38048320580E+01  0.11970151084E+02  0.00000000000E+00 0.  1.
</event>
<event>
 7    1  0.4477737E-009  0.4778727E+02  0.7816164E-02  0.1312668E+00
        -11   -1    0    0    0    0  0.00000000000E+00  0.00000000000E+00  0.45593999997E+02  0.45594000000E+02  0.51100000000E-03 0. -1.
         11   -1    0    0    0    0 -0.00000000000E+00 -0.00000000000E+00 -0.45593999997E+02  0.45594000000E+02  0.51100000000E-03 0.  1.
    9900012    2    1    2    0    0 -0.21015151472E+02  0.13504379804E+02 -0.35491098842E+02  0.47787274634E+02  0.20000016366E+02 0.  0.
         12    1    1    2    0    0  0.21015151472E+02 -0.13504379804E+02  0.35491098842E+02  0.43400725366E+02  0.00000000000E+00 0. -1.
         11    1    3    3    0    0  0.15015219981E+01 -0.22756720109E+01 -0.35856243720E+01  0.45044371247E+01  0.51100000000E-03 0. -1.
        -11    1    3    3    0    0 -0.21827130956E+02  0.13021955850E+02 -0.24301309115E+02  0.35164593058E+02  0.51100000000E-03 0.  1.
         12    1    3    3    0    0 -0.68954251365E+00  0.27580959649E+01 -0.76041653547E+01  0.81182444513E+01  0.00000000000E+00 0. -1.
</event>
<event>
 7    1  0.4477737E-009  0.4778727E+02  0.7816164E-02  0.1312668E+00
        -11   -1    0    0    0    0  0.00000000000E+00  0.00000000000E+00  0.45593999997E+02  0.45594000000E+02  0.51100000000E-03 0. -1.
         11   -1    0    0    0    0 -0.00000000000E+00 -0.00000000000E+00 -0.45593999997E+02  0.45594000000E+02  0.51100000000E-03 0.  1.
    9900012    2    1    2    0    0 -0.23583658968E+02 -0.32910662790E+02 -0.15630828930E+02  0.47787268340E+02  0.19999987668E+02 0.  0.
         12    1    1    2    0    0  0.23583658968E+02  0.32910662790E+02  0.15630828930E+02  0.43400731660E+02  0.00000000000E+00 0. -1.
         11    1    3    3    0    0 -0.18796380190E+01 -0.68702356942E+01 -0.10266861877E+02  0.12495664473E+02  0.51100000000E-03 0. -1.
        -11    1    3    3    0    0 -0.68339753440E+01 -0.11360678321E+02  0.13935287622E+01  0.13330797185E+02  0.51100000000E-03 0.  1.
         12    1    3    3    0    0 -0.14870045605E+02 -0.14679748775E+02 -0.67574958155E+01  0.21960806682E+02  0.00000000000E+00 0. -1.
</event>
<event>
 7    1  0.4477737E-009  0.4778727E+02  0.7816164E-02  0.1312668E+00
        -11   -1    0    0    0    0  0.00000000000E+00  0.00000000000E+00  0.45593999997E+02  0.45594000000E+02  0.51100000000E-03 0. -1.
         11   -1    0    0    0    0 -0.00000000000E+00 -0.00000000000E+00 -0.45593999997E+02  0.45594000000E+02  0.51100000000E-03 0.  1.
    9900012    2    1    2    0    0 -0.26809549771E+02  0.14413612046E+02 -0.30937337528E+02  0.47787273918E+02  0.20000013101E+02 0.  0.
         12    1    1    2    0    0  0.26809549771E+02 -0.14413612046E+02  0.30937337528E+02  0.43400726082E+02  0.00000000000E+00 0. -1.
         11    1    3    3    0    0 -0.64899749129E+01  0.87355818887E+01 -0.10230835227E+02  0.14936537584E+02  0.51100000000E-03 0. -1.
        -11    1    3    3    0    0 -0.13185540145E+02  0.17641671691E+01 -0.34059729381E+01  0.13732130448E+02  0.51100000000E-03 0.  1.
        -12    1    3    3    0    0 -0.71340347133E+01  0.39138629879E+01 -0.17300529363E+02  0.19118605886E+02  0.00000000000E+00 0.  1.
</event>
<event>
 7    1  0.4477737E-009  0.4778727E+02  0.7816164E-02  0.1312668E+00
        -11   -1    0    0    0    0  0.00000000000E+00  0.00000000000E+00  0.45593999997E+02  0.45594000000E+02  0.51100000000E-03 0.  1.
         11   -1    0    0    0    0 -0.00000000000E+00 -0.00000000000E+00 -0.45593999997E+02  0.45594000000E+02  0.51100000000E-03 0. -1.
    9900012    2    1    2    0    0 -0.32724656209E+01 -0.32278754827E+02 -0.28827011860E+02  0.47787266628E+02  0.19999979864E+02 0.  0.
         12    1    1    2    0    0  0.32724656209E+01  0.32278754827E+02  0.28827011860E+02  0.43400733372E+02  0.00000000000E+00 0. -1.
         11    1    3    3    0    0  0.17489849730E+01 -0.14612555361E+02 -0.18854703624E+01  0.14837139932E+02  0.51100000000E-03 0. -1.
        -11    1    3    3    0    0 -0.47742780010E+01 -0.85347076482E+01 -0.12663535390E+02  0.16000002934E+02  0.51100000000E-03 0.  1.
         12    1    3    3    0    0 -0.24717259294E+00 -0.91314918175E+01 -0.14278006108E+02  0.16950123761E+02  0.00000000000E+00 0. -1.
</event>
<event>
 7    1  0.4477737E-009  0.4778727E+02  0.7816164E-02  0.1312668E+00
        -11   -1    0    0    0    0  0.00000000000E+00  0.00000000000E+00  0.45593999997E+02  0.45594000000E+02  0.51100000000E-03 0.  1.
         11   -1    0    0    0    0 -0.00000000000E+00 -0.00000000000E+00 -0.45593999997E+02  0.45594000000E+02  0.51100000000E-03 0. -1.
    9900012    2    1    2    0    0  0.69519530114E+01  0.27321821611E+02  0.32997147333E+02  0.47787270525E+02  0.19999997634E+02 0.  0.
         12    1    1    2    0    0 -0.69519530114E+01 -0.27321821611E+02 -0.32997147333E+02  0.43400729475E+02  0.00000000000E+00 0. -1.
         11    1    3    3    0    0  0.70647339242E+01  0.15806556895E+02  0.13393811460E+02  0.21889538414E+02  0.51100000000E-03 0. -1.
        -11    1    3    3    0    0 -0.16027998368E+00 -0.27002016781E+01  0.33120978868E+01  0.42763034795E+01  0.51100000000E-03 0.  1.
        -12    1    3    3    0    0  0.47499070863E-01  0.14215466395E+02  0.16291237986E+02  0.21621428632E+02  0.00000000000E+00 0.  1.
</event>
<event>
 7    1  0.4477737E-009  0.4778727E+02  0.7816164E-02  0.1312668E+00
        -11   -1    0    0    0    0  0.00000000000E+00  0.00000000000E+00  0.45593999997E+02  0.45594000000E+02  0.51100000000E-03 0.  1.
         11   -1    0    0    0    0 -0.00000000000E+00 -0.00000000000E+00 -0.45593999997E+02  0.45594000000E+02  0.51100000000E-03 0. -1.
    9900012    2    1    2    0    0 -0.32159422038E+02 -0.55611558680E+01  0.28608887906E+02  0.47787270195E+02  0.19999996127E+02 0.  0.
         12    1    1    2    0    0  0.32159422038E+02  0.55611558680E+01 -0.28608887906E+02  0.43400729805E+02  0.00000000000E+00 0. -1.
         11    1    3    3    0    0 -0.15372377105E+02 -0.26158936424E+01  0.29380287529E+01  0.15867731111E+02  0.51100000000E-03 0. -1.
        -11    1    3    3    0    0 -0.15458507234E+02 -0.52114748044E+01  0.21461882555E+02  0.26958065929E+02  0.51100000000E-03 0.  1.
        -12    1    3    3    0    0 -0.13285376988E+01  0.22662125787E+01  0.42089765978E+01  0.49614731552E+01  0.00000000000E+00 0.  1.
</event>
<event>
 7    1  0.4477737E-009  0.4778728E+02  0.7816164E-02  0.1312668E+00
        -11   -1    0    0    0    0  0.00000000000E+00  0.00000000000E+00  0.45593999997E+02  0.45594000000E+02  0.51100000000E-03 0.  1.
         11   -1    0    0    0    0 -0.00000000000E+00 -0.00000000000E+00 -0.45593999997E+02  0.45594000000E+02  0.51100000000E-03 0. -1.
    9900012    2    1    2    0    0  0.20600891868E+02  0.38022097402E+01  0.38010119129E+02  0.47787277646E+02  0.20000030100E+02 0.  0.
         12    1    1    2    0    0 -0.20600891868E+02 -0.38022097402E+01 -0.38010119129E+02  0.43400722354E+02  0.00000000000E+00 0. -1.
         11    1    3    3    0    0  0.89428780152E+01 -0.18524305000E+01  0.42529109475E+01  0.10074414015E+02  0.51100000000E-03 0. -1.
        -11    1    3    3    0    0  0.89413528922E+00  0.21446564740E+01  0.18855406549E+02  0.18998036364E+02  0.51100000000E-03 0.  1.
        -12    1    3    3    0    0  0.10763878563E+02  0.35099837662E+01  0.14901801633E+02  0.18714827268E+02  0.00000000000E+00 0.  1.
</event>
<event>
 7    1  0.4477737E-009  0.4778729E+02  0.7816164E-02  0.1312668E+00
        -11   -1    0    0    0    0  0.00000000000E+00  0.00000000000E+00  0.45593999997E+02  0.45594000000E+02  0.51100000000E-03 0. -1.
         11   -1    0    0    0    0 -0.00000000000E+00 -0.00000000000E+00 -0.45593999997E+02  0.45594000000E+02  0.51100000000E-03 0.  1.
    9900012    2    1    2    0    0 -0.59180079788E+01  0.42981508361E+02 -0.10903279844E+01  0.47787289239E+02  0.20000082958E+02 0.  0.
         12    1    1    2    0    0  0.59180079788E+01 -0.42981508361E+02  0.10903279844E+01  0.43400710761E+02  0.00000000000E+00 0. -1.
         11    1    3    3    0    0  0.36066050045E+01  0.21931206770E+02 -0.53364471218E+01  0.22857451700E+02  0.51100000000E-03 0. -1.
        -11    1    3    3    0    0 -0.82706828626E+00 -0.61772520971E+00 -0.42906005495E+00  0.11179083937E+01  0.51100000000E-03 0.  1.
         12    1    3    3    0    0 -0.86975446971E+01  0.21668026800E+02  0.46751791923E+01  0.23811929146E+02  0.00000000000E+00 0. -1.
</event>
<event>
 7    1  0.4477737E-009  0.4778727E+02  0.7816164E-02  0.1312668E+00
        -11   -1    0    0    0    0  0.00000000000E+00  0.00000000000E+00  0.45593999997E+02  0.45594000000E+02  0.51100000000E-03 0.  1.
         11   -1    0    0    0    0 -0.00000000000E+00 -0.00000000000E+00 -0.45593999997E+02  0.45594000000E+02  0.51100000000E-03 0. -1.
    9900012    2    1    2    0    0 -0.18871861992E+02 -0.26447024381E+02 -0.28775526999E+02  0.47787271576E+02  0.20000002425E+02 0.  0.
         12    1    1    2    0    0  0.18871861992E+02  0.26447024381E+02  0.28775526999E+02  0.43400728424E+02  0.00000000000E+00 0. -1.
         11    1    3    3    0    0 -0.31292388884E+01  0.63959074014E+00  0.17953401192E+01  0.36639403298E+01  0.51100000000E-03 0. -1.
        -11    1    3    3    0    0 -0.81866675401E+00 -0.48699251794E+01 -0.34777218819E+01  0.60399450540E+01  0.51100000000E-03 0.  1.
         12    1    3    3    0    0 -0.14923956350E+02 -0.22216689941E+02 -0.27093145237E+02  0.38083386192E+02  0.00000000000E+00 0. -1.
</event>
<event>
 7    1  0.4477737E-009  0.4778727E+02  0.7816164E-02  0.1312668E+00
        -11   -1    0    0    0    0  0.00000000000E+00  0.00000000000E+00  0.45593999997E+02  0.45594000000E+02  0.51100000000E-03 0.  1.
         11   -1    0    0    0    0 -0.00000000000E+00 -0.00000000000E+00 -0.45593999997E+02  0.45594000000E+02  0.51100000000E-03 0. -1.
    9900012    2    1    2    0    0  0.67327684794E+01  0.36648526259E+02  0.22252617841E+02  0.47787266721E+02  0.19999980290E+02 0.  0.
         12    1    1    2    0    0 -0.67327684794E+01 -0.36648526259E+02 -0.22252617841E+02  0.43400733279E+02  0.00000000000E+00 0. -1.
         11    1    3    3    0    0  0.22230967666E+00 -0.14070333745E+01  0.16762518480E+01  0.21997693125E+01  0.51100000000E-03 0. -1.
        -11    1    3    3    0    0  0.95497474984E+01  0.23010761203E+02  0.95175720777E+01  0.26669776657E+02  0.51100000000E-03 0.  1.
        -12    1    3    3    0    0 -0.30392886956E+01  0.15044798430E+02  0.11058793915E+02  0.18917720752E+02  0.00000000000E+00 0.  1.
</event>
<event>
 7    1  0.4477737E-009  0.4778730E+02  0.7816164E-02  0.1312668E+00
        -11   -1    0    0    0    0  0.00000000000E+00  0.00000000000E+00  0.45593999997E+02  0.45594000000E+02  0.51100000000E-03 0.  1.
         11   -1    0    0    0    0 -0.00000000000E+00 -0.00000000000E+00 -0.45593999997E+02  0.45594000000E+02  0.51100000000E-03 0. -1.
    9900012    2    1    2    0    0 -0.33992940839E+02 -0.83932607835E+01  0.25644759077E+02  0.47787302753E+02  0.20000144570E+02 0.  0.
         12    1    1    2    0    0  0.33992940839E+02  0.83932607835E+01 -0.25644759077E+02  0.43400697247E+02  0.00000000000E+00 0. -1.
         11    1    3    3    0    0 -0.21220815409E+01 -0.39019910773E+01  0.59607828544E+00  0.44815258581E+01  0.51100000000E-03 0. -1.
        -11    1    3    3    0    0 -0.14657452759E+02 -0.48743471201E+01  0.20179509685E+02  0.25412846999E+02  0.51100000000E-03 0.  1.
        -12    1    3    3    0    0 -0.17213406539E+02  0.38307741389E+00  0.48691711067E+01  0.17892929896E+02  0.00000000000E+00 0.  1.
</event>
<event>
 7    1  0.6904559E-009  0.4778728E+02  0.7816164E-02  0.1312668E+00
        -11   -1    0    0    0    0  0.00000000000E+00  0.00000000000E+00  0.45593999997E+02  0.45594000000E+02  0.51100000000E-03 0.  1.
         11   -1    0    0    0    0 -0.00000000000E+00 -0.00000000000E+00 -0.45593999997E+02  0.45594000000E+02  0.51100000000E-03 0. -1.
    9900012    2    1    2    0    0  0.10376158831E+02 -0.37236589960E+02  0.19733080310E+02  0.47787276936E+02  0.20000026860E+02 0.  0.
         12    1    1    2    0    0 -0.10376158831E+02  0.37236589960E+02 -0.19733080310E+02  0.43400723064E+02  0.00000000000E+00 0. -1.
         11    1    3    3    0    0 -0.19959838896E+01 -0.18195571895E+02  0.35086884678E+01  0.18637963497E+02  0.51100000000E-03 0. -1.
        -11    1    3    3    0    0  0.37645898030E+01 -0.11614978034E+02  0.11709992097E+02  0.16917557929E+02  0.51100000000E-03 0.  1.
         12    1    3    3    0    0  0.86075529179E+01 -0.74260400316E+01  0.45143997454E+01  0.12231755510E+02  0.00000000000E+00 0. -1.
</event>
<event>
 7    1  0.4477737E-009  0.4778730E+02  0.7816164E-02  0.1312668E+00
        -11   -1    0    0    0    0  0.00000000000E+00  0.00000000000E+00  0.45593999997E+02  0.45594000000E+02  0.51100000000E-03 0.  1.
         11   -1    0    0    0    0 -0.00000000000E+00 -0.00000000000E+00 -0.45593999997E+02  0.45594000000E+02  0.51100000000E-03 0. -1.
    9900012    2    1    2    0    0  0.19090064921E+02  0.21515780522E+02  0.32500180938E+02  0.47787295499E+02  0.20000111499E+02 0.  0.
         12    1    1    2    0    0 -0.19090064921E+02 -0.21515780522E+02 -0.32500180938E+02  0.43400704501E+02  0.00000000000E+00 0. -1.
         11    1    3    3    0    0  0.13205593763E+02  0.19533340315E+01  0.87756235768E+01  0.15975443340E+02  0.51100000000E-03 0. -1.
        -11    1    3    3    0    0  0.44783117448E+01  0.17383303516E+02  0.17504289197E+02  0.25072587776E+02  0.51100000000E-03 0.  1.
         12    1    3    3    0    0  0.14061594125E+01  0.21791429740E+01  0.62202681644E+01  0.67392643836E+01  0.00000000000E+00 0. -1.
</event>
<event>
 7    1  0.4477737E-009  0.4778727E+02  0.7816164E-02  0.1312668E+00
        -11   -1    0    0    0    0  0.00000000000E+00  0.00000000000E+00  0.45593999997E+02  0.45594000000E+02  0.51100000000E-03 0. -1.
         11   -1    0    0    0    0 -0.00000000000E+00 -0.00000000000E+00 -0.45593999997E+02  0.45594000000E+02  0.51100000000E-03 0.  1.
    9900012    2    1    2    0    0  0.87768241671E+01  0.28348458198E+02 -0.31669471984E+02  0.47787272121E+02  0.20000004909E+02 0.  0.
         12    1    1    2    0    0 -0.87768241671E+01 -0.28348458198E+02  0.31669471984E+02  0.43400727879E+02  0.00000000000E+00 0. -1.
         11    1    3    3    0    0 -0.41666970128E+01  0.15626976574E+02 -0.16979616584E+02  0.23449331343E+02  0.51100000000E-03 0. -1.
        -11    1    3    3    0    0  0.90859508252E+01  0.46850890476E+01 -0.58236008673E+01  0.11765155720E+02  0.51100000000E-03 0.  1.
         12    1    3    3    0    0  0.38575703547E+01  0.80363925763E+01 -0.88662545331E+01  0.12572785059E+02  0.00000000000E+00 0. -1.
</event>
<event>
 7    1  0.4477737E-009  0.4778727E+02  0.7816164E-02  0.1312668E+00
        -11   -1    0    0    0    0  0.00000000000E+00  0.00000000000E+00  0.45593999997E+02  0.45594000000E+02  0.51100000000E-03 0. -1.
         11   -1    0    0    0    0 -0.00000000000E+00 -0.00000000000E+00 -0.45593999997E+02  0.45594000000E+02  0.51100000000E-03 0.  1.
    9900012    2    1    2    0    0 -0.23623180390E+02  0.15774433591E+01 -0.36374171190E+02  0.47787270639E+02  0.19999998154E+02 0.  0.
         12    1    1    2    0    0  0.23623180390E+02 -0.15774433591E+01  0.36374171190E+02  0.43400729361E+02  0.00000000000E+00 0. -1.
         11    1    3    3    0    0  0.14123469677E+01 -0.34621459844E+01 -0.17164027694E+01  0.41142699841E+01  0.51100000000E-03 0. -1.
        -11    1    3    3    0    0 -0.19112029135E+02  0.68337628819E+01 -0.24997304911E+02  0.32199925868E+02  0.51100000000E-03 0.  1.
         12    1    3    3    0    0 -0.59234982226E+01 -0.17941735384E+01 -0.96604635089E+01  0.11473074788E+02  0.00000000000E+00 0. -1.
</event>
<event>
 7    1  0.4477737E-009  0.4778727E+02  0.7816164E-02  0.1312668E+00
        -11   -1    0    0    0    0  0.00000000000E+00  0.00000000000E+00  0.45593999997E+02  0.45594000000E+02  0.51100000000E-03 0.  1.
         11   -1    0    0    0    0 -0.00000000000E+00 -0.00000000000E+00 -0.45593999997E+02  0.45594000000E+02  0.51100000000E-03 0. -1.
    9900012    2    1    2    0    0  0.26657540276E+02  0.98976048416E+01  0.32787747945E+02  0.47787269010E+02  0.19999990723E+02 0.  0.
         12    1    1    2    0    0 -0.26657540276E+02 -0.98976048416E+01 -0.32787747945E+02  0.43400730990E+02  0.00000000000E+00 0. -1.
         11    1    3    3    0    0  0.88730879075E+01 -0.50780690241E-01  0.34403803328E+01  0.95168526724E+01  0.51100000000E-03 0. -1.
        -11    1    3    3    0    0  0.92674442911E+01  0.91954612959E+01  0.25989835189E+02  0.29084593267E+02  0.51100000000E-03 0.  1.
        -12    1    3    3    0    0  0.85170080772E+01  0.75292423596E+00  0.33575324241E+01  0.91858230699E+01  0.00000000000E+00 0.  1.
</event>
<event>
 7    1  0.4477737E-009  0.4778727E+02  0.7816164E-02  0.1312668E+00
        -11   -1    0    0    0    0  0.00000000000E+00  0.00000000000E+00  0.45593999997E+02  0.45594000000E+02  0.51100000000E-03 0.  1.
         11   -1    0    0    0    0 -0.00000000000E+00 -0.00000000000E+00 -0.45593999997E+02  0.45594000000E+02  0.51100000000E-03 0. -1.
    9900012    2    1    2    0    0  0.10125827732E+02 -0.42060747457E+02 -0.34619174632E+01  0.47787265716E+02  0.19999975704E+02 0.  0.
         12    1    1    2    0    0 -0.10125827732E+02  0.42060747457E+02  0.34619174632E+01  0.43400734284E+02  0.00000000000E+00 0. -1.
         11    1    3    3    0    0  0.14950172329E+01 -0.22389592787E+01  0.44037540902E+01  0.51614983800E+01  0.51100000000E-03 0. -1.
        -11    1    3    3    0    0  0.35978637415E+01 -0.29548429612E+02 -0.21681010832E+01  0.29845518569E+02  0.51100000000E-03 0.  1.
        -12    1    3    3    0    0  0.50329467573E+01 -0.10273358566E+02 -0.56975704703E+01  0.12780248767E+02  0.00000000000E+00 0.  1.
</event>
<event>
 7    1  0.4477737E-009  0.4778727E+02  0.7816164E-02  0.1312668E+00
        -11   -1    0    0    0    0  0.00000000000E+00  0.00000000000E+00  0.45593999997E+02  0.45594000000E+02  0.51100000000E-03 0. -1.
         11   -1    0    0    0    0 -0.00000000000E+00 -0.00000000000E+00 -0.45593999997E+02  0.45594000000E+02  0.51100000000E-03 0.  1.
    9900012    2    1    2    0    0 -0.78015265350E+01  0.30112328078E+02 -0.30265611774E+02  0.47787269884E+02  0.19999994708E+02 0.  0.
         12    1    1    2    0    0  0.78015265350E+01 -0.30112328078E+02  0.30265611774E+02  0.43400730116E+02  0.00000000000E+00 0. -1.
         11    1    3    3    0    0  0.83183255430E+00  0.20116839077E+02 -0.13705233973E+02  0.24355956117E+02  0.51100000000E-03 0. -1.
        -11    1    3    3    0    0  0.21850322807E+01  0.73477995325E+00 -0.18362502126E+01  0.29472161020E+01  0.51100000000E-03 0.  1.
         12    1    3    3    0    0 -0.10818391370E+02  0.92607090474E+01 -0.14724127589E+02  0.20484097665E+02  0.00000000000E+00 0. -1.
</event>
<event>
 7    1  0.4477737E-009  0.4778728E+02  0.7816164E-02  0.1312668E+00
        -11   -1    0    0    0    0  0.00000000000E+00  0.00000000000E+00  0.45593999997E+02  0.45594000000E+02  0.51100000000E-03 0. -1.
         11   -1    0    0    0    0 -0.00000000000E+00 -0.00000000000E+00 -0.45593999997E+02  0.45594000000E+02  0.51100000000E-03 0.  1.
    9900012    2    1    2    0    0 -0.28044832944E+02 -0.29212211511E+02  0.15612716882E+02  0.47787275528E+02  0.20000020444E+02 0.  0.
         12    1    1    2    0    0  0.28044832944E+02  0.29212211511E+02 -0.15612716882E+02  0.43400724472E+02  0.00000000000E+00 0. -1.
         11    1    3    3    0    0 -0.11436271873E+02 -0.53275747706E+01  0.81117486215E+01  0.14999061079E+02  0.51100000000E-03 0. -1.
        -11    1    3    3    0    0 -0.57947572805E+01 -0.15694392069E+02 -0.10328257810E+01  0.16761858003E+02  0.51100000000E-03 0.  1.
        -12    1    3    3    0    0 -0.10813803791E+02 -0.81902446709E+01  0.85337940415E+01  0.16026356446E+02  0.00000000000E+00 0.  1.
</event>
<event>
 7    1  0.4477737E-009  0.4778727E+02  0.7816164E-02  0.1312668E+00
        -11   -1    0    0    0    0  0.00000000000E+00  0.00000000000E+00  0.45593999997E+02  0.45594000000E+02  0.51100000000E-03 0.  1.
         11   -1    0    0    0    0 -0.00000000000E+00 -0.00000000000E+00 -0.45593999997E+02  0.45594000000E+02  0.51100000000E-03 0. -1.
    9900012    2    1    2    0    0 -0.65254115016E+01 -0.23492946364E+02  0.35904367915E+02  0.47787272363E+02  0.20000006010E+02 0.  0.
         12    1    1    2    0    0  0.65254115016E+01  0.23492946364E+02 -0.35904367915E+02  0.43400727637E+02  0.00000000000E+00 0. -1.
         11    1    3    3    0    0  0.15935960182E+01 -0.46799562999E+01 -0.81233960761E+00  0.50101332455E+01  0.51100000000E-03 0. -1.
        -11    1    3    3    0    0 -0.67660520114E+01 -0.91661193103E+01  0.13930364769E+02  0.17995895807E+02  0.51100000000E-03 0.  1.
         12    1    3    3    0    0 -0.13529555083E+01 -0.96468707533E+01  0.22786342753E+02  0.24781243310E+02  0.00000000000E+00 0. -1.
</event>
<event>
 7    1  0.4477737E-009  0.4778727E+02  0.7816164E-02  0.1312668E+00
        -11   -1    0    0    0    0  0.00000000000E+00  0.00000000000E+00  0.45593999997E+02  0.45594000000E+02  0.51100000000E-03 0. -1.
         11   -1    0    0    0    0 -0.00000000000E+00 -0.00000000000E+00 -0.45593999997E+02  0.45594000000E+02  0.51100000000E-03 0.  1.
    9900012    2    1    2    0    0 -0.40139657804E+02 -0.10393671809E+02  0.12821969597E+02  0.47787269054E+02  0.19999990926E+02 0.  0.
         12    1    1    2    0    0  0.40139657804E+02  0.10393671809E+02 -0.12821969597E+02  0.43400730946E+02  0.00000000000E+00 0. -1.
         11    1    3    3    0    0 -0.98438034842E+01 -0.55324513463E+01 -0.36542531671E+01  0.11868531982E+02  0.51100000000E-03 0. -1.
        -11    1    3    3    0    0 -0.14167183738E+02  0.10898106674E+01  0.42774411528E+01  0.14838911194E+02  0.51100000000E-03 0.  1.
         12    1    3    3    0    0 -0.16128670582E+02 -0.59510311301E+01  0.12198781611E+02  0.21079825878E+02  0.00000000000E+00 0. -1.
</event>
<event>
 7    1  0.4477737E-009  0.4778727E+02  0.7816164E-02  0.1312668E+00
        -11   -1    0    0    0    0  0.00000000000E+00  0.00000000000E+00  0.45593999997E+02  0.45594000000E+02  0.51100000000E-03 0.  1.
         11   -1    0    0    0    0 -0.00000000000E+00 -0.00000000000E+00 -0.45593999997E+02  0.45594000000E+02  0.51100000000E-03 0. -1.
    9900012    2    1    2    0    0 -0.24023067187E+02 -0.35780161365E+02  0.51278892642E+01  0.47787274745E+02  0.20000016871E+02 0.  0.
         12    1    1    2    0    0  0.24023067187E+02  0.35780161365E+02 -0.51278892642E+01  0.43400725255E+02  0.00000000000E+00 0. -1.
         11    1    3    3    0    0 -0.17053104627E+02 -0.11888684876E+02  0.32179040565E+00  0.20790689137E+02  0.51100000000E-03 0.  1.
        -11    1    3    3    0    0 -0.41163261289E+01 -0.23243256864E+02  0.47001739494E+01  0.24068335336E+02  0.51100000000E-03 0. -1.
         12    1    3    3    0    0 -0.28536364312E+01 -0.64821962592E+00  0.10592490913E+00  0.29282502713E+01  0.00000000000E+00 0. -1.
</event>
<event>
 7    1  0.4477737E-009  0.4778727E+02  0.7816164E-02  0.1312668E+00
        -11   -1    0    0    0    0  0.00000000000E+00  0.00000000000E+00  0.45593999997E+02  0.45594000000E+02  0.51100000000E-03 0.  1.
         11   -1    0    0    0    0 -0.00000000000E+00 -0.00000000000E+00 -0.45593999997E+02  0.45594000000E+02  0.51100000000E-03 0. -1.
    9900012    2    1    2    0    0  0.38819894141E+02 -0.19290714348E+02  0.21230250879E+01  0.47787273316E+02  0.20000010357E+02 0.  0.
         12    1    1    2    0    0 -0.38819894141E+02  0.19290714348E+02 -0.21230250879E+01  0.43400726684E+02  0.00000000000E+00 0. -1.
         11    1    3    3    0    0  0.24936212696E+02 -0.68310927562E+01 -0.41464032779E+00  0.25858276406E+02  0.51100000000E-03 0.  1.
        -11    1    3    3    0    0  0.48282898446E+01 -0.73207117897E+01  0.63649060884E+01  0.10835923297E+02  0.51100000000E-03 0. -1.
        -12    1    3    3    0    0  0.90553916008E+01 -0.51389098022E+01 -0.38272406728E+01  0.11093073612E+02  0.00000000000E+00 0.  1.
</event>
<event>
 7    1  0.4477737E-009  0.4778727E+02  0.7816164E-02  0.1312668E+00
        -11   -1    0    0    0    0  0.00000000000E+00  0.00000000000E+00  0.45593999997E+02  0.45594000000E+02  0.51100000000E-03 0.  1.
         11   -1    0    0    0    0 -0.00000000000E+00 -0.00000000000E+00 -0.45593999997E+02  0.45594000000E+02  0.51100000000E-03 0. -1.
    9900012    2    1    2    0    0 -0.21459260081E+02 -0.20429285624E+02  0.31713839075E+02  0.47787272550E+02  0.20000006865E+02 0.  0.
         12    1    1    2    0    0  0.21459260081E+02  0.20429285624E+02 -0.31713839075E+02  0.43400727450E+02  0.00000000000E+00 0. -1.
         11    1    3    3    0    0  0.10479825392E+01 -0.12905246613E+01  0.60167553489E+00  0.17679748342E+01  0.51100000000E-03 0. -1.
        -11    1    3    3    0    0 -0.15234066831E+01 -0.57463541617E+01  0.15585167801E+02  0.16680491891E+02  0.51100000000E-03 0.  1.
        -12    1    3    3    0    0 -0.20983835937E+02 -0.13392406801E+02  0.15526995739E+02  0.29338805825E+02  0.00000000000E+00 0.  1.
</event>
<event>
 7    1  0.4477737E-009  0.4778727E+02  0.7816164E-02  0.1312668E+00
        -11   -1    0    0    0    0  0.00000000000E+00  0.00000000000E+00  0.45593999997E+02  0.45594000000E+02  0.51100000000E-03 0.  1.
         11   -1    0    0    0    0 -0.00000000000E+00 -0.00000000000E+00 -0.45593999997E+02  0.45594000000E+02  0.51100000000E-03 0. -1.
    9900012    2    1    2    0    0  0.36831892749E+02  0.22544413607E+02  0.43340984937E+01  0.47787270534E+02  0.19999997675E+02 0.  0.
         12    1    1    2    0    0 -0.36831892749E+02 -0.22544413607E+02 -0.43340984937E+01  0.43400729466E+02  0.00000000000E+00 0. -1.
         11    1    3    3    0    0  0.12651400640E+02  0.11949792159E+00  0.72148491901E+01  0.14564555160E+02  0.51100000000E-03 0. -1.
        -11    1    3    3    0    0  0.11579236671E+02  0.12194123115E+02 -0.23800401262E+01  0.16983520003E+02  0.51100000000E-03 0.  1.
         12    1    3    3    0    0  0.12601255438E+02  0.10230792571E+02 -0.50071057013E+00  0.16239195372E+02  0.00000000000E+00 0. -1.
</event>
<event>
 7    1  0.4477737E-009  0.4778726E+02  0.7816164E-02  0.1312668E+00
        -11   -1    0    0    0    0  0.00000000000E+00  0.00000000000E+00  0.45593999997E+02  0.45594000000E+02  0.51100000000E-03 0.  1.
         11   -1    0    0    0    0 -0.00000000000E+00 -0.00000000000E+00 -0.45593999997E+02  0.45594000000E+02  0.51100000000E-03 0. -1.
    9900012    2    1    2    0    0  0.16339301929E+02  0.21514743956E+02  0.33967143051E+02  0.47787264959E+02  0.19999972256E+02 0.  0.
         12    1    1    2    0    0 -0.16339301929E+02 -0.21514743956E+02 -0.33967143051E+02  0.43400735041E+02  0.00000000000E+00 0. -1.
         11    1    3    3    0    0  0.12289888364E+01 -0.24285909834E+01  0.55476100555E+01  0.61793563834E+01  0.51100000000E-03 0. -1.
        -11    1    3    3    0    0  0.13995895519E+02  0.16678376092E+02  0.25905191127E+02  0.33839802719E+02  0.51100000000E-03 0.  1.
        -12    1    3    3    0    0  0.11144175739E+01  0.72649588472E+01  0.25143418684E+01  0.77681058574E+01  0.00000000000E+00 0.  1.
</event>
<event>
 7    1  0.4477737E-009  0.4778727E+02  0.7816164E-02  0.1312668E+00
        -11   -1    0    0    0    0  0.00000000000E+00  0.00000000000E+00  0.45593999997E+02  0.45594000000E+02  0.51100000000E-03 0.  1.
         11   -1    0    0    0    0 -0.00000000000E+00 -0.00000000000E+00 -0.45593999997E+02  0.45594000000E+02  0.51100000000E-03 0. -1.
    9900012    2    1    2    0    0  0.63733473194E+00 -0.18254033578E+02  0.39370136386E+02  0.47787267559E+02  0.19999984107E+02 0.  0.
         12    1    1    2    0    0 -0.63733473194E+00  0.18254033578E+02 -0.39370136386E+02  0.43400732441E+02  0.00000000000E+00 0. -1.
         11    1    3    3    0    0  0.22082367072E+01  0.24908388021E+01  0.65033282467E+01  0.73057419773E+01  0.51100000000E-03 0. -1.
        -11    1    3    3    0    0 -0.28141454104E+00 -0.21894686564E+02  0.30743740524E+02  0.37744325078E+02  0.51100000000E-03 0.  1.
        -12    1    3    3    0    0 -0.12894874342E+01  0.11498141840E+01  0.21230676146E+01  0.27372005035E+01  0.00000000000E+00 0.  1.
</event>
<event>
 7    1  0.4477737E-009  0.4778727E+02  0.7816164E-02  0.1312668E+00
        -11   -1    0    0    0    0  0.00000000000E+00  0.00000000000E+00  0.45593999997E+02  0.45594000000E+02  0.51100000000E-03 0.  1.
         11   -1    0    0    0    0 -0.00000000000E+00 -0.00000000000E+00 -0.45593999997E+02  0.45594000000E+02  0.51100000000E-03 0. -1.
    9900012    2    1    2    0    0  0.29807956448E+01 -0.37021137892E+02  0.22453808373E+02  0.47787270698E+02  0.19999998422E+02 0.  0.
         12    1    1    2    0    0 -0.29807956448E+01  0.37021137892E+02 -0.22453808373E+02  0.43400729302E+02  0.00000000000E+00 0. -1.
         11    1    3    3    0    0 -0.48932181165E+00 -0.85228743849E+00 -0.26305571474E-01  0.98311848593E+00  0.51100000000E-03 0. -1.
        -11    1    3    3    0    0  0.95947795488E+01 -0.32527667259E+02  0.19027535845E+02  0.38886450757E+02  0.51100000000E-03 0.  1.
        -12    1    3    3    0    0 -0.61246620923E+01 -0.36411831944E+01  0.34525780993E+01  0.79177014551E+01  0.00000000000E+00 0.  1.
</event>
<event>
 7    1  0.4477737E-009  0.4778727E+02  0.7816164E-02  0.1312668E+00
        -11   -1    0    0    0    0  0.00000000000E+00  0.00000000000E+00  0.45593999997E+02  0.45594000000E+02  0.51100000000E-03 0.  1.
         11   -1    0    0    0    0 -0.00000000000E+00 -0.00000000000E+00 -0.45593999997E+02  0.45594000000E+02  0.51100000000E-03 0. -1.
    9900012    2    1    2    0    0 -0.40150264638E+01 -0.60770990760E+01  0.42785185482E+02  0.47787266511E+02  0.19999979330E+02 0.  0.
         12    1    1    2    0    0  0.40150264638E+01  0.60770990760E+01 -0.42785185482E+02  0.43400733489E+02  0.00000000000E+00 0. -1.
         11    1    3    3    0    0 -0.41982129124E+01 -0.53630884779E+01  0.43277899784E+01  0.80695400140E+01  0.51100000000E-03 0. -1.
        -11    1    3    3    0    0 -0.30565481385E+01  0.19541488902E+01  0.30557994273E+02  0.30772588429E+02  0.51100000000E-03 0.  1.
        -12    1    3    3    0    0  0.32397345871E+01 -0.26681594882E+01  0.78994012307E+01  0.89451380678E+01  0.00000000000E+00 0.  1.
</event>
<event>
 7    1  0.4477737E-009  0.4778727E+02  0.7816164E-02  0.1312668E+00
        -11   -1    0    0    0    0  0.00000000000E+00  0.00000000000E+00  0.45593999997E+02  0.45594000000E+02  0.51100000000E-03 0. -1.
         11   -1    0    0    0    0 -0.00000000000E+00 -0.00000000000E+00 -0.45593999997E+02  0.45594000000E+02  0.51100000000E-03 0.  1.
    9900012    2    1    2    0    0 -0.24090131616E+02 -0.35988386059E+02 -0.28504415471E+01  0.47787269714E+02  0.19999993933E+02 0.  0.
         12    1    1    2    0    0  0.24090131616E+02  0.35988386059E+02  0.28504415471E+01  0.43400730286E+02  0.00000000000E+00 0. -1.
         11    1    3    3    0    0 -0.10313800671E+02 -0.13326172214E+02  0.26561817284E+01  0.17059210175E+02  0.51100000000E-03 0. -1.
        -11    1    3    3    0    0  0.16563627688E-01 -0.13063757425E+02 -0.47718557930E+01  0.13908006341E+02  0.51100000000E-03 0.  1.
        -12    1    3    3    0    0 -0.13792894572E+02 -0.95984564191E+01 -0.73476748247E+00  0.16820053197E+02  0.00000000000E+00 0.  1.
</event>
<event>
 7    1  0.4477737E-009  0.4778727E+02  0.7816164E-02  0.1312668E+00
        -11   -1    0    0    0    0  0.00000000000E+00  0.00000000000E+00  0.45593999997E+02  0.45594000000E+02  0.51100000000E-03 0.  1.
         11   -1    0    0    0    0 -0.00000000000E+00 -0.00000000000E+00 -0.45593999997E+02  0.45594000000E+02  0.51100000000E-03 0. -1.
    9900012    2    1    2    0    0  0.42877991829E+02  0.35478112297E+01 -0.57021259638E+01  0.47787269726E+02  0.19999993987E+02 0.  0.
         12    1    1    2    0    0 -0.42877991829E+02 -0.35478112297E+01  0.57021259638E+01  0.43400730274E+02  0.00000000000E+00 0. -1.
         11    1    3    3    0    0  0.45272338527E+01  0.59888375140E+01 -0.47724043233E+01  0.88959465158E+01  0.51100000000E-03 0. -1.
        -11    1    3    3    0    0  0.38370521960E+02 -0.21441091189E+01 -0.58352310213E+00  0.38434810509E+02  0.51100000000E-03 0.  1.
        -12    1    3    3    0    0 -0.19763983054E-01 -0.29691716545E+00 -0.34619853845E+00  0.45651270102E+00  0.00000000000E+00 0.  1.
</event>
<event>
 7    1  0.4477737E-009  0.4778727E+02  0.7816164E-02  0.1312668E+00
        -11   -1    0    0    0    0  0.00000000000E+00  0.00000000000E+00  0.45593999997E+02  0.45594000000E+02  0.51100000000E-03 0.  1.
         11   -1    0    0    0    0 -0.00000000000E+00 -0.00000000000E+00 -0.45593999997E+02  0.45594000000E+02  0.51100000000E-03 0. -1.
    9900012    2    1    2    0    0  0.21155828466E+02 -0.26520706499E+02  0.27068546153E+02  0.47787272562E+02  0.20000006921E+02 0.  0.
         12    1    1    2    0    0 -0.21155828466E+02  0.26520706499E+02 -0.27068546153E+02  0.43400727438E+02  0.00000000000E+00 0. -1.
         11    1    3    3    0    0  0.23255532228E+02 -0.18663367095E+02  0.19680005975E+02  0.35727352070E+02  0.51100000000E-03 0. -1.
        -11    1    3    3    0    0  0.16424132914E+01 -0.21282670067E+01  0.20382353343E+01  0.33736397867E+01  0.51100000000E-03 0.  1.
         12    1    3    3    0    0 -0.37421170534E+01 -0.57290723974E+01  0.53503048435E+01  0.86862807055E+01  0.00000000000E+00 0. -1.
</event>
<event>
 7    1  0.4477737E-009  0.4778727E+02  0.7816164E-02  0.1312668E+00
        -11   -1    0    0    0    0  0.00000000000E+00  0.00000000000E+00  0.45593999997E+02  0.45594000000E+02  0.51100000000E-03 0. -1.
         11   -1    0    0    0    0 -0.00000000000E+00 -0.00000000000E+00 -0.45593999997E+02  0.45594000000E+02  0.51100000000E-03 0.  1.
    9900012    2    1    2    0    0 -0.30639011851E+02  0.18297600926E+02 -0.24699631016E+02  0.47787273978E+02  0.20000013377E+02 0.  0.
         12    1    1    2    0    0  0.30639011851E+02 -0.18297600926E+02  0.24699631016E+02  0.43400726022E+02  0.00000000000E+00 0. -1.
         11    1    3    3    0    0 -0.85144694548E+01 -0.11524071050E+01 -0.33352811071E-01  0.85921676487E+01  0.51100000000E-03 0. -1.
        -11    1    3    3    0    0 -0.16476809607E+02  0.16310841176E+02 -0.22684935964E+02  0.32436632295E+02  0.51100000000E-03 0.  1.
        -12    1    3    3    0    0 -0.56477327888E+01  0.31391668550E+01 -0.19813422417E+01  0.67584740346E+01  0.00000000000E+00 0.  1.
</event>
<event>
 7    1  0.4720390E-009  0.4778727E+02  0.7816164E-02  0.1312668E+00
        -11   -1    0    0    0    0  0.00000000000E+00  0.00000000000E+00  0.45593999997E+02  0.45594000000E+02  0.51100000000E-03 0.  1.
         11   -1    0    0    0    0 -0.00000000000E+00 -0.00000000000E+00 -0.45593999997E+02  0.45594000000E+02  0.51100000000E-03 0. -1.
    9900012    2    1    2    0    0  0.31986226639E+02  0.27463737871E+02  0.10307658512E+02  0.47787269401E+02  0.19999992509E+02 0.  0.
         12    1    1    2    0    0 -0.31986226639E+02 -0.27463737871E+02 -0.10307658512E+02  0.43400730599E+02  0.00000000000E+00 0. -1.
         11    1    3    3    0    0  0.16942915809E+02  0.12046661701E+02 -0.24561878405E+01  0.20933640706E+02  0.51100000000E-03 0. -1.
        -11    1    3    3    0    0  0.15564922592E+02  0.10737940254E+02  0.10506846023E+02  0.21632475351E+02  0.51100000000E-03 0.  1.
         12    1    3    3    0    0 -0.52161176186E+00  0.46791359163E+01  0.22570003297E+01  0.52211533440E+01  0.00000000000E+00 0. -1.
</event>
<event>
 7    1  0.4477737E-009  0.4778727E+02  0.7816164E-02  0.1312668E+00
        -11   -1    0    0    0    0  0.00000000000E+00  0.00000000000E+00  0.45593999997E+02  0.45594000000E+02  0.51100000000E-03 0.  1.
         11   -1    0    0    0    0 -0.00000000000E+00 -0.00000000000E+00 -0.45593999997E+02  0.45594000000E+02  0.51100000000E-03 0. -1.
    9900012    2    1    2    0    0 -0.19419121760E+02  0.60218806158E+01  0.38343946967E+02  0.47787267229E+02  0.19999982603E+02 0.  0.
         12    1    1    2    0    0  0.19419121760E+02 -0.60218806158E+01 -0.38343946967E+02  0.43400732771E+02  0.00000000000E+00 0. -1.
         11    1    3    3    0    0 -0.16790271388E+02  0.57180385173E+01  0.29710285462E+02  0.34602171034E+02  0.51100000000E-03 0. -1.
        -11    1    3    3    0    0 -0.15052927756E+01  0.37820882863E+01  0.86167184543E+01  0.95298444545E+01  0.51100000000E-03 0.  1.
         12    1    3    3    0    0 -0.11235575970E+01 -0.34782461879E+01  0.16943050017E-01  0.36552517402E+01  0.00000000000E+00 0. -1.
</event>
<event>
 7    1  0.4477737E-009  0.4778728E+02  0.7816164E-02  0.1312668E+00
        -11   -1    0    0    0    0  0.00000000000E+00  0.00000000000E+00  0.45593999997E+02  0.45594000000E+02  0.51100000000E-03 0.  1.
         11   -1    0    0    0    0 -0.00000000000E+00 -0.00000000000E+00 -0.45593999997E+02  0.45594000000E+02  0.51100000000E-03 0. -1.
    9900012    2    1    2    0    0 -0.36924945604E+02  0.21193073535E+02 -0.84276223332E+01  0.47787276597E+02  0.20000025316E+02 0.  0.
         12    1    1    2    0    0  0.36924945604E+02 -0.21193073535E+02  0.84276223332E+01  0.43400723403E+02  0.00000000000E+00 0. -1.
         11    1    3    3    0    0 -0.11676070479E+02  0.14609047129E+02 -0.10778340011E+02  0.21585353681E+02  0.51100000000E-03 0. -1.
        -11    1    3    3    0    0 -0.20975446665E+02  0.54366890129E+01  0.18047427484E+01  0.21743597837E+02  0.51100000000E-03 0.  1.
         12    1    3    3    0    0 -0.42734284596E+01  0.11473373923E+01  0.54597492974E+00  0.44583250795E+01  0.00000000000E+00 0. -1.
</event>
<event>
 7    1  0.4477737E-009  0.4778726E+02  0.7816164E-02  0.1312668E+00
        -11   -1    0    0    0    0  0.00000000000E+00  0.00000000000E+00  0.45593999997E+02  0.45594000000E+02  0.51100000000E-03 0. -1.
         11   -1    0    0    0    0 -0.00000000000E+00 -0.00000000000E+00 -0.45593999997E+02  0.45594000000E+02  0.51100000000E-03 0.  1.
    9900012    2    1    2    0    0  0.25694504116E+02  0.28783513675E+02 -0.19872735833E+02  0.47787264629E+02  0.19999970748E+02 0.  0.
         12    1    1    2    0    0 -0.25694504116E+02 -0.28783513675E+02  0.19872735833E+02  0.43400735371E+02  0.00000000000E+00 0. -1.
         11    1    3    3    0    0 -0.55872569603E+00 -0.20658137529E+01 -0.59354803237E-02  0.21400458771E+01  0.51100000000E-03 0. -1.
        -11    1    3    3    0    0  0.71331721584E+01  0.13470558774E+02 -0.80006848658E+01  0.17214791817E+02  0.51100000000E-03 0.  1.
         12    1    3    3    0    0  0.19120057654E+02  0.17378768654E+02 -0.11866115487E+02  0.28432426934E+02  0.00000000000E+00 0. -1.
</event>
<event>
 7    1  0.4477737E-009  0.4778727E+02  0.7816164E-02  0.1312668E+00
        -11   -1    0    0    0    0  0.00000000000E+00  0.00000000000E+00  0.45593999997E+02  0.45594000000E+02  0.51100000000E-03 0. -1.
         11   -1    0    0    0    0 -0.00000000000E+00 -0.00000000000E+00 -0.45593999997E+02  0.45594000000E+02  0.51100000000E-03 0.  1.
    9900012    2    1    2    0    0  0.29196795851E+02 -0.31710877296E+02 -0.50587272760E+01  0.47787270185E+02  0.19999996080E+02 0.  0.
         12    1    1    2    0    0 -0.29196795851E+02  0.31710877296E+02  0.50587272760E+01  0.43400729815E+02  0.00000000000E+00 0. -1.
         11    1    3    3    0    0  0.10287949982E+02 -0.16541624751E+01 -0.92182509737E-01  0.10420492608E+02  0.51100000000E-03 0. -1.
        -11    1    3    3    0    0  0.18362349030E+02 -0.26826917451E+02 -0.73324337973E+01  0.33326025078E+02  0.51100000000E-03 0.  1.
         12    1    3    3    0    0  0.54649683864E+00 -0.32297973706E+01  0.23658890311E+01  0.40407524989E+01  0.00000000000E+00 0. -1.
</event>
<event>
 7    1  0.4477737E-009  0.4778727E+02  0.7816164E-02  0.1312668E+00
        -11   -1    0    0    0    0  0.00000000000E+00  0.00000000000E+00  0.45593999997E+02  0.45594000000E+02  0.51100000000E-03 0.  1.
         11   -1    0    0    0    0 -0.00000000000E+00 -0.00000000000E+00 -0.45593999997E+02  0.45594000000E+02  0.51100000000E-03 0. -1.
    9900012    2    1    2    0    0  0.41909810332E+02 -0.60149081721E+01  0.95400070199E+01  0.47787273551E+02  0.20000011427E+02 0.  0.
         12    1    1    2    0    0 -0.41909810332E+02  0.60149081721E+01 -0.95400070199E+01  0.43400726449E+02  0.00000000000E+00 0. -1.
         11    1    3    3    0    0  0.15977149322E+02  0.15526783658E+01  0.75647229103E+01  0.17745566870E+02  0.51100000000E-03 0. -1.
        -11    1    3    3    0    0  0.92978356091E+01 -0.41036473610E+01 -0.54112558091E+01  0.11513963626E+02  0.51100000000E-03 0.  1.
        -12    1    3    3    0    0  0.16634825401E+02 -0.34639391769E+01  0.73865399187E+01  0.18527743055E+02  0.00000000000E+00 0.  1.
</event>
<event>
 7    1  0.4477737E-009  0.4778728E+02  0.7816164E-02  0.1312668E+00
        -11   -1    0    0    0    0  0.00000000000E+00  0.00000000000E+00  0.45593999997E+02  0.45594000000E+02  0.51100000000E-03 0.  1.
         11   -1    0    0    0    0 -0.00000000000E+00 -0.00000000000E+00 -0.45593999997E+02  0.45594000000E+02  0.51100000000E-03 0. -1.
    9900012    2    1    2    0    0  0.33023928941E+02  0.78581513921E+00  0.28150052997E+02  0.47787275676E+02  0.20000021116E+02 0.  0.
         12    1    1    2    0    0 -0.33023928941E+02 -0.78581513921E+00 -0.28150052997E+02  0.43400724324E+02  0.00000000000E+00 0. -1.
         11    1    3    3    0    0  0.58381795934E+01 -0.29714739950E+01  0.10404476729E+01  0.66329880362E+01  0.51100000000E-03 0. -1.
        -11    1    3    3    0    0  0.14796047885E+02  0.18458462529E+01  0.23972611043E+02  0.28231476439E+02  0.51100000000E-03 0.  1.
        -12    1    3    3    0    0  0.12389701462E+02  0.19114428813E+01  0.31369942811E+01  0.12922811201E+02  0.00000000000E+00 0.  1.
</event>
<event>
 7    1  0.4477737E-009  0.4778727E+02  0.7816164E-02  0.1312668E+00
        -11   -1    0    0    0    0  0.00000000000E+00  0.00000000000E+00  0.45593999997E+02  0.45594000000E+02  0.51100000000E-03 0. -1.
         11   -1    0    0    0    0 -0.00000000000E+00 -0.00000000000E+00 -0.45593999997E+02  0.45594000000E+02  0.51100000000E-03 0.  1.
    9900012    2    1    2    0    0 -0.35256040931E+02 -0.15478226937E+02 -0.20026475330E+02  0.47787266764E+02  0.19999980485E+02 0.  0.
         12    1    1    2    0    0  0.35256040931E+02  0.15478226937E+02  0.20026475330E+02  0.43400733236E+02  0.00000000000E+00 0. -1.
         11    1    3    3    0    0 -0.16704266886E+02 -0.18188306649E+01 -0.39228404225E+01  0.17254835682E+02  0.51100000000E-03 0.  1.
        -11    1    3    3    0    0 -0.16658314666E+02 -0.59366576966E+01 -0.88762149579E+01  0.19787130776E+02  0.51100000000E-03 0. -1.
         12    1    3    3    0    0 -0.18934593794E+01 -0.77227385756E+01 -0.72274199499E+01  0.10745300306E+02  0.00000000000E+00 0. -1.
</event>
<event>
 7    1  0.4477737E-009  0.4778727E+02  0.7816164E-02  0.1312668E+00
        -11   -1    0    0    0    0  0.00000000000E+00  0.00000000000E+00  0.45593999997E+02  0.45594000000E+02  0.51100000000E-03 0.  1.
         11   -1    0    0    0    0 -0.00000000000E+00 -0.00000000000E+00 -0.45593999997E+02  0.45594000000E+02  0.51100000000E-03 0. -1.
    9900012    2    1    2    0    0  0.40469381817E+02  0.13175271630E+02  0.85008474089E+01  0.47787273579E+02  0.20000011555E+02 0.  0.
         12    1    1    2    0    0 -0.40469381817E+02 -0.13175271630E+02 -0.85008474089E+01  0.43400726421E+02  0.00000000000E+00 0. -1.
         11    1    3    3    0    0  0.30595416025E+00 -0.23234232890E+01  0.29844053956E+01  0.37945460274E+01  0.51100000000E-03 0. -1.
        -11    1    3    3    0    0  0.51046158683E+01  0.30043239398E-01 -0.76467117766E+00  0.51616594260E+01  0.51100000000E-03 0.  1.
         12    1    3    3    0    0  0.35058811789E+02  0.15468651680E+02  0.62811131910E+01  0.38831068125E+02  0.00000000000E+00 0. -1.
</event>
<event>
 7    1  0.4477737E-009  0.4778727E+02  0.7816164E-02  0.1312668E+00
        -11   -1    0    0    0    0  0.00000000000E+00  0.00000000000E+00  0.45593999997E+02  0.45594000000E+02  0.51100000000E-03 0.  1.
         11   -1    0    0    0    0 -0.00000000000E+00 -0.00000000000E+00 -0.45593999997E+02  0.45594000000E+02  0.51100000000E-03 0. -1.
    9900012    2    1    2    0    0  0.70686568801E-01 -0.38995450359E+02  0.19051859466E+02  0.47787268504E+02  0.19999988416E+02 0.  0.
         12    1    1    2    0    0 -0.70686568801E-01  0.38995450359E+02 -0.19051859466E+02  0.43400731496E+02  0.00000000000E+00 0. -1.
         11    1    3    3    0    0  0.64759685873E+01 -0.16949039351E+02  0.10316560486E+02  0.20871979412E+02  0.51100000000E-03 0. -1.
        -11    1    3    3    0    0 -0.73310814006E+01 -0.69411496850E+01  0.52764200334E+01  0.11391440738E+02  0.51100000000E-03 0.  1.
        -12    1    3    3    0    0  0.92579938201E+00 -0.15105261324E+02  0.34588789465E+01  0.15523848354E+02  0.00000000000E+00 0.  1.
</event>
<event>
 7    1  0.4477737E-009  0.4778727E+02  0.7816164E-02  0.1312668E+00
        -11   -1    0    0    0    0  0.00000000000E+00  0.00000000000E+00  0.45593999997E+02  0.45594000000E+02  0.51100000000E-03 0.  1.
         11   -1    0    0    0    0 -0.00000000000E+00 -0.00000000000E+00 -0.45593999997E+02  0.45594000000E+02  0.51100000000E-03 0. -1.
    9900012    2    1    2    0    0  0.86338561669E+01 -0.40542015432E+02  0.12861762839E+02  0.47787269235E+02  0.19999991750E+02 0.  0.
         12    1    1    2    0    0 -0.86338561669E+01  0.40542015432E+02 -0.12861762839E+02  0.43400730765E+02  0.00000000000E+00 0. -1.
         11    1    3    3    0    0  0.10406371829E+02 -0.16485021124E+02  0.49098533430E+00  0.19501014408E+02  0.51100000000E-03 0. -1.
        -11    1    3    3    0    0 -0.74509400848E-01 -0.20837297734E+02  0.13045534361E+02  0.24584232661E+02  0.51100000000E-03 0.  1.
         12    1    3    3    0    0 -0.16980062614E+01 -0.32196965744E+01 -0.67475685687E+00  0.37020221651E+01  0.00000000000E+00 0. -1.
</event>
<event>
 7    1  0.4477737E-009  0.4778726E+02  0.7816164E-02  0.1312668E+00
        -11   -1    0    0    0    0  0.00000000000E+00  0.00000000000E+00  0.45593999997E+02  0.45594000000E+02  0.51100000000E-03 0.  1.
         11   -1    0    0    0    0 -0.00000000000E+00 -0.00000000000E+00 -0.45593999997E+02  0.45594000000E+02  0.51100000000E-03 0. -1.
    9900012    2    1    2    0    0  0.22449511807E+02 -0.21724855566E+02  0.30127628189E+02  0.47787263716E+02  0.19999966585E+02 0.  0.
         12    1    1    2    0    0 -0.22449511807E+02  0.21724855566E+02 -0.30127628189E+02  0.43400736284E+02  0.00000000000E+00 0. -1.
         11    1    3    3    0    0 -0.16133144441E+01  0.15454721130E+01  0.15032686775E+01  0.26927837874E+01  0.51100000000E-03 0. -1.
        -11    1    3    3    0    0  0.20217087067E+02 -0.23328059145E+02  0.26594616563E+02  0.40745583605E+02  0.51100000000E-03 0.  1.
        -12    1    3    3    0    0  0.38457391841E+01  0.57731465481E-01  0.20297429486E+01  0.43488963234E+01  0.00000000000E+00 0.  1.
</event>
<event>
 7    1  0.4477737E-009  0.4778730E+02  0.7816164E-02  0.1312668E+00
        -11   -1    0    0    0    0  0.00000000000E+00  0.00000000000E+00  0.45593999997E+02  0.45594000000E+02  0.51100000000E-03 0. -1.
         11   -1    0    0    0    0 -0.00000000000E+00 -0.00000000000E+00 -0.45593999997E+02  0.45594000000E+02  0.51100000000E-03 0.  1.
    9900012    2    1    2    0    0 -0.21783137589E+02 -0.29926021961E+02 -0.22661607480E+02  0.47787304992E+02  0.20000154779E+02 0.  0.
         12    1    1    2    0    0  0.21783137589E+02  0.29926021961E+02  0.22661607480E+02  0.43400695008E+02  0.00000000000E+00 0. -1.
         11    1    3    3    0    0 -0.14281609615E+02 -0.55610831439E+01 -0.74971027542E+01  0.17061552359E+02  0.51100000000E-03 0. -1.
        -11    1    3    3    0    0 -0.20065453650E+01 -0.18220546540E+02 -0.11928971477E+02  0.21870411548E+02  0.51100000000E-03 0.  1.
         12    1    3    3    0    0 -0.54949826087E+01 -0.61443922766E+01 -0.32355332482E+01  0.88553410843E+01  0.00000000000E+00 0. -1.
</event>
<event>
 7    1  0.4477737E-009  0.4778727E+02  0.7816164E-02  0.1312668E+00
        -11   -1    0    0    0    0  0.00000000000E+00  0.00000000000E+00  0.45593999997E+02  0.45594000000E+02  0.51100000000E-03 0.  1.
         11   -1    0    0    0    0 -0.00000000000E+00 -0.00000000000E+00 -0.45593999997E+02  0.45594000000E+02  0.51100000000E-03 0. -1.
    9900012    2    1    2    0    0  0.31118786162E+02  0.30001326574E+02  0.38941973616E+01  0.47787271648E+02  0.20000002750E+02 0.  0.
         12    1    1    2    0    0 -0.31118786162E+02 -0.30001326574E+02 -0.38941973616E+01  0.43400728352E+02  0.00000000000E+00 0. -1.
         11    1    3    3    0    0  0.60708974777E+01  0.11497129705E+02 -0.66660454631E+01  0.14610816200E+02  0.51100000000E-03 0. -1.
        -11    1    3    3    0    0  0.15371078289E+02  0.86418598095E+01  0.59763460410E+01  0.18619035984E+02  0.51100000000E-03 0.  1.
        -12    1    3    3    0    0  0.96768103960E+01  0.98623370594E+01  0.45838967837E+01  0.14557419464E+02  0.00000000000E+00 0.  1.
</event>
<event>
 7    1  0.4477737E-009  0.4778728E+02  0.7816164E-02  0.1312668E+00
        -11   -1    0    0    0    0  0.00000000000E+00  0.00000000000E+00  0.45593999997E+02  0.45594000000E+02  0.51100000000E-03 0.  1.
         11   -1    0    0    0    0 -0.00000000000E+00 -0.00000000000E+00 -0.45593999997E+02  0.45594000000E+02  0.51100000000E-03 0. -1.
    9900012    2    1    2    0    0  0.54562463035E+01 -0.22955786369E+02  0.36426414493E+02  0.47787280831E+02  0.20000044620E+02 0.  0.
         12    1    1    2    0    0 -0.54562463035E+01  0.22955786369E+02 -0.36426414493E+02  0.43400719169E+02  0.00000000000E+00 0. -1.
         11    1    3    3    0    0  0.21831199890E+00 -0.22583912820E+02  0.20939413538E+02  0.30798373626E+02  0.51100000000E-03 0. -1.
        -11    1    3    3    0    0  0.20177153136E+00 -0.17396654897E+01  0.34396006649E+01  0.38597928393E+01  0.51100000000E-03 0.  1.
         12    1    3    3    0    0  0.50361627732E+01  0.13677919407E+01  0.12047400291E+02  0.13129114366E+02  0.00000000000E+00 0. -1.
</event>
<event>
 7    1  0.4477737E-009  0.4778727E+02  0.7816164E-02  0.1312668E+00
        -11   -1    0    0    0    0  0.00000000000E+00  0.00000000000E+00  0.45593999997E+02  0.45594000000E+02  0.51100000000E-03 0.  1.
         11   -1    0    0    0    0 -0.00000000000E+00 -0.00000000000E+00 -0.45593999997E+02  0.45594000000E+02  0.51100000000E-03 0. -1.
    9900012    2    1    2    0    0 -0.68924725145E+01  0.33677642532E+02  0.26494027167E+02  0.47787271212E+02  0.20000000762E+02 0.  0.
         12    1    1    2    0    0  0.68924725145E+01 -0.33677642532E+02 -0.26494027167E+02  0.43400728788E+02  0.00000000000E+00 0. -1.
         11    1    3    3    0    0 -0.87150815193E+01  0.61307086441E+01  0.38138781858E+01  0.11317415847E+02  0.51100000000E-03 0. -1.
        -11    1    3    3    0    0  0.10596773994E+01  0.19404081651E+02  0.19943244335E+02  0.27845543553E+02  0.51100000000E-03 0.  1.
         12    1    3    3    0    0  0.76293160535E+00  0.81428522368E+01  0.27369046457E+01  0.86243118117E+01  0.00000000000E+00 0. -1.
</event>
<event>
 7    1  0.4477737E-009  0.4778727E+02  0.7816164E-02  0.1312668E+00
        -11   -1    0    0    0    0  0.00000000000E+00  0.00000000000E+00  0.45593999997E+02  0.45594000000E+02  0.51100000000E-03 0. -1.
         11   -1    0    0    0    0 -0.00000000000E+00 -0.00000000000E+00 -0.45593999997E+02  0.45594000000E+02  0.51100000000E-03 0.  1.
    9900012    2    1    2    0    0 -0.99375357851E+01  0.38691941280E+02 -0.16964739865E+02  0.47787270326E+02  0.19999996725E+02 0.  0.
         12    1    1    2    0    0  0.99375357851E+01 -0.38691941280E+02  0.16964739865E+02  0.43400729674E+02  0.00000000000E+00 0. -1.
         11    1    3    3    0    0 -0.94883636343E+01  0.22262592022E+02 -0.29177266188E+00  0.24202007759E+02  0.51100000000E-03 0. -1.
        -11    1    3    3    0    0 -0.75068080898E+00  0.14624168457E+02 -0.13471146461E+02  0.19897276497E+02  0.51100000000E-03 0.  1.
         12    1    3    3    0    0  0.30150865810E+00  0.18051808010E+01 -0.32018207418E+01  0.36879860708E+01  0.00000000000E+00 0. -1.
</event>
<event>
 7    1  0.4477737E-009  0.4778727E+02  0.7816164E-02  0.1312668E+00
        -11   -1    0    0    0    0  0.00000000000E+00  0.00000000000E+00  0.45593999997E+02  0.45594000000E+02  0.51100000000E-03 0.  1.
         11   -1    0    0    0    0 -0.00000000000E+00 -0.00000000000E+00 -0.45593999997E+02  0.45594000000E+02  0.51100000000E-03 0. -1.
    9900012    2    1    2    0    0 -0.40886549791E+02 -0.14147240216E+02  0.34306233644E+01  0.47787268022E+02  0.19999986219E+02 0.  0.
         12    1    1    2    0    0  0.40886549791E+02  0.14147240216E+02 -0.34306233644E+01  0.43400731978E+02  0.00000000000E+00 0. -1.
         11    1    3    3    0    0 -0.20988419014E+02  0.33585761898E+00  0.65193444671E+01  0.21980181655E+02  0.51100000000E-03 0. -1.
        -11    1    3    3    0    0 -0.78164517962E+01 -0.89194682241E+01  0.97295791309E+00  0.11899599970E+02  0.51100000000E-03 0.  1.
         12    1    3    3    0    0 -0.12081678981E+02 -0.55636296109E+01 -0.40616790158E+01  0.13907486397E+02  0.00000000000E+00 0. -1.
</event>
<event>
 7    1  0.4477737E-009  0.4778727E+02  0.7816164E-02  0.1312668E+00
        -11   -1    0    0    0    0  0.00000000000E+00  0.00000000000E+00  0.45593999997E+02  0.45594000000E+02  0.51100000000E-03 0. -1.
         11   -1    0    0    0    0 -0.00000000000E+00 -0.00000000000E+00 -0.45593999997E+02  0.45594000000E+02  0.51100000000E-03 0.  1.
    9900012    2    1    2    0    0 -0.47618190001E+01  0.40727096483E+02 -0.14221527945E+02  0.47787272296E+02  0.20000005708E+02 0.  0.
         12    1    1    2    0    0  0.47618190001E+01 -0.40727096483E+02  0.14221527945E+02  0.43400727704E+02  0.00000000000E+00 0. -1.
         11    1    3    3    0    0 -0.97437640870E+01  0.22087025781E+02 -0.24673072971E+01  0.24266545943E+02  0.51100000000E-03 0. -1.
        -11    1    3    3    0    0  0.95626802656E+00  0.12931563219E+02 -0.98406552036E+01  0.16278153179E+02  0.51100000000E-03 0.  1.
         12    1    3    3    0    0  0.40256770603E+01  0.57085074820E+01 -0.19135654445E+01  0.72425731737E+01  0.00000000000E+00 0. -1.
</event>
<event>
 7    1  0.4477737E-009  0.4778725E+02  0.7816164E-02  0.1312668E+00
        -11   -1    0    0    0    0  0.00000000000E+00  0.00000000000E+00  0.45593999997E+02  0.45594000000E+02  0.51100000000E-03 0. -1.
         11   -1    0    0    0    0 -0.00000000000E+00 -0.00000000000E+00 -0.45593999997E+02  0.45594000000E+02  0.51100000000E-03 0.  1.
    9900012    2    1    2    0    0 -0.37315891395E+02  0.19216908875E+02  0.11039003956E+02  0.47787251785E+02  0.19999912188E+02 0.  0.
         12    1    1    2    0    0  0.37315891395E+02 -0.19216908875E+02 -0.11039003956E+02  0.43400748215E+02  0.00000000000E+00 0. -1.
         11    1    3    3    0    0 -0.16820958837E+01  0.33825664732E+01 -0.30317162855E+01  0.48438111445E+01  0.51100000000E-03 0. -1.
        -11    1    3    3    0    0 -0.20542211897E+02  0.64233069744E+01  0.23675040198E+01  0.21652861650E+02  0.51100000000E-03 0.  1.
         12    1    3    3    0    0 -0.15091583614E+02  0.94110354276E+01  0.11703216221E+02  0.21290578990E+02  0.00000000000E+00 0. -1.
</event>
<event>
 7    1  0.4477737E-009  0.4778727E+02  0.7816164E-02  0.1312668E+00
        -11   -1    0    0    0    0  0.00000000000E+00  0.00000000000E+00  0.45593999997E+02  0.45594000000E+02  0.51100000000E-03 0.  1.
         11   -1    0    0    0    0 -0.00000000000E+00 -0.00000000000E+00 -0.45593999997E+02  0.45594000000E+02  0.51100000000E-03 0. -1.
    9900012    2    1    2    0    0  0.30790201057E+02  0.10368660811E+02  0.28776334044E+02  0.47787274094E+02  0.20000013906E+02 0.  0.
         12    1    1    2    0    0 -0.30790201057E+02 -0.10368660811E+02 -0.28776334044E+02  0.43400725906E+02  0.00000000000E+00 0. -1.
         11    1    3    3    0    0  0.18377048626E+02  0.11982485705E+02  0.13232961839E+02  0.25620444164E+02  0.51100000000E-03 0. -1.
        -11    1    3    3    0    0 -0.89390819965E+00 -0.22889077382E+01  0.28670598083E+01  0.37760035367E+01  0.51100000000E-03 0.  1.
         12    1    3    3    0    0  0.13307060630E+02  0.67508284411E+00  0.12676312396E+02  0.18390826393E+02  0.00000000000E+00 0. -1.
</event>
<event>
 7    1  0.4477737E-009  0.4778727E+02  0.7816164E-02  0.1312668E+00
        -11   -1    0    0    0    0  0.00000000000E+00  0.00000000000E+00  0.45593999997E+02  0.45594000000E+02  0.51100000000E-03 0.  1.
         11   -1    0    0    0    0 -0.00000000000E+00 -0.00000000000E+00 -0.45593999997E+02  0.45594000000E+02  0.51100000000E-03 0. -1.
    9900012    2    1    2    0    0  0.16860830418E+01 -0.17954105461E+02  0.39476960239E+02  0.47787272257E+02  0.20000005527E+02 0.  0.
         12    1    1    2    0    0 -0.16860830418E+01  0.17954105461E+02 -0.39476960239E+02  0.43400727743E+02  0.00000000000E+00 0. -1.
         11    1    3    3    0    0  0.34783802855E+01 -0.35412069859E+01  0.13131438986E+02  0.14038303546E+02  0.51100000000E-03 0. -1.
        -11    1    3    3    0    0 -0.51971215439E+01 -0.33916570008E+01  0.19204417930E+02  0.20182246601E+02  0.51100000000E-03 0.  1.
        -12    1    3    3    0    0  0.34048243002E+01 -0.11021241475E+02  0.71411033230E+01  0.13566722111E+02  0.00000000000E+00 0.  1.
</event>
<event>
 7    1  0.4477737E-009  0.4778722E+02  0.7816164E-02  0.1312668E+00
        -11   -1    0    0    0    0  0.00000000000E+00  0.00000000000E+00  0.45593999997E+02  0.45594000000E+02  0.51100000000E-03 0. -1.
         11   -1    0    0    0    0 -0.00000000000E+00 -0.00000000000E+00 -0.45593999997E+02  0.45594000000E+02  0.51100000000E-03 0.  1.
    9900012    2    1    2    0    0 -0.27953322506E+02  0.22824822620E+02 -0.24109469812E+02  0.47787224646E+02  0.19999788448E+02 0.  0.
         12    1    1    2    0    0  0.27953322506E+02 -0.22824822620E+02  0.24109469812E+02  0.43400775354E+02  0.00000000000E+00 0. -1.
         11    1    3    3    0    0 -0.58165092853E+01  0.47624879477E+01 -0.14474180508E+02  0.16309965461E+02  0.51100000000E-03 0. -1.
        -11    1    3    3    0    0 -0.20878168816E+02  0.16838650346E+02 -0.60661064959E+01  0.27499740487E+02  0.51100000000E-03 0.  1.
        -12    1    3    3    0    0 -0.12586444052E+01  0.12236843262E+01 -0.35691828080E+01  0.39775186971E+01  0.00000000000E+00 0.  1.
</event>
<event>
 7    1  0.4477737E-009  0.4778727E+02  0.7816164E-02  0.1312668E+00
        -11   -1    0    0    0    0  0.00000000000E+00  0.00000000000E+00  0.45593999997E+02  0.45594000000E+02  0.51100000000E-03 0.  1.
         11   -1    0    0    0    0 -0.00000000000E+00 -0.00000000000E+00 -0.45593999997E+02  0.45594000000E+02  0.51100000000E-03 0. -1.
    9900012    2    1    2    0    0  0.23616615989E+02 -0.35639475012E+02  0.74636756836E+01  0.47787272073E+02  0.20000004690E+02 0.  0.
         12    1    1    2    0    0 -0.23616615989E+02  0.35639475012E+02 -0.74636756836E+01  0.43400727927E+02  0.00000000000E+00 0. -1.
         11    1    3    3    0    0 -0.28452919719E+01 -0.72174035288E+01  0.61042681696E-01  0.77582424925E+01  0.51100000000E-03 0. -1.
        -11    1    3    3    0    0  0.25248800067E+02 -0.27947673400E+02  0.81381399107E+01  0.38533150335E+02  0.51100000000E-03 0.  1.
         12    1    3    3    0    0  0.12131078940E+01 -0.47439808255E+00 -0.73550690875E+00  0.14958792452E+01  0.00000000000E+00 0. -1.
</event>
<event>
 7    1  0.4477737E-009  0.4778727E+02  0.7816164E-02  0.1312668E+00
        -11   -1    0    0    0    0  0.00000000000E+00  0.00000000000E+00  0.45593999997E+02  0.45594000000E+02  0.51100000000E-03 0.  1.
         11   -1    0    0    0    0 -0.00000000000E+00 -0.00000000000E+00 -0.45593999997E+02  0.45594000000E+02  0.51100000000E-03 0. -1.
    9900012    2    1    2    0    0  0.13799027815E+02 -0.26678087057E+02  0.31328733745E+02  0.47787273557E+02  0.20000011456E+02 0.  0.
         12    1    1    2    0    0 -0.13799027815E+02  0.26678087057E+02 -0.31328733745E+02  0.43400726443E+02  0.00000000000E+00 0. -1.
         11    1    3    3    0    0  0.69193834311E+00 -0.44391104744E+01  0.54244868045E+00  0.45253432253E+01  0.51100000000E-03 0. -1.
        -11    1    3    3    0    0  0.99962885885E+01 -0.23510056933E+02  0.21512772931E+02  0.33398322742E+02  0.51100000000E-03 0.  1.
        -12    1    3    3    0    0  0.31108008838E+01  0.12710803497E+01  0.92735121341E+01  0.98636075903E+01  0.00000000000E+00 0.  1.
</event>
<event>
 7    1  0.4477737E-009  0.4778727E+02  0.7816164E-02  0.1312668E+00
        -11   -1    0    0    0    0  0.00000000000E+00  0.00000000000E+00  0.45593999997E+02  0.45594000000E+02  0.51100000000E-03 0.  1.
         11   -1    0    0    0    0 -0.00000000000E+00 -0.00000000000E+00 -0.45593999997E+02  0.45594000000E+02  0.51100000000E-03 0. -1.
    9900012    2    1    2    0    0  0.24779534815E+02  0.27757949731E+02  0.22340417873E+02  0.47787269710E+02  0.19999993918E+02 0.  0.
         12    1    1    2    0    0 -0.24779534815E+02 -0.27757949731E+02 -0.22340417873E+02  0.43400730290E+02  0.00000000000E+00 0. -1.
         11    1    3    3    0    0  0.22073800587E+01  0.10574473716E+02  0.39106765914E+01  0.11488490448E+02  0.51100000000E-03 0. -1.
        -11    1    3    3    0    0  0.16434829060E+02  0.43770504708E+01  0.88905180812E+01  0.19191234694E+02  0.51100000000E-03 0.  1.
        -12    1    3    3    0    0  0.61373256966E+01  0.12806425544E+02  0.95392232003E+01  0.17107544569E+02  0.00000000000E+00 0.  1.
</event>
<event>
 7    1  0.4477737E-009  0.4778727E+02  0.7816164E-02  0.1312668E+00
        -11   -1    0    0    0    0  0.00000000000E+00  0.00000000000E+00  0.45593999997E+02  0.45594000000E+02  0.51100000000E-03 0.  1.
         11   -1    0    0    0    0 -0.00000000000E+00 -0.00000000000E+00 -0.45593999997E+02  0.45594000000E+02  0.51100000000E-03 0. -1.
    9900012    2    1    2    0    0  0.30173982885E+01  0.34571250122E+02  0.26064289274E+02  0.47787271863E+02  0.20000003733E+02 0.  0.
         12    1    1    2    0    0 -0.30173982885E+01 -0.34571250122E+02 -0.26064289274E+02  0.43400728137E+02  0.00000000000E+00 0. -1.
         11    1    3    3    0    0 -0.63316837888E+01  0.22154786972E+02  0.18665692964E+02  0.29653547840E+02  0.51100000000E-03 0. -1.
        -11    1    3    3    0    0 -0.32924702634E-01  0.38214330202E+01  0.14416003295E+01  0.40844395129E+01  0.51100000000E-03 0.  1.
         12    1    3    3    0    0  0.93820067799E+01  0.85950301300E+01  0.59569959803E+01  0.14049284511E+02  0.00000000000E+00 0. -1.
</event>
<event>
 7    1  0.4477737E-009  0.4778727E+02  0.7816164E-02  0.1312668E+00
        -11   -1    0    0    0    0  0.00000000000E+00  0.00000000000E+00  0.45593999997E+02  0.45594000000E+02  0.51100000000E-03 0.  1.
         11   -1    0    0    0    0 -0.00000000000E+00 -0.00000000000E+00 -0.45593999997E+02  0.45594000000E+02  0.51100000000E-03 0. -1.
    9900012    2    1    2    0    0  0.42803325892E+02 -0.57464048616E+01  0.42985172642E+01  0.47787272738E+02  0.20000007721E+02 0.  0.
         12    1    1    2    0    0 -0.42803325892E+02  0.57464048616E+01 -0.42985172642E+01  0.43400727262E+02  0.00000000000E+00 0. -1.
         11    1    3    3    0    0  0.30181690250E+02  0.91134668271E+00  0.72917048349E+01  0.31063385823E+02  0.51100000000E-03 0. -1.
        -11    1    3    3    0    0  0.12440200780E+02 -0.51834851017E+01 -0.10636389041E+00  0.13477330106E+02  0.51100000000E-03 0.  1.
         12    1    3    3    0    0  0.18143486155E+00 -0.14742664426E+01 -0.28868236802E+01  0.32465568089E+01  0.00000000000E+00 0. -1.
</event>
<event>
 7    1  0.4477737E-009  0.4778727E+02  0.7816164E-02  0.1312668E+00
        -11   -1    0    0    0    0  0.00000000000E+00  0.00000000000E+00  0.45593999997E+02  0.45594000000E+02  0.51100000000E-03 0. -1.
         11   -1    0    0    0    0 -0.00000000000E+00 -0.00000000000E+00 -0.45593999997E+02  0.45594000000E+02  0.51100000000E-03 0.  1.
    9900012    2    1    2    0    0  0.34043117874E+01  0.26361123603E+02 -0.34309256799E+02  0.47787270992E+02  0.19999999760E+02 0.  0.
         12    1    1    2    0    0 -0.34043117874E+01 -0.26361123603E+02  0.34309256799E+02  0.43400729008E+02  0.00000000000E+00 0. -1.
         11    1    3    3    0    0 -0.13074675461E+01  0.39641544065E+01 -0.79950752261E+01  0.90191584793E+01  0.51100000000E-03 0. -1.
        -11    1    3    3    0    0  0.82211396273E+01  0.14162430690E+02 -0.24756521512E+02  0.29682434830E+02  0.51100000000E-03 0.  1.
        -12    1    3    3    0    0 -0.35093602939E+01  0.82345385060E+01 -0.15576600610E+01  0.90856776822E+01  0.00000000000E+00 0.  1.
</event>
<event>
 7    1  0.4477737E-009  0.4778727E+02  0.7816164E-02  0.1312668E+00
        -11   -1    0    0    0    0  0.00000000000E+00  0.00000000000E+00  0.45593999997E+02  0.45594000000E+02  0.51100000000E-03 0. -1.
         11   -1    0    0    0    0 -0.00000000000E+00 -0.00000000000E+00 -0.45593999997E+02  0.45594000000E+02  0.51100000000E-03 0.  1.
    9900012    2    1    2    0    0 -0.11698740740E+02 -0.40926176217E+02 -0.84741116692E+01  0.47787274163E+02  0.20000014218E+02 0.  0.
         12    1    1    2    0    0  0.11698740740E+02  0.40926176217E+02  0.84741116692E+01  0.43400725837E+02  0.00000000000E+00 0. -1.
         11    1    3    3    0    0 -0.35498540206E+01 -0.15321842735E+02 -0.66563848620E+01  0.17078284107E+02  0.51100000000E-03 0. -1.
        -11    1    3    3    0    0 -0.83874315851E+01 -0.22411965511E+02 -0.67185446264E+01  0.24855261995E+02  0.51100000000E-03 0.  1.
        -12    1    3    3    0    0  0.23854486573E+00 -0.31923679701E+01  0.49008178191E+01  0.58537280605E+01  0.00000000000E+00 0.  1.
</event>
<event>
 7    1  0.4477737E-009  0.4778727E+02  0.7816164E-02  0.1312668E+00
        -11   -1    0    0    0    0  0.00000000000E+00  0.00000000000E+00  0.45593999997E+02  0.45594000000E+02  0.51100000000E-03 0. -1.
         11   -1    0    0    0    0 -0.00000000000E+00 -0.00000000000E+00 -0.45593999997E+02  0.45594000000E+02  0.51100000000E-03 0.  1.
    9900012    2    1    2    0    0  0.36575011743E+02 -0.63842919941E+01 -0.22475159995E+02  0.47787268612E+02  0.19999988908E+02 0.  0.
         12    1    1    2    0    0 -0.36575011743E+02  0.63842919941E+01  0.22475159995E+02  0.43400731388E+02  0.00000000000E+00 0. -1.
         11    1    3    3    0    0  0.98716243335E+01 -0.24372674400E+01 -0.53937909931E+01  0.11510092141E+02  0.51100000000E-03 0.  1.
        -11    1    3    3    0    0  0.20496402651E+02 -0.98642223916E+01 -0.15581355323E+02  0.27571435200E+02  0.51100000000E-03 0. -1.
        -12    1    3    3    0    0  0.62069847580E+01  0.59171978374E+01 -0.15000136785E+01  0.87057412705E+01  0.00000000000E+00 0.  1.
</event>
<event>
 7    1  0.4477737E-009  0.4778729E+02  0.7816164E-02  0.1312668E+00
        -11   -1    0    0    0    0  0.00000000000E+00  0.00000000000E+00  0.45593999997E+02  0.45594000000E+02  0.51100000000E-03 0.  1.
         11   -1    0    0    0    0 -0.00000000000E+00 -0.00000000000E+00 -0.45593999997E+02  0.45594000000E+02  0.51100000000E-03 0. -1.
    9900012    2    1    2    0    0  0.42063933243E+02 -0.35778934901E+01 -0.10072018470E+02  0.47787293119E+02  0.20000100648E+02 0.  0.
         12    1    1    2    0    0 -0.42063933243E+02  0.35778934901E+01  0.10072018470E+02  0.43400706881E+02  0.00000000000E+00 0. -1.
         11    1    3    3    0    0  0.17033559927E+01  0.38395997494E+01  0.87304619813E+00  0.42902398300E+01  0.51100000000E-03 0. -1.
        -11    1    3    3    0    0  0.32934706890E+02 -0.83775375273E+01 -0.59611891360E+01  0.34502374254E+02  0.51100000000E-03 0.  1.
         12    1    3    3    0    0  0.74258703598E+01  0.96004428774E+00 -0.49838755324E+01  0.89946790358E+01  0.00000000000E+00 0. -1.
</event>
<event>
 7    1  0.4477737E-009  0.4778727E+02  0.7816164E-02  0.1312668E+00
        -11   -1    0    0    0    0  0.00000000000E+00  0.00000000000E+00  0.45593999997E+02  0.45594000000E+02  0.51100000000E-03 0.  1.
         11   -1    0    0    0    0 -0.00000000000E+00 -0.00000000000E+00 -0.45593999997E+02  0.45594000000E+02  0.51100000000E-03 0. -1.
    9900012    2    1    2    0    0 -0.25900178665E+00 -0.36775549257E+01  0.43243865136E+02  0.47787270006E+02  0.19999995265E+02 0.  0.
         12    1    1    2    0    0  0.25900178665E+00  0.36775549257E+01 -0.43243865136E+02  0.43400729994E+02  0.00000000000E+00 0. -1.
         11    1    3    3    0    0 -0.14072950195E+01  0.62019084212E+01  0.65936443986E+01  0.91608020421E+01  0.51100000000E-03 0. -1.
        -11    1    3    3    0    0  0.36454908956E+01 -0.84784399699E+01  0.25653790614E+02  0.27263354917E+02  0.51100000000E-03 0.  1.
         12    1    3    3    0    0 -0.24971976628E+01 -0.14010233770E+01  0.10996430123E+02  0.11363113047E+02  0.00000000000E+00 0. -1.
</event>
<event>
 7    1  0.4477737E-009  0.4778727E+02  0.7816164E-02  0.1312668E+00
        -11   -1    0    0    0    0  0.00000000000E+00  0.00000000000E+00  0.45593999997E+02  0.45594000000E+02  0.51100000000E-03 0. -1.
         11   -1    0    0    0    0 -0.00000000000E+00 -0.00000000000E+00 -0.45593999997E+02  0.45594000000E+02  0.51100000000E-03 0.  1.
    9900012    2    1    2    0    0 -0.41185946376E+02 -0.99052445395E+01 -0.94460227271E+01  0.47787269665E+02  0.19999993709E+02 0.  0.
         12    1    1    2    0    0  0.41185946376E+02  0.99052445395E+01  0.94460227271E+01  0.43400730335E+02  0.00000000000E+00 0. -1.
         11    1    3    3    0    0 -0.38834331116E+01 -0.15568246669E+01 -0.17382503097E+01  0.45305926959E+01  0.51100000000E-03 0. -1.
        -11    1    3    3    0    0 -0.19210771608E+02 -0.12781559114E+02 -0.85583283485E+01  0.24610302386E+02  0.51100000000E-03 0.  1.
        -12    1    3    3    0    0 -0.18091741656E+02  0.44331392409E+01  0.85055593112E+00  0.18646374583E+02  0.00000000000E+00 0.  1.
</event>
<event>
 7    1  0.4477737E-009  0.4778727E+02  0.7816164E-02  0.1312668E+00
        -11   -1    0    0    0    0  0.00000000000E+00  0.00000000000E+00  0.45593999997E+02  0.45594000000E+02  0.51100000000E-03 0. -1.
         11   -1    0    0    0    0 -0.00000000000E+00 -0.00000000000E+00 -0.45593999997E+02  0.45594000000E+02  0.51100000000E-03 0.  1.
    9900012    2    1    2    0    0 -0.40252890855E+02  0.13772206121E+02 -0.85822308126E+01  0.47787267640E+02  0.19999984479E+02 0.  0.
         12    1    1    2    0    0  0.40252890855E+02 -0.13772206121E+02  0.85822308126E+01  0.43400732360E+02  0.00000000000E+00 0. -1.
         11    1    3    3    0    0 -0.24541487521E+01  0.19817111370E+01 -0.57661437716E+01  0.65725519689E+01  0.51100000000E-03 0. -1.
        -11    1    3    3    0    0 -0.35028460445E+02  0.13840746022E+02 -0.28075074633E+01  0.37768259028E+02  0.51100000000E-03 0.  1.
        -12    1    3    3    0    0 -0.27702816584E+01 -0.20502510382E+01 -0.85795777331E-02  0.34464566436E+01  0.00000000000E+00 0.  1.
</event>
<event>
 7    1  0.4477737E-009  0.4778727E+02  0.7816164E-02  0.1312668E+00
        -11   -1    0    0    0    0  0.00000000000E+00  0.00000000000E+00  0.45593999997E+02  0.45594000000E+02  0.51100000000E-03 0.  1.
         11   -1    0    0    0    0 -0.00000000000E+00 -0.00000000000E+00 -0.45593999997E+02  0.45594000000E+02  0.51100000000E-03 0. -1.
    9900012    2    1    2    0    0 -0.18452778725E+02  0.25128755148E+02  0.30193770847E+02  0.47787272173E+02  0.20000005146E+02 0.  0.
         12    1    1    2    0    0  0.18452778725E+02 -0.25128755148E+02 -0.30193770847E+02  0.43400727827E+02  0.00000000000E+00 0. -1.
         11    1    3    3    0    0 -0.75564348076E+01  0.20727249593E+02  0.10945577396E+02  0.24627712998E+02  0.51100000000E-03 0. -1.
        -11    1    3    3    0    0 -0.59044032543E+01  0.62812215278E+00  0.13119574302E+02  0.14400685586E+02  0.51100000000E-03 0.  1.
         12    1    3    3    0    0 -0.49919406630E+01  0.37733834020E+01  0.61286191485E+01  0.87588735891E+01  0.00000000000E+00 0. -1.
</event>
<event>
 7    1  0.4477737E-009  0.4778726E+02  0.7816164E-02  0.1312668E+00
        -11   -1    0    0    0    0  0.00000000000E+00  0.00000000000E+00  0.45593999997E+02  0.45594000000E+02  0.51100000000E-03 0.  1.
         11   -1    0    0    0    0 -0.00000000000E+00 -0.00000000000E+00 -0.45593999997E+02  0.45594000000E+02  0.51100000000E-03 0. -1.
    9900012    2    1    2    0    0  0.16548879743E+02  0.38499673274E+02  0.11293094700E+02  0.47787259789E+02  0.19999948684E+02 0.  0.
         12    1    1    2    0    0 -0.16548879743E+02 -0.38499673274E+02 -0.11293094700E+02  0.43400740211E+02  0.00000000000E+00 0. -1.
         11    1    3    3    0    0  0.11117008801E+02  0.10718588704E+02 -0.16104257876E+01  0.15526412978E+02  0.51100000000E-03 0. -1.
        -11    1    3    3    0    0 -0.82300985358E+00  0.12027692163E+02  0.84920760850E+01  0.14746459930E+02  0.51100000000E-03 0.  1.
         12    1    3    3    0    0  0.62548807952E+01  0.15753392407E+02  0.44114444027E+01  0.17514386881E+02  0.00000000000E+00 0. -1.
</event>
<event>
 7    1  0.4477737E-009  0.4778727E+02  0.7816164E-02  0.1312668E+00
        -11   -1    0    0    0    0  0.00000000000E+00  0.00000000000E+00  0.45593999997E+02  0.45594000000E+02  0.51100000000E-03 0.  1.
         11   -1    0    0    0    0 -0.00000000000E+00 -0.00000000000E+00 -0.45593999997E+02  0.45594000000E+02  0.51100000000E-03 0. -1.
    9900012    2    1    2    0    0 -0.33452970263E+02 -0.17035974152E+02  0.21778382432E+02  0.47787267563E+02  0.19999984127E+02 0.  0.
         12    1    1    2    0    0  0.33452970263E+02  0.17035974152E+02 -0.21778382432E+02  0.43400732437E+02  0.00000000000E+00 0. -1.
         11    1    3    3    0    0 -0.11578658080E+02 -0.59826916132E+01  0.16054664954E+02  0.20678737605E+02  0.51100000000E-03 0. -1.
        -11    1    3    3    0    0 -0.20945865803E+02 -0.96358080290E+01  0.21531598063E+01  0.23156299100E+02  0.51100000000E-03 0.  1.
        -12    1    3    3    0    0 -0.92844637948E+00 -0.14174745096E+01  0.35705576718E+01  0.39522308577E+01  0.00000000000E+00 0.  1.
</event>
<event>
 7    1  0.4477737E-009  0.4778727E+02  0.7816164E-02  0.1312668E+00
        -11   -1    0    0    0    0  0.00000000000E+00  0.00000000000E+00  0.45593999997E+02  0.45594000000E+02  0.51100000000E-03 0. -1.
         11   -1    0    0    0    0 -0.00000000000E+00 -0.00000000000E+00 -0.45593999997E+02  0.45594000000E+02  0.51100000000E-03 0.  1.
    9900012    2    1    2    0    0  0.26734777914E+02  0.33967043769E+02  0.38878083981E+01  0.47787268823E+02  0.19999989872E+02 0.  0.
         12    1    1    2    0    0 -0.26734777914E+02 -0.33967043769E+02 -0.38878083981E+01  0.43400731177E+02  0.00000000000E+00 0. -1.
         11    1    3    3    0    0  0.97129586340E+01  0.18285003860E+01  0.37913670678E+00  0.98908404088E+01  0.51100000000E-03 0. -1.
        -11    1    3    3    0    0  0.67259594974E+01  0.50000189319E+01 -0.12803307509E+01  0.84780874950E+01  0.51100000000E-03 0.  1.
         12    1    3    3    0    0  0.10295859783E+02  0.27138524451E+02  0.47890024422E+01  0.29418340919E+02  0.00000000000E+00 0. -1.
</event>
<event>
 7    1  0.4477737E-009  0.4778727E+02  0.7816164E-02  0.1312668E+00
        -11   -1    0    0    0    0  0.00000000000E+00  0.00000000000E+00  0.45593999997E+02  0.45594000000E+02  0.51100000000E-03 0. -1.
         11   -1    0    0    0    0 -0.00000000000E+00 -0.00000000000E+00 -0.45593999997E+02  0.45594000000E+02  0.51100000000E-03 0.  1.
    9900012    2    1    2    0    0 -0.38059379842E+01 -0.40790123778E+02 -0.14328441723E+02  0.47787267241E+02  0.19999982659E+02 0.  0.
         12    1    1    2    0    0  0.38059379842E+01  0.40790123778E+02  0.14328441723E+02  0.43400732759E+02  0.00000000000E+00 0. -1.
         11    1    3    3    0    0  0.62634414291E+01 -0.65175699965E+01 -0.30754049772E+01  0.95481691035E+01  0.51100000000E-03 0. -1.
        -11    1    3    3    0    0 -0.27096707255E+01 -0.21621115543E+02 -0.82373259528E+01  0.23295246122E+02  0.51100000000E-03 0.  1.
         12    1    3    3    0    0 -0.73597086878E+01 -0.12651438239E+02 -0.30157107929E+01  0.14943852016E+02  0.00000000000E+00 0. -1.
</event>
<event>
 7    1  0.4477737E-009  0.4778727E+02  0.7816164E-02  0.1312668E+00
        -11   -1    0    0    0    0  0.00000000000E+00  0.00000000000E+00  0.45593999997E+02  0.45594000000E+02  0.51100000000E-03 0. -1.
         11   -1    0    0    0    0 -0.00000000000E+00 -0.00000000000E+00 -0.45593999997E+02  0.45594000000E+02  0.51100000000E-03 0.  1.
    9900012    2    1    2    0    0 -0.59115778083E+01 -0.16207626714E+02 -0.39824482715E+02  0.47787270289E+02  0.19999996557E+02 0.  0.
         12    1    1    2    0    0  0.59115778083E+01  0.16207626714E+02  0.39824482715E+02  0.43400729711E+02  0.00000000000E+00 0. -1.
         11    1    3    3    0    0  0.22188328382E+01 -0.85067821874E+01 -0.50440637085E+01  0.10135637193E+02  0.51100000000E-03 0. -1.
        -11    1    3    3    0    0 -0.37265594325E+01  0.15424536795E+01 -0.12422148420E+02  0.13060481622E+02  0.51100000000E-03 0.  1.
         12    1    3    3    0    0 -0.44038512139E+01 -0.92432982056E+01 -0.22358270587E+02  0.24591151475E+02  0.00000000000E+00 0. -1.
</event>
<event>
 7    1  0.4477737E-009  0.4778727E+02  0.7816164E-02  0.1312668E+00
        -11   -1    0    0    0    0  0.00000000000E+00  0.00000000000E+00  0.45593999997E+02  0.45594000000E+02  0.51100000000E-03 0.  1.
         11   -1    0    0    0    0 -0.00000000000E+00 -0.00000000000E+00 -0.45593999997E+02  0.45594000000E+02  0.51100000000E-03 0. -1.
    9900012    2    1    2    0    0  0.16842830265E+02  0.31663743513E+02 -0.24440738525E+02  0.47787270925E+02  0.19999999455E+02 0.  0.
         12    1    1    2    0    0 -0.16842830265E+02 -0.31663743513E+02  0.24440738525E+02  0.43400729075E+02  0.00000000000E+00 0. -1.
         11    1    3    3    0    0  0.31708723886E+01 -0.43011619317E+00 -0.89276716727E+01  0.94838153399E+01  0.51100000000E-03 0. -1.
        -11    1    3    3    0    0  0.88669152647E+01  0.16908588798E+02 -0.82764719258E+01  0.20809193863E+02  0.51100000000E-03 0.  1.
         12    1    3    3    0    0  0.48050426121E+01  0.15185270908E+02 -0.72365949267E+01  0.17494261722E+02  0.00000000000E+00 0. -1.
</event>
<event>
 7    1  0.4477737E-009  0.4778727E+02  0.7816164E-02  0.1312668E+00
        -11   -1    0    0    0    0  0.00000000000E+00  0.00000000000E+00  0.45593999997E+02  0.45594000000E+02  0.51100000000E-03 0. -1.
         11   -1    0    0    0    0 -0.00000000000E+00 -0.00000000000E+00 -0.45593999997E+02  0.45594000000E+02  0.51100000000E-03 0.  1.
    9900012    2    1    2    0    0  0.59050732140E+01 -0.48654474466E+01 -0.42720968164E+02  0.47787267409E+02  0.19999983426E+02 0.  0.
         12    1    1    2    0    0 -0.59050732140E+01  0.48654474466E+01  0.42720968164E+02  0.43400732591E+02  0.00000000000E+00 0. -1.
         11    1    3    3    0    0 -0.14622574561E+01 -0.45470272245E+00 -0.15410241932E+01  0.21724887247E+01  0.51100000000E-03 0. -1.
        -11    1    3    3    0    0  0.41669208222E+01 -0.75185971634E+01 -0.40118568438E+02  0.41029161169E+02  0.51100000000E-03 0.  1.
        -12    1    3    3    0    0  0.32004098479E+01  0.31078524393E+01 -0.10613755331E+01  0.45856175158E+01  0.00000000000E+00 0.  1.
</event>
<event>
 7    1  0.4477737E-009  0.4778728E+02  0.7816164E-02  0.1312668E+00
        -11   -1    0    0    0    0  0.00000000000E+00  0.00000000000E+00  0.45593999997E+02  0.45594000000E+02  0.51100000000E-03 0. -1.
         11   -1    0    0    0    0 -0.00000000000E+00 -0.00000000000E+00 -0.45593999997E+02  0.45594000000E+02  0.51100000000E-03 0.  1.
    9900012    2    1    2    0    0 -0.40976077876E+02  0.11858971771E+02  0.79967876792E+01  0.47787276703E+02  0.20000025798E+02 0.  0.
         12    1    1    2    0    0  0.40976077876E+02 -0.11858971771E+02 -0.79967876792E+01  0.43400723297E+02  0.00000000000E+00 0. -1.
         11    1    3    3    0    0 -0.14125364447E+02  0.38108056619E+01  0.11664128958E+02  0.18710961097E+02  0.51100000000E-03 0. -1.
        -11    1    3    3    0    0 -0.24535777388E+02  0.56650926778E+01 -0.17537680727E+01  0.25242292879E+02  0.51100000000E-03 0.  1.
         12    1    3    3    0    0 -0.23149360406E+01  0.23830734312E+01 -0.19135732064E+01  0.38340227264E+01  0.00000000000E+00 0. -1.
</event>
<event>
 7    1  0.4477737E-009  0.4778727E+02  0.7816164E-02  0.1312668E+00
        -11   -1    0    0    0    0  0.00000000000E+00  0.00000000000E+00  0.45593999997E+02  0.45594000000E+02  0.51100000000E-03 0. -1.
         11   -1    0    0    0    0 -0.00000000000E+00 -0.00000000000E+00 -0.45593999997E+02  0.45594000000E+02  0.51100000000E-03 0.  1.
    9900012    2    1    2    0    0  0.15181631132E+02 -0.32979706595E+02 -0.23779829869E+02  0.47787270979E+02  0.19999999703E+02 0.  0.
         12    1    1    2    0    0 -0.15181631132E+02  0.32979706595E+02  0.23779829869E+02  0.43400729021E+02  0.00000000000E+00 0. -1.
         11    1    3    3    0    0  0.48779801682E+01 -0.66449750131E+00 -0.15588827125E+01  0.51639483947E+01  0.51100000000E-03 0. -1.
        -11    1    3    3    0    0  0.93898622272E+01 -0.31786227806E+02 -0.16910361018E+02  0.37208790639E+02  0.51100000000E-03 0.  1.
        -12    1    3    3    0    0  0.91378873673E+00 -0.52898128801E+00 -0.53105861385E+01  0.54145319458E+01  0.00000000000E+00 0.  1.
</event>
<event>
 7    1  0.5234524E-009  0.4778727E+02  0.7816164E-02  0.1312668E+00
        -11   -1    0    0    0    0  0.00000000000E+00  0.00000000000E+00  0.45593999997E+02  0.45594000000E+02  0.51100000000E-03 0. -1.
         11   -1    0    0    0    0 -0.00000000000E+00 -0.00000000000E+00 -0.45593999997E+02  0.45594000000E+02  0.51100000000E-03 0.  1.
    9900012    2    1    2    0    0  0.16918871495E+02  0.25571799828E+02 -0.30715762224E+02  0.47787271803E+02  0.20000003456E+02 0.  0.
         12    1    1    2    0    0 -0.16918871495E+02 -0.25571799828E+02  0.30715762224E+02  0.43400728197E+02  0.00000000000E+00 0. -1.
         11    1    3    3    0    0  0.85177106458E+01  0.14376749785E+01 -0.10341847877E+02  0.13474870009E+02  0.51100000000E-03 0. -1.
        -11    1    3    3    0    0  0.40406618118E+01  0.16101923743E+02 -0.18726546305E+02  0.25025635514E+02  0.51100000000E-03 0.  1.
         12    1    3    3    0    0  0.43604990372E+01  0.80322011064E+01 -0.16473680418E+01  0.92867662796E+01  0.00000000000E+00 0. -1.
</event>
<event>
 7    1  0.4477737E-009  0.4778727E+02  0.7816164E-02  0.1312668E+00
        -11   -1    0    0    0    0  0.00000000000E+00  0.00000000000E+00  0.45593999997E+02  0.45594000000E+02  0.51100000000E-03 0. -1.
         11   -1    0    0    0    0 -0.00000000000E+00 -0.00000000000E+00 -0.45593999997E+02  0.45594000000E+02  0.51100000000E-03 0.  1.
    9900012    2    1    2    0    0  0.25744549663E+02  0.33285987710E+02 -0.10624710399E+02  0.47787270902E+02  0.19999999350E+02 0.  0.
         12    1    1    2    0    0 -0.25744549663E+02 -0.33285987710E+02  0.10624710399E+02  0.43400729098E+02  0.00000000000E+00 0. -1.
         11    1    3    3    0    0  0.26466498730E+01  0.15821295462E+02 -0.57824848065E+01  0.17051547626E+02  0.51100000000E-03 0. -1.
        -11    1    3    3    0    0  0.91126413264E+01  0.11756583758E+02 -0.48011485886E+01  0.15630371769E+02  0.51100000000E-03 0.  1.
         12    1    3    3    0    0  0.13985258463E+02  0.57081084895E+01 -0.41077004247E-01  0.15105351507E+02  0.00000000000E+00 0. -1.
</event>
<event>
 7    1  0.4477737E-009  0.4778727E+02  0.7816164E-02  0.1312668E+00
        -11   -1    0    0    0    0  0.00000000000E+00  0.00000000000E+00  0.45593999997E+02  0.45594000000E+02  0.51100000000E-03 0. -1.
         11   -1    0    0    0    0 -0.00000000000E+00 -0.00000000000E+00 -0.45593999997E+02  0.45594000000E+02  0.51100000000E-03 0.  1.
    9900012    2    1    2    0    0 -0.19542579772E+02 -0.13131388372E+02 -0.36459257793E+02  0.47787271164E+02  0.20000000543E+02 0.  0.
         12    1    1    2    0    0  0.19542579772E+02  0.13131388372E+02  0.36459257793E+02  0.43400728836E+02  0.00000000000E+00 0. -1.
         11    1    3    3    0    0 -0.10909545870E+02 -0.10730278354E+02 -0.79513486798E+01  0.17244738639E+02  0.51100000000E-03 0. -1.
        -11    1    3    3    0    0 -0.12341888194E+01 -0.30663143288E+01 -0.61381226536E+01  0.69715174515E+01  0.51100000000E-03 0.  1.
         12    1    3    3    0    0 -0.73988450832E+01  0.66520431061E+00 -0.22369786460E+02  0.23571015073E+02  0.00000000000E+00 0. -1.
</event>
<event>
 7    1  0.4477737E-009  0.4778727E+02  0.7816164E-02  0.1312668E+00
        -11   -1    0    0    0    0  0.00000000000E+00  0.00000000000E+00  0.45593999997E+02  0.45594000000E+02  0.51100000000E-03 0.  1.
         11   -1    0    0    0    0 -0.00000000000E+00 -0.00000000000E+00 -0.45593999997E+02  0.45594000000E+02  0.51100000000E-03 0. -1.
    9900012    2    1    2    0    0  0.24328378828E+02  0.26397999651E+02 -0.24390549031E+02  0.47787270928E+02  0.19999999467E+02 0.  0.
         12    1    1    2    0    0 -0.24328378828E+02 -0.26397999651E+02  0.24390549031E+02  0.43400729072E+02  0.00000000000E+00 0. -1.
         11    1    3    3    0    0  0.20246887717E+01  0.28489341690E+01 -0.14157284546E+00  0.34979756508E+01  0.51100000000E-03 0. -1.
        -11    1    3    3    0    0  0.13213535534E+02  0.17571550846E+01 -0.70647110192E+01  0.15086260549E+02  0.51100000000E-03 0.  1.
        -12    1    3    3    0    0  0.90901545221E+01  0.21791910397E+02 -0.17184265166E+02  0.29203034728E+02  0.00000000000E+00 0.  1.
</event>
<event>
 7    1  0.4477737E-009  0.4778727E+02  0.7816164E-02  0.1312668E+00
        -11   -1    0    0    0    0  0.00000000000E+00  0.00000000000E+00  0.45593999997E+02  0.45594000000E+02  0.51100000000E-03 0.  1.
         11   -1    0    0    0    0 -0.00000000000E+00 -0.00000000000E+00 -0.45593999997E+02  0.45594000000E+02  0.51100000000E-03 0. -1.
    9900012    2    1    2    0    0  0.10547239996E+02  0.40612000551E+02  0.11092535899E+02  0.47787271746E+02  0.20000003200E+02 0.  0.
         12    1    1    2    0    0 -0.10547239996E+02 -0.40612000551E+02 -0.11092535899E+02  0.43400728254E+02  0.00000000000E+00 0. -1.
         11    1    3    3    0    0  0.28342994359E+01  0.13633104646E+01  0.16657774688E+00  0.31495423671E+01  0.51100000000E-03 0. -1.
        -11    1    3    3    0    0  0.11690881776E+02  0.30612090669E+02  0.43029515707E+01  0.33049844240E+02  0.51100000000E-03 0.  1.
        -12    1    3    3    0    0 -0.39779412165E+01  0.86365994175E+01  0.66230065813E+01  0.11587885139E+02  0.00000000000E+00 0.  1.
</event>
<event>
 7    1  0.4477737E-009  0.4778727E+02  0.7816164E-02  0.1312668E+00
        -11   -1    0    0    0    0  0.00000000000E+00  0.00000000000E+00  0.45593999997E+02  0.45594000000E+02  0.51100000000E-03 0.  1.
         11   -1    0    0    0    0 -0.00000000000E+00 -0.00000000000E+00 -0.45593999997E+02  0.45594000000E+02  0.51100000000E-03 0. -1.
    9900012    2    1    2    0    0 -0.17499991241E+02  0.96063106537E+01  0.38536897242E+02  0.47787270204E+02  0.19999996168E+02 0.  0.
         12    1    1    2    0    0  0.17499991241E+02 -0.96063106537E+01 -0.38536897242E+02  0.43400729796E+02  0.00000000000E+00 0. -1.
         11    1    3    3    0    0 -0.14616225559E+02  0.49678985862E+01  0.29305047224E+02  0.33122497778E+02  0.51100000000E-03 0. -1.
        -11    1    3    3    0    0 -0.42133205910E+01  0.57258525566E+01  0.22228660110E+01  0.74483952276E+01  0.51100000000E-03 0.  1.
         12    1    3    3    0    0  0.13295549089E+01 -0.10874404892E+01  0.70089840064E+01  0.72163771988E+01  0.00000000000E+00 0. -1.
</event>
<event>
 7    1  0.4477737E-009  0.4778727E+02  0.7816164E-02  0.1312668E+00
        -11   -1    0    0    0    0  0.00000000000E+00  0.00000000000E+00  0.45593999997E+02  0.45594000000E+02  0.51100000000E-03 0.  1.
         11   -1    0    0    0    0 -0.00000000000E+00 -0.00000000000E+00 -0.45593999997E+02  0.45594000000E+02  0.51100000000E-03 0. -1.
    9900012    2    1    2    0    0  0.77543489614E+01  0.35109142811E+02  0.24307236456E+02  0.47787267508E+02  0.19999983877E+02 0.  0.
         12    1    1    2    0    0 -0.77543489614E+01 -0.35109142811E+02 -0.24307236456E+02  0.43400732492E+02  0.00000000000E+00 0. -1.
         11    1    3    3    0    0 -0.29895614947E+00 -0.46187720820E+00 -0.36050906000E+00  0.65777836558E+00  0.51100000000E-03 0. -1.
        -11    1    3    3    0    0 -0.43533991920E+01  0.15246551662E+02  0.63213132599E+01  0.17069517383E+02  0.51100000000E-03 0.  1.
        -12    1    3    3    0    0  0.12406704303E+02  0.20324468356E+02  0.18346432256E+02  0.30059971759E+02  0.00000000000E+00 0.  1.
</event>
<event>
 7    1  0.4477737E-009  0.4778727E+02  0.7816164E-02  0.1312668E+00
        -11   -1    0    0    0    0  0.00000000000E+00  0.00000000000E+00  0.45593999997E+02  0.45594000000E+02  0.51100000000E-03 0. -1.
         11   -1    0    0    0    0 -0.00000000000E+00 -0.00000000000E+00 -0.45593999997E+02  0.45594000000E+02  0.51100000000E-03 0.  1.
    9900012    2    1    2    0    0  0.34927433639E+02  0.24851527838E+02  0.67896520541E+01  0.47787269228E+02  0.19999991719E+02 0.  0.
         12    1    1    2    0    0 -0.34927433639E+02 -0.24851527838E+02 -0.67896520541E+01  0.43400730772E+02  0.00000000000E+00 0. -1.
         11    1    3    3    0    0 -0.11995014053E+01  0.34865874390E+01  0.26399921225E-01  0.36872473212E+01  0.51100000000E-03 0. -1.
        -11    1    3    3    0    0  0.26814144947E+02  0.11295151794E+02  0.70214486528E+00  0.29104498466E+02  0.51100000000E-03 0.  1.
         12    1    3    3    0    0  0.93127900975E+01  0.10069788605E+02  0.60611072676E+01  0.14995523441E+02  0.00000000000E+00 0. -1.
</event>
<event>
 7    1  0.4477737E-009  0.4778727E+02  0.7816164E-02  0.1312668E+00
        -11   -1    0    0    0    0  0.00000000000E+00  0.00000000000E+00  0.45593999997E+02  0.45594000000E+02  0.51100000000E-03 0.  1.
         11   -1    0    0    0    0 -0.00000000000E+00 -0.00000000000E+00 -0.45593999997E+02  0.45594000000E+02  0.51100000000E-03 0. -1.
    9900012    2    1    2    0    0 -0.15009908921E+02  0.38454049807E+02  0.13401936564E+02  0.47787271710E+02  0.20000003036E+02 0.  0.
         12    1    1    2    0    0  0.15009908921E+02 -0.38454049807E+02 -0.13401936564E+02  0.43400728290E+02  0.00000000000E+00 0. -1.
         11    1    3    3    0    0 -0.13250446354E+02  0.28690146594E+02  0.17498240954E+02  0.36123223512E+02  0.51100000000E-03 0. -1.
        -11    1    3    3    0    0 -0.29440781213E+00  0.82429290106E+01 -0.16133745478E+01  0.84044947692E+01  0.51100000000E-03 0.  1.
         12    1    3    3    0    0 -0.14650547555E+01  0.15209742026E+01 -0.24829298414E+01  0.32595534294E+01  0.00000000000E+00 0. -1.
</event>
<event>
 7    1  0.4477737E-009  0.4778727E+02  0.7816164E-02  0.1312668E+00
        -11   -1    0    0    0    0  0.00000000000E+00  0.00000000000E+00  0.45593999997E+02  0.45594000000E+02  0.51100000000E-03 0.  1.
         11   -1    0    0    0    0 -0.00000000000E+00 -0.00000000000E+00 -0.45593999997E+02  0.45594000000E+02  0.51100000000E-03 0. -1.
    9900012    2    1    2    0    0 -0.24027403400E+02  0.12076114736E+02  0.34065740408E+02  0.47787270389E+02  0.19999997012E+02 0.  0.
         12    1    1    2    0    0  0.24027403400E+02 -0.12076114736E+02 -0.34065740408E+02  0.43400729611E+02  0.00000000000E+00 0. -1.
         11    1    3    3    0    0 -0.11712210454E+02  0.13827992756E+02  0.27788457533E+02  0.33175105571E+02  0.51100000000E-03 0. -1.
        -11    1    3    3    0    0 -0.51391830406E+01 -0.58595172476E+00  0.26702777804E+00  0.51793673208E+01  0.51100000000E-03 0.  1.
         12    1    3    3    0    0 -0.71760099052E+01 -0.11659262950E+01  0.60102550968E+01  0.94327974967E+01  0.00000000000E+00 0. -1.
</event>
<event>
 7    1  0.4477737E-009  0.4778727E+02  0.7816164E-02  0.1312668E+00
        -11   -1    0    0    0    0  0.00000000000E+00  0.00000000000E+00  0.45593999997E+02  0.45594000000E+02  0.51100000000E-03 0.  1.
         11   -1    0    0    0    0 -0.00000000000E+00 -0.00000000000E+00 -0.45593999997E+02  0.45594000000E+02  0.51100000000E-03 0. -1.
    9900012    2    1    2    0    0 -0.80314324777E+01  0.32532004027E+02  0.27582381633E+02  0.47787274543E+02  0.20000015952E+02 0.  0.
         12    1    1    2    0    0  0.80314324777E+01 -0.32532004027E+02 -0.27582381633E+02  0.43400725457E+02  0.00000000000E+00 0. -1.
         11    1    3    3    0    0 -0.10036469472E+02  0.22652501600E+02  0.26553013851E+02  0.36317063386E+02  0.51100000000E-03 0. -1.
        -11    1    3    3    0    0  0.11909806535E+01  0.97388768035E+01 -0.39967482072E+00  0.98195670238E+01  0.51100000000E-03 0.  1.
         12    1    3    3    0    0  0.81405634081E+00  0.14062562310E+00  0.14290426033E+01  0.16506441330E+01  0.00000000000E+00 0. -1.
</event>
<event>
 7    1  0.5151328E-009  0.4778728E+02  0.7816164E-02  0.1312668E+00
        -11   -1    0    0    0    0  0.00000000000E+00  0.00000000000E+00  0.45593999997E+02  0.45594000000E+02  0.51100000000E-03 0. -1.
         11   -1    0    0    0    0 -0.00000000000E+00 -0.00000000000E+00 -0.45593999997E+02  0.45594000000E+02  0.51100000000E-03 0.  1.
    9900012    2    1    2    0    0  0.20456184670E+02 -0.35073684030E+02 -0.15329834140E+02  0.47787278607E+02  0.20000034479E+02 0.  0.
         12    1    1    2    0    0 -0.20456184670E+02  0.35073684030E+02  0.15329834140E+02  0.43400721393E+02  0.00000000000E+00 0. -1.
         11    1    3    3    0    0  0.92797490804E+01 -0.21383114849E+02  0.18621445149E+00  0.23310641770E+02  0.51100000000E-03 0. -1.
        -11    1    3    3    0    0  0.48522183364E+01 -0.10947032659E+02 -0.10790232697E+02  0.16118643514E+02  0.51100000000E-03 0.  1.
         12    1    3    3    0    0  0.63242172533E+01 -0.27435365226E+01 -0.47258158940E+01  0.83579933227E+01  0.00000000000E+00 0. -1.
</event>
<event>
 7    1  0.4477737E-009  0.4778727E+02  0.7816164E-02  0.1312668E+00
        -11   -1    0    0    0    0  0.00000000000E+00  0.00000000000E+00  0.45593999997E+02  0.45594000000E+02  0.51100000000E-03 0.  1.
         11   -1    0    0    0    0 -0.00000000000E+00 -0.00000000000E+00 -0.45593999997E+02  0.45594000000E+02  0.51100000000E-03 0. -1.
    9900012    2    1    2    0    0  0.20044176179E+02 -0.14819723800E+02  0.35527876711E+02  0.47787271483E+02  0.20000001998E+02 0.  0.
         12    1    1    2    0    0 -0.20044176179E+02  0.14819723800E+02 -0.35527876711E+02  0.43400728517E+02  0.00000000000E+00 0. -1.
         11    1    3    3    0    0 -0.27985618890E+00 -0.26239940956E+01  0.54954425884E+01  0.60961917624E+01  0.51100000000E-03 0. -1.
        -11    1    3    3    0    0  0.12395875461E+02 -0.21344293309E+01  0.24890162456E+02  0.27887877373E+02  0.51100000000E-03 0.  1.
        -12    1    3    3    0    0  0.79281569069E+01 -0.10061300374E+02  0.51422716672E+01  0.13803202348E+02  0.00000000000E+00 0.  1.
</event>
<event>
 7    1  0.4477737E-009  0.4778727E+02  0.7816164E-02  0.1312668E+00
        -11   -1    0    0    0    0  0.00000000000E+00  0.00000000000E+00  0.45593999997E+02  0.45594000000E+02  0.51100000000E-03 0.  1.
         11   -1    0    0    0    0 -0.00000000000E+00 -0.00000000000E+00 -0.45593999997E+02  0.45594000000E+02  0.51100000000E-03 0. -1.
    9900012    2    1    2    0    0  0.25727329998E+02  0.14050490463E+02  0.32004867442E+02  0.47787270386E+02  0.19999996998E+02 0.  0.
         12    1    1    2    0    0 -0.25727329998E+02 -0.14050490463E+02 -0.32004867442E+02  0.43400729614E+02  0.00000000000E+00 0. -1.
         11    1    3    3    0    0 -0.45269568511E-01  0.67401601325E+01  0.73816842670E+01  0.99960527622E+01  0.51100000000E-03 0. -1.
        -11    1    3    3    0    0  0.22039874346E+02  0.96441659410E+01  0.19035045398E+02  0.30677336121E+02  0.51100000000E-03 0.  1.
        -12    1    3    3    0    0  0.37327252197E+01 -0.23338356108E+01  0.55881377767E+01  0.71138815028E+01  0.00000000000E+00 0.  1.
</event>
<event>
 7    1  0.4477737E-009  0.4778727E+02  0.7816164E-02  0.1312668E+00
        -11   -1    0    0    0    0  0.00000000000E+00  0.00000000000E+00  0.45593999997E+02  0.45594000000E+02  0.51100000000E-03 0. -1.
         11   -1    0    0    0    0 -0.00000000000E+00 -0.00000000000E+00 -0.45593999997E+02  0.45594000000E+02  0.51100000000E-03 0.  1.
    9900012    2    1    2    0    0  0.18701624398E+02 -0.76679479978E+01 -0.38406704522E+02  0.47787272658E+02  0.20000007356E+02 0.  0.
         12    1    1    2    0    0 -0.18701624398E+02  0.76679479978E+01  0.38406704522E+02  0.43400727342E+02  0.00000000000E+00 0. -1.
         11    1    3    3    0    0 -0.33226810097E+01 -0.29438717356E+01 -0.22426004945E+01  0.49735145649E+01  0.51100000000E-03 0. -1.
        -11    1    3    3    0    0  0.88638149327E+01 -0.18207529667E+00 -0.16325248467E+02  0.18577246952E+02  0.51100000000E-03 0.  1.
         12    1    3    3    0    0  0.13160490475E+02 -0.45420009655E+01 -0.19838855560E+02  0.24236511140E+02  0.00000000000E+00 0. -1.
</event>
<event>
 7    1  0.4477737E-009  0.4778727E+02  0.7816164E-02  0.1312668E+00
        -11   -1    0    0    0    0  0.00000000000E+00  0.00000000000E+00  0.45593999997E+02  0.45594000000E+02  0.51100000000E-03 0.  1.
         11   -1    0    0    0    0 -0.00000000000E+00 -0.00000000000E+00 -0.45593999997E+02  0.45594000000E+02  0.51100000000E-03 0. -1.
    9900012    2    1    2    0    0  0.16632175813E+02  0.39844772106E+02 -0.44031777843E+01  0.47787272921E+02  0.20000008554E+02 0.  0.
         12    1    1    2    0    0 -0.16632175813E+02 -0.39844772106E+02  0.44031777843E+01  0.43400727079E+02  0.00000000000E+00 0. -1.
         11    1    3    3    0    0  0.10050479924E+02  0.14321894865E+02 -0.70129598402E+01  0.18849679711E+02  0.51100000000E-03 0.  1.
        -11    1    3    3    0    0  0.63379016010E+01  0.26280268328E+02  0.40076374733E+01  0.27329154002E+02  0.51100000000E-03 0. -1.
         12    1    3    3    0    0  0.24379428766E+00 -0.75739108783E+00 -0.13978554174E+01  0.16084392070E+01  0.00000000000E+00 0. -1.
</event>
<event>
 7    1  0.4477737E-009  0.4778727E+02  0.7816164E-02  0.1312668E+00
        -11   -1    0    0    0    0  0.00000000000E+00  0.00000000000E+00  0.45593999997E+02  0.45594000000E+02  0.51100000000E-03 0. -1.
         11   -1    0    0    0    0 -0.00000000000E+00 -0.00000000000E+00 -0.45593999997E+02  0.45594000000E+02  0.51100000000E-03 0.  1.
    9900012    2    1    2    0    0 -0.56980821456E+01 -0.42984093763E+02 -0.18769409597E+01  0.47787270005E+02  0.19999995260E+02 0.  0.
         12    1    1    2    0    0  0.56980821456E+01  0.42984093763E+02  0.18769409597E+01  0.43400729995E+02  0.00000000000E+00 0. -1.
         11    1    3    3    0    0 -0.15085556675E+00 -0.24089912336E+02 -0.10302462113E+01  0.24112404303E+02  0.51100000000E-03 0. -1.
        -11    1    3    3    0    0 -0.52391492414E+01 -0.19446794723E+02 -0.39362257078E+01  0.20521217869E+02  0.51100000000E-03 0.  1.
         12    1    3    3    0    0 -0.30807733754E+00  0.55261329610E+00  0.30895309594E+01  0.31536478323E+01  0.00000000000E+00 0. -1.
</event>
<event>
 7    1  0.4477737E-009  0.4778727E+02  0.7816164E-02  0.1312668E+00
        -11   -1    0    0    0    0  0.00000000000E+00  0.00000000000E+00  0.45593999997E+02  0.45594000000E+02  0.51100000000E-03 0.  1.
         11   -1    0    0    0    0 -0.00000000000E+00 -0.00000000000E+00 -0.45593999997E+02  0.45594000000E+02  0.51100000000E-03 0. -1.
    9900012    2    1    2    0    0  0.80770193579E+01  0.30634159888E+02  0.29663668051E+02  0.47787271942E+02  0.20000004092E+02 0.  0.
         12    1    1    2    0    0 -0.80770193579E+01 -0.30634159888E+02 -0.29663668051E+02  0.43400728058E+02  0.00000000000E+00 0. -1.
         11    1    3    3    0    0 -0.50684804624E+01  0.11402303378E+02  0.11604713269E+02  0.17040287170E+02  0.51100000000E-03 0. -1.
        -11    1    3    3    0    0  0.12127359512E+02  0.19739378259E+02  0.18371345268E+02  0.29567249280E+02  0.51100000000E-03 0.  1.
        -12    1    3    3    0    0  0.10181403087E+01 -0.50752174968E+00 -0.31239048581E+00  0.11797354916E+01  0.00000000000E+00 0.  1.
</event>
<event>
 7    1  0.4477737E-009  0.4778727E+02  0.7816164E-02  0.1312668E+00
        -11   -1    0    0    0    0  0.00000000000E+00  0.00000000000E+00  0.45593999997E+02  0.45594000000E+02  0.51100000000E-03 0.  1.
         11   -1    0    0    0    0 -0.00000000000E+00 -0.00000000000E+00 -0.45593999997E+02  0.45594000000E+02  0.51100000000E-03 0. -1.
    9900012    2    1    2    0    0 -0.13947038807E+02 -0.27695976635E+02  0.30365049070E+02  0.47787271685E+02  0.20000002922E+02 0.  0.
         12    1    1    2    0    0  0.13947038807E+02  0.27695976635E+02 -0.30365049070E+02  0.43400728315E+02  0.00000000000E+00 0. -1.
         11    1    3    3    0    0  0.35597517456E+01 -0.13764266227E+01  0.21702562184E+01  0.43904891587E+01  0.51100000000E-03 0. -1.
        -11    1    3    3    0    0 -0.17350001184E+02 -0.27093094819E+02  0.27219527880E+02  0.42142152605E+02  0.51100000000E-03 0.  1.
        -12    1    3    3    0    0 -0.15678936939E+00  0.77354480723E+00  0.97526497148E+00  0.12546299214E+01  0.00000000000E+00 0.  1.
</event>
<event>
 7    1  0.4477737E-009  0.4778727E+02  0.7816164E-02  0.1312668E+00
        -11   -1    0    0    0    0  0.00000000000E+00  0.00000000000E+00  0.45593999997E+02  0.45594000000E+02  0.51100000000E-03 0. -1.
         11   -1    0    0    0    0 -0.00000000000E+00 -0.00000000000E+00 -0.45593999997E+02  0.45594000000E+02  0.51100000000E-03 0.  1.
    9900012    2    1    2    0    0 -0.86097152710E+01  0.42410472666E+02 -0.32936020798E+01  0.47787271855E+02  0.20000003698E+02 0.  0.
         12    1    1    2    0    0  0.86097152710E+01 -0.42410472666E+02  0.32936020798E+01  0.43400728145E+02  0.00000000000E+00 0. -1.
         11    1    3    3    0    0  0.13383506711E+01  0.10986553205E+02 -0.71912795833E+01  0.13198864957E+02  0.51100000000E-03 0. -1.
        -11    1    3    3    0    0 -0.52572970966E+01  0.89437489373E+01 -0.26524204450E+01  0.10708181559E+02  0.51100000000E-03 0.  1.
         12    1    3    3    0    0 -0.46907688455E+01  0.22480170524E+02  0.65500979486E+01  0.23880225340E+02  0.00000000000E+00 0. -1.
</event>
<event>
 7    1  0.4477737E-009  0.4778725E+02  0.7816164E-02  0.1312668E+00
        -11   -1    0    0    0    0  0.00000000000E+00  0.00000000000E+00  0.45593999997E+02  0.45594000000E+02  0.51100000000E-03 0.  1.
         11   -1    0    0    0    0 -0.00000000000E+00 -0.00000000000E+00 -0.45593999997E+02  0.45594000000E+02  0.51100000000E-03 0. -1.
    9900012    2    1    2    0    0 -0.11685304480E+02 -0.34675007811E+01  0.41653997749E+02  0.47787246194E+02  0.19999886698E+02 0.  0.
         12    1    1    2    0    0  0.11685304480E+02  0.34675007811E+01 -0.41653997749E+02  0.43400753806E+02  0.00000000000E+00 0. -1.
         11    1    3    3    0    0 -0.74751606629E+00  0.54901319334E+01  0.17102518545E+02  0.17977665859E+02  0.51100000000E-03 0. -1.
        -11    1    3    3    0    0 -0.16800237334E+01 -0.46947403414E+01  0.26363053467E+01  0.56403167251E+01  0.51100000000E-03 0.  1.
        -12    1    3    3    0    0 -0.92577646798E+01 -0.42628923732E+01  0.21915173857E+02  0.24169263610E+02  0.00000000000E+00 0.  1.
</event>
<event>
 7    1  0.4477737E-009  0.4778727E+02  0.7816164E-02  0.1312668E+00
        -11   -1    0    0    0    0  0.00000000000E+00  0.00000000000E+00  0.45593999997E+02  0.45594000000E+02  0.51100000000E-03 0. -1.
         11   -1    0    0    0    0 -0.00000000000E+00 -0.00000000000E+00 -0.45593999997E+02  0.45594000000E+02  0.51100000000E-03 0.  1.
    9900012    2    1    2    0    0  0.30230953006E+02  0.28561123502E+02 -0.12408681478E+02  0.47787266465E+02  0.19999979119E+02 0.  0.
         12    1    1    2    0    0 -0.30230953006E+02 -0.28561123502E+02  0.12408681478E+02  0.43400733535E+02  0.00000000000E+00 0. -1.
         11    1    3    3    0    0  0.20026403371E+02  0.80518923538E+01 -0.86229034234E+01  0.23243155254E+02  0.51100000000E-03 0. -1.
        -11    1    3    3    0    0  0.82067217094E+01  0.91179782013E+01 -0.42143190555E+01  0.12971055973E+02  0.51100000000E-03 0.  1.
         12    1    3    3    0    0  0.19978279256E+01  0.11391252947E+02  0.42854100088E+00  0.11573055237E+02  0.00000000000E+00 0. -1.
</event>
<event>
 7    1  0.4477737E-009  0.4778727E+02  0.7816164E-02  0.1312668E+00
        -11   -1    0    0    0    0  0.00000000000E+00  0.00000000000E+00  0.45593999997E+02  0.45594000000E+02  0.51100000000E-03 0.  1.
         11   -1    0    0    0    0 -0.00000000000E+00 -0.00000000000E+00 -0.45593999997E+02  0.45594000000E+02  0.51100000000E-03 0. -1.
    9900012    2    1    2    0    0  0.30700392378E+02 -0.24407298164E+02  0.18584746220E+02  0.47787273187E+02  0.20000009769E+02 0.  0.
         12    1    1    2    0    0 -0.30700392378E+02  0.24407298164E+02 -0.18584746220E+02  0.43400726813E+02  0.00000000000E+00 0. -1.
         11    1    3    3    0    0  0.10909472350E+02 -0.93037857117E+00  0.10633973104E+01  0.11000591136E+02  0.51100000000E-03 0. -1.
        -11    1    3    3    0    0  0.63309800520E+01 -0.14982501947E+02  0.10707774733E+02  0.19473395005E+02  0.51100000000E-03 0.  1.
        -12    1    3    3    0    0  0.13459939976E+02 -0.84944176458E+01  0.68135741766E+01  0.17313287046E+02  0.00000000000E+00 0.  1.
</event>
<event>
 7    1  0.4477737E-009  0.4778727E+02  0.7816164E-02  0.1312668E+00
        -11   -1    0    0    0    0  0.00000000000E+00  0.00000000000E+00  0.45593999997E+02  0.45594000000E+02  0.51100000000E-03 0.  1.
         11   -1    0    0    0    0 -0.00000000000E+00 -0.00000000000E+00 -0.45593999997E+02  0.45594000000E+02  0.51100000000E-03 0. -1.
    9900012    2    1    2    0    0 -0.12086054904E+02 -0.22902974476E+02  0.34828212491E+02  0.47787270186E+02  0.19999996088E+02 0.  0.
         12    1    1    2    0    0  0.12086054904E+02  0.22902974476E+02 -0.34828212491E+02  0.43400729814E+02  0.00000000000E+00 0. -1.
         11    1    3    3    0    0 -0.28957056625E+01  0.19556985438E+01  0.11089856032E+02  0.11627328806E+02  0.51100000000E-03 0. -1.
        -11    1    3    3    0    0 -0.97627948382E+01 -0.22014333143E+02  0.22653363874E+02  0.33062333884E+02  0.51100000000E-03 0.  1.
         12    1    3    3    0    0  0.57244559638E+00 -0.28443398765E+01  0.10849925851E+01  0.30976074967E+01  0.00000000000E+00 0. -1.
</event>
<event>
 7    1  0.4477737E-009  0.4778727E+02  0.7816164E-02  0.1312668E+00
        -11   -1    0    0    0    0  0.00000000000E+00  0.00000000000E+00  0.45593999997E+02  0.45594000000E+02  0.51100000000E-03 0.  1.
         11   -1    0    0    0    0 -0.00000000000E+00 -0.00000000000E+00 -0.45593999997E+02  0.45594000000E+02  0.51100000000E-03 0. -1.
    9900012    2    1    2    0    0 -0.31716990759E+01 -0.24793484991E+02  0.35480225358E+02  0.47787274609E+02  0.20000016252E+02 0.  0.
         12    1    1    2    0    0  0.31716990759E+01  0.24793484991E+02 -0.35480225358E+02  0.43400725391E+02  0.00000000000E+00 0. -1.
         11    1    3    3    0    0 -0.23361101006E+01 -0.21958112749E+01 -0.15423609156E+01  0.35577907488E+01  0.51100000000E-03 0. -1.
        -11    1    3    3    0    0 -0.10828428755E+00 -0.94579430878E+00  0.77710231085E+01  0.78291157084E+01  0.51100000000E-03 0.  1.
         12    1    3    3    0    0 -0.72730468776E+00 -0.21651879407E+02  0.29251563165E+02  0.36400368152E+02  0.00000000000E+00 0. -1.
</event>
<event>
 7    1  0.4477737E-009  0.4778727E+02  0.7816164E-02  0.1312668E+00
        -11   -1    0    0    0    0  0.00000000000E+00  0.00000000000E+00  0.45593999997E+02  0.45594000000E+02  0.51100000000E-03 0.  1.
         11   -1    0    0    0    0 -0.00000000000E+00 -0.00000000000E+00 -0.45593999997E+02  0.45594000000E+02  0.51100000000E-03 0. -1.
    9900012    2    1    2    0    0 -0.29318165570E+00  0.42456181411E+02  0.90005534287E+01  0.47787271233E+02  0.20000000861E+02 0.  0.
         12    1    1    2    0    0  0.29318165570E+00 -0.42456181411E+02 -0.90005534287E+01  0.43400728767E+02  0.00000000000E+00 0. -1.
         11    1    3    3    0    0  0.14795276602E+01  0.58603476951E+01 -0.37227430168E+01  0.70986965730E+01  0.51100000000E-03 0. -1.
        -11    1    3    3    0    0 -0.66658521054E+01  0.24184518664E+02  0.62153707253E+01  0.25844832382E+02  0.51100000000E-03 0.  1.
        -12    1    3    3    0    0  0.48931427895E+01  0.12411315051E+02  0.65079257202E+01  0.14843742279E+02  0.00000000000E+00 0.  1.
</event>
<event>
 7    1  0.4477737E-009  0.4778727E+02  0.7816164E-02  0.1312668E+00
        -11   -1    0    0    0    0  0.00000000000E+00  0.00000000000E+00  0.45593999997E+02  0.45594000000E+02  0.51100000000E-03 0.  1.
         11   -1    0    0    0    0 -0.00000000000E+00 -0.00000000000E+00 -0.45593999997E+02  0.45594000000E+02  0.51100000000E-03 0. -1.
    9900012    2    1    2    0    0  0.18264770417E+01 -0.40011847341E+02  0.16713448412E+02  0.47787270699E+02  0.19999998425E+02 0.  0.
         12    1    1    2    0    0 -0.18264770417E+01  0.40011847341E+02 -0.16713448412E+02  0.43400729301E+02  0.00000000000E+00 0. -1.
         11    1    3    3    0    0  0.33865752852E+01 -0.25673716344E+02  0.30380032519E+01  0.26073704514E+02  0.51100000000E-03 0. -1.
        -11    1    3    3    0    0 -0.17521692458E+01 -0.14709181853E+02  0.14537886782E+02  0.20755247052E+02  0.51100000000E-03 0.  1.
         12    1    3    3    0    0  0.19207100227E+00  0.37105085581E+00 -0.86244162215E+00  0.95831913219E+00  0.00000000000E+00 0. -1.
</event>
<event>
 7    1  0.4477737E-009  0.4778726E+02  0.7816164E-02  0.1312668E+00
        -11   -1    0    0    0    0  0.00000000000E+00  0.00000000000E+00  0.45593999997E+02  0.45594000000E+02  0.51100000000E-03 0.  1.
         11   -1    0    0    0    0 -0.00000000000E+00 -0.00000000000E+00 -0.45593999997E+02  0.45594000000E+02  0.51100000000E-03 0. -1.
    9900012    2    1    2    0    0 -0.24482746823E+02  0.22193092929E+02  0.28136909008E+02  0.47787263667E+02  0.19999966363E+02 0.  0.
         12    1    1    2    0    0  0.24482746823E+02 -0.22193092929E+02 -0.28136909008E+02  0.43400736333E+02  0.00000000000E+00 0. -1.
         11    1    3    3    0    0 -0.25979287988E+01 -0.71009220401E+00  0.50337865185E+01  0.57089816917E+01  0.51100000000E-03 0. -1.
        -11    1    3    3    0    0 -0.92116307886E+01  0.17244898767E+02  0.19770260016E+02  0.27804745218E+02  0.51100000000E-03 0.  1.
        -12    1    3    3    0    0 -0.12673187235E+02  0.56582863662E+01  0.33328624731E+01  0.14273536758E+02  0.00000000000E+00 0.  1.
</event>
<event>
 7    1  0.4477737E-009  0.4778729E+02  0.7816164E-02  0.1312668E+00
        -11   -1    0    0    0    0  0.00000000000E+00  0.00000000000E+00  0.45593999997E+02  0.45594000000E+02  0.51100000000E-03 0.  1.
         11   -1    0    0    0    0 -0.00000000000E+00 -0.00000000000E+00 -0.45593999997E+02  0.45594000000E+02  0.51100000000E-03 0. -1.
    9900012    2    1    2    0    0 -0.80426953174E+01  0.19897879205E+02  0.37722817712E+02  0.47787291239E+02  0.20000092074E+02 0.  0.
         12    1    1    2    0    0  0.80426953174E+01 -0.19897879205E+02 -0.37722817712E+02  0.43400708761E+02  0.00000000000E+00 0. -1.
         11    1    3    3    0    0 -0.33763774231E+00  0.89771136747E+00  0.51486041567E+01  0.52371757625E+01  0.51100000000E-03 0. -1.
        -11    1    3    3    0    0 -0.12632593455E+02  0.86450706095E+01  0.22909454474E+02  0.27552908518E+02  0.51100000000E-03 0.  1.
        -12    1    3    3    0    0  0.49275358801E+01  0.10355097228E+02  0.96647590819E+01  0.14997206958E+02  0.00000000000E+00 0.  1.
</event>
<event>
 7    1  0.4477737E-009  0.4778727E+02  0.7816164E-02  0.1312668E+00
        -11   -1    0    0    0    0  0.00000000000E+00  0.00000000000E+00  0.45593999997E+02  0.45594000000E+02  0.51100000000E-03 0. -1.
         11   -1    0    0    0    0 -0.00000000000E+00 -0.00000000000E+00 -0.45593999997E+02  0.45594000000E+02  0.51100000000E-03 0.  1.
    9900012    2    1    2    0    0  0.77864636823E+01  0.24031870816E+02 -0.35291129318E+02  0.47787266825E+02  0.19999980760E+02 0.  0.
         12    1    1    2    0    0 -0.77864636823E+01 -0.24031870816E+02  0.35291129318E+02  0.43400733175E+02  0.00000000000E+00 0. -1.
         11    1    3    3    0    0  0.13629987563E+01  0.59425594807E+01 -0.52812127708E+01  0.80661631141E+01  0.51100000000E-03 0. -1.
        -11    1    3    3    0    0 -0.52288569536E+01  0.11243296128E+02 -0.16172340892E+02  0.20378843516E+02  0.51100000000E-03 0.  1.
        -12    1    3    3    0    0  0.11652321880E+02  0.68460152069E+01 -0.13837575656E+02  0.19342260194E+02  0.00000000000E+00 0.  1.
</event>
<event>
 7    1  0.4477737E-009  0.4778728E+02  0.7816164E-02  0.1312668E+00
        -11   -1    0    0    0    0  0.00000000000E+00  0.00000000000E+00  0.45593999997E+02  0.45594000000E+02  0.51100000000E-03 0.  1.
         11   -1    0    0    0    0 -0.00000000000E+00 -0.00000000000E+00 -0.45593999997E+02  0.45594000000E+02  0.51100000000E-03 0. -1.
    9900012    2    1    2    0    0 -0.24111511421E+02 -0.55493103576E+01  0.35657577497E+02  0.47787278100E+02  0.20000032168E+02 0.  0.
         12    1    1    2    0    0  0.24111511421E+02  0.55493103576E+01 -0.35657577497E+02  0.43400721900E+02  0.00000000000E+00 0. -1.
         11    1    3    3    0    0 -0.86028035610E+01 -0.19582498472E+01  0.33590454932E+01  0.94406651492E+01  0.51100000000E-03 0. -1.
        -11    1    3    3    0    0 -0.29225505235E+01 -0.59258750110E+01  0.17900113617E+02  0.19080654181E+02  0.51100000000E-03 0.  1.
        -12    1    3    3    0    0 -0.12586157337E+02  0.23348145005E+01  0.14398418387E+02  0.19265958770E+02  0.00000000000E+00 0.  1.
</event>
<event>
 7    1  0.4477737E-009  0.4778728E+02  0.7816164E-02  0.1312668E+00
        -11   -1    0    0    0    0  0.00000000000E+00  0.00000000000E+00  0.45593999997E+02  0.45594000000E+02  0.51100000000E-03 0.  1.
         11   -1    0    0    0    0 -0.00000000000E+00 -0.00000000000E+00 -0.45593999997E+02  0.45594000000E+02  0.51100000000E-03 0. -1.
    9900012    2    1    2    0    0  0.14063925741E+02 -0.33689329246E+02  0.23470347978E+02  0.47787284032E+02  0.20000059218E+02 0.  0.
         12    1    1    2    0    0 -0.14063925741E+02  0.33689329246E+02 -0.23470347978E+02  0.43400715968E+02  0.00000000000E+00 0. -1.
         11    1    3    3    0    0 -0.17810887405E-01 -0.50882870473E+01  0.11364888198E+02  0.12451974394E+02  0.51100000000E-03 0. -1.
        -11    1    3    3    0    0  0.73785894056E+01 -0.16281347650E+02  0.18709571765E+01  0.17972933649E+02  0.51100000000E-03 0.  1.
         12    1    3    3    0    0  0.67031472227E+01 -0.12319694548E+02  0.10234502604E+02  0.17362375989E+02  0.00000000000E+00 0. -1.
</event>
<event>
 7    1  0.4477737E-009  0.4778727E+02  0.7816164E-02  0.1312668E+00
        -11   -1    0    0    0    0  0.00000000000E+00  0.00000000000E+00  0.45593999997E+02  0.45594000000E+02  0.51100000000E-03 0. -1.
         11   -1    0    0    0    0 -0.00000000000E+00 -0.00000000000E+00 -0.45593999997E+02  0.45594000000E+02  0.51100000000E-03 0.  1.
    9900012    2    1    2    0    0 -0.61472340791E+01 -0.32203224145E+02 -0.28439184876E+02  0.47787269954E+02  0.19999995027E+02 0.  0.
         12    1    1    2    0    0  0.61472340791E+01  0.32203224145E+02  0.28439184876E+02  0.43400730046E+02  0.00000000000E+00 0. -1.
         11    1    3    3    0    0 -0.27156433485E+01 -0.23070572706E+02 -0.25720863203E+02  0.34658171446E+02  0.51100000000E-03 0. -1.
        -11    1    3    3    0    0 -0.37309185656E+00 -0.84656786874E+01 -0.44292705569E+01  0.95616604781E+01  0.51100000000E-03 0.  1.
         12    1    3    3    0    0 -0.30584988740E+01 -0.66697275147E+00  0.17109488842E+01  0.35674380300E+01  0.00000000000E+00 0. -1.
</event>
<event>
 7    1  0.4477737E-009  0.4778728E+02  0.7816164E-02  0.1312668E+00
        -11   -1    0    0    0    0  0.00000000000E+00  0.00000000000E+00  0.45593999997E+02  0.45594000000E+02  0.51100000000E-03 0.  1.
         11   -1    0    0    0    0 -0.00000000000E+00 -0.00000000000E+00 -0.45593999997E+02  0.45594000000E+02  0.51100000000E-03 0. -1.
    9900012    2    1    2    0    0 -0.30729987730E+02  0.30305758686E+02  0.45663484590E+01  0.47787277729E+02  0.20000030478E+02 0.  0.
         12    1    1    2    0    0  0.30729987730E+02 -0.30305758686E+02 -0.45663484590E+01  0.43400722271E+02  0.00000000000E+00 0. -1.
         11    1    3    3    0    0 -0.18840467911E+02  0.11520587661E+02  0.83265891777E+01  0.23601255448E+02  0.51100000000E-03 0. -1.
        -11    1    3    3    0    0 -0.76222993529E+01  0.15602743180E+02 -0.60533227315E+01  0.18389881960E+02  0.51100000000E-03 0.  1.
        -12    1    3    3    0    0 -0.42672204662E+01  0.31824278447E+01  0.22930820128E+01  0.57961403202E+01  0.00000000000E+00 0.  1.
</event>
<event>
 7    1  0.4477737E-009  0.4778727E+02  0.7816164E-02  0.1312668E+00
        -11   -1    0    0    0    0  0.00000000000E+00  0.00000000000E+00  0.45593999997E+02  0.45594000000E+02  0.51100000000E-03 0. -1.
         11   -1    0    0    0    0 -0.00000000000E+00 -0.00000000000E+00 -0.45593999997E+02  0.45594000000E+02  0.51100000000E-03 0.  1.
    9900012    2    1    2    0    0  0.63087082339E+01  0.40325727182E+02  0.14753279359E+02  0.47787270465E+02  0.19999997357E+02 0.  0.
         12    1    1    2    0    0 -0.63087082339E+01 -0.40325727182E+02 -0.14753279359E+02  0.43400729535E+02  0.00000000000E+00 0. -1.
         11    1    3    3    0    0  0.57420960289E+01  0.22215159949E+02  0.16477112417E+02  0.28248543896E+02  0.51100000000E-03 0. -1.
        -11    1    3    3    0    0  0.12872807369E+01  0.15933266150E+02  0.95322934826E+00  0.16013578874E+02  0.51100000000E-03 0.  1.
         12    1    3    3    0    0 -0.72066853198E+00  0.21773010827E+01 -0.26770624068E+01  0.35251476944E+01  0.00000000000E+00 0. -1.
</event>
<event>
 7    1  0.4477737E-009  0.4778728E+02  0.7816164E-02  0.1312668E+00
        -11   -1    0    0    0    0  0.00000000000E+00  0.00000000000E+00  0.45593999997E+02  0.45594000000E+02  0.51100000000E-03 0.  1.
         11   -1    0    0    0    0 -0.00000000000E+00 -0.00000000000E+00 -0.45593999997E+02  0.45594000000E+02  0.51100000000E-03 0. -1.
    9900012    2    1    2    0    0 -0.14116596633E+02 -0.56117634411E+01  0.40655290180E+02  0.47787276400E+02  0.20000024418E+02 0.  0.
         12    1    1    2    0    0  0.14116596633E+02  0.56117634411E+01 -0.40655290180E+02  0.43400723600E+02  0.00000000000E+00 0. -1.
         11    1    3    3    0    0 -0.16758435697E+02 -0.30659137221E+01  0.21123038497E+02  0.27137202317E+02  0.51100000000E-03 0. -1.
        -11    1    3    3    0    0 -0.16313863070E+01 -0.16785849548E+01  0.69855298562E+01  0.73672719758E+01  0.51100000000E-03 0.  1.
         12    1    3    3    0    0  0.42732253708E+01 -0.86726476423E+00  0.12546721826E+02  0.13282802107E+02  0.00000000000E+00 0. -1.
</event>
<event>
 7    1  0.4477737E-009  0.4778727E+02  0.7816164E-02  0.1312668E+00
        -11   -1    0    0    0    0  0.00000000000E+00  0.00000000000E+00  0.45593999997E+02  0.45594000000E+02  0.51100000000E-03 0.  1.
         11   -1    0    0    0    0 -0.00000000000E+00 -0.00000000000E+00 -0.45593999997E+02  0.45594000000E+02  0.51100000000E-03 0. -1.
    9900012    2    1    2    0    0 -0.79375672478E+01 -0.41072095794E+02  0.11562923167E+02  0.47787271678E+02  0.20000002890E+02 0.  0.
         12    1    1    2    0    0  0.79375672478E+01  0.41072095794E+02 -0.11562923167E+02  0.43400728322E+02  0.00000000000E+00 0. -1.
         11    1    3    3    0    0  0.26186847293E+01 -0.25267235037E+01  0.33154882224E+01  0.49228349342E+01  0.51100000000E-03 0. -1.
        -11    1    3    3    0    0  0.31329160543E+01 -0.79556417955E+01  0.16263371239E+01  0.87035838643E+01  0.51100000000E-03 0.  1.
        -12    1    3    3    0    0 -0.13689168031E+02 -0.30589730494E+02  0.66210978208E+01  0.34160852880E+02  0.00000000000E+00 0.  1.
</event>
<event>
 7    1  0.4477737E-009  0.4778729E+02  0.7816164E-02  0.1312668E+00
        -11   -1    0    0    0    0  0.00000000000E+00  0.00000000000E+00  0.45593999997E+02  0.45594000000E+02  0.51100000000E-03 0. -1.
         11   -1    0    0    0    0 -0.00000000000E+00 -0.00000000000E+00 -0.45593999997E+02  0.45594000000E+02  0.51100000000E-03 0.  1.
    9900012    2    1    2    0    0  0.13533463858E+02  0.76056912180E+01 -0.40529252223E+02  0.47787291842E+02  0.20000094823E+02 0.  0.
         12    1    1    2    0    0 -0.13533463858E+02 -0.76056912180E+01  0.40529252223E+02  0.43400708158E+02  0.00000000000E+00 0. -1.
         11    1    3    3    0    0  0.15818842244E+02  0.67590257787E+01 -0.21180269843E+02  0.27285967644E+02  0.51100000000E-03 0. -1.
        -11    1    3    3    0    0 -0.35453836920E-03 -0.32721368687E+00 -0.17052320741E+02  0.17055459883E+02  0.51100000000E-03 0.  1.
         12    1    3    3    0    0 -0.22850238476E+01  0.11738791262E+01 -0.22966616393E+01  0.34458643143E+01  0.00000000000E+00 0. -1.
</event>
<event>
 7    1  0.4477737E-009  0.4778727E+02  0.7816164E-02  0.1312668E+00
        -11   -1    0    0    0    0  0.00000000000E+00  0.00000000000E+00  0.45593999997E+02  0.45594000000E+02  0.51100000000E-03 0.  1.
         11   -1    0    0    0    0 -0.00000000000E+00 -0.00000000000E+00 -0.45593999997E+02  0.45594000000E+02  0.51100000000E-03 0. -1.
    9900012    2    1    2    0    0 -0.14038868710E+02 -0.11407860924E+02  0.39451160781E+02  0.47787271752E+02  0.20000003225E+02 0.  0.
         12    1    1    2    0    0  0.14038868710E+02  0.11407860924E+02 -0.39451160781E+02  0.43400728248E+02  0.00000000000E+00 0. -1.
         11    1    3    3    0    0 -0.92792034774E+01 -0.48432522557E+01  0.49182111693E+01  0.11565012363E+02  0.51100000000E-03 0. -1.
        -11    1    3    3    0    0 -0.69804606590E+00 -0.64692627441E+01  0.25511134330E+02  0.26327867438E+02  0.51100000000E-03 0.  1.
         12    1    3    3    0    0 -0.40616191670E+01 -0.95345924105E-01  0.90218152817E+01  0.98943919510E+01  0.00000000000E+00 0. -1.
</event>
<event>
 7    1  0.4477737E-009  0.4778727E+02  0.7816164E-02  0.1312668E+00
        -11   -1    0    0    0    0  0.00000000000E+00  0.00000000000E+00  0.45593999997E+02  0.45594000000E+02  0.51100000000E-03 0. -1.
         11   -1    0    0    0    0 -0.00000000000E+00 -0.00000000000E+00 -0.45593999997E+02  0.45594000000E+02  0.51100000000E-03 0.  1.
    9900012    2    1    2    0    0 -0.34241357393E+02  0.22482272238E+02 -0.14342242787E+02  0.47787273632E+02  0.20000011798E+02 0.  0.
         12    1    1    2    0    0  0.34241357393E+02 -0.22482272238E+02  0.14342242787E+02  0.43400726368E+02  0.00000000000E+00 0. -1.
         11    1    3    3    0    0 -0.68220329435E+01  0.13691171283E+02 -0.94657169519E+01  0.17988554757E+02  0.51100000000E-03 0. -1.
        -11    1    3    3    0    0 -0.22574023156E+02  0.70461321394E+01 -0.62668261880E+01  0.24464415185E+02  0.51100000000E-03 0.  1.
        -12    1    3    3    0    0 -0.48453012928E+01  0.17449688160E+01  0.13903003526E+01  0.53343036900E+01  0.00000000000E+00 0.  1.
</event>
<event>
 7    1  0.4477737E-009  0.4778727E+02  0.7816164E-02  0.1312668E+00
        -11   -1    0    0    0    0  0.00000000000E+00  0.00000000000E+00  0.45593999997E+02  0.45594000000E+02  0.51100000000E-03 0.  1.
         11   -1    0    0    0    0 -0.00000000000E+00 -0.00000000000E+00 -0.45593999997E+02  0.45594000000E+02  0.51100000000E-03 0. -1.
    9900012    2    1    2    0    0  0.36439238492E+02  0.21977261823E+02 -0.85325896983E+01  0.47787271595E+02  0.20000002511E+02 0.  0.
         12    1    1    2    0    0 -0.36439238492E+02 -0.21977261823E+02  0.85325896983E+01  0.43400728405E+02  0.00000000000E+00 0. -1.
         11    1    3    3    0    0  0.70037787604E+01  0.38414778985E+01 -0.71018425245E+01  0.10688593774E+02  0.51100000000E-03 0. -1.
        -11    1    3    3    0    0  0.11968280245E+02  0.10960829511E+02  0.52676127185E+01  0.17062451746E+02  0.51100000000E-03 0.  1.
         12    1    3    3    0    0  0.17467179487E+02  0.71749544135E+01 -0.66983598923E+01  0.20036226074E+02  0.00000000000E+00 0. -1.
</event>
<event>
 7    1  0.4477737E-009  0.4778727E+02  0.7816164E-02  0.1312668E+00
        -11   -1    0    0    0    0  0.00000000000E+00  0.00000000000E+00  0.45593999997E+02  0.45594000000E+02  0.51100000000E-03 0.  1.
         11   -1    0    0    0    0 -0.00000000000E+00 -0.00000000000E+00 -0.45593999997E+02  0.45594000000E+02  0.51100000000E-03 0. -1.
    9900012    2    1    2    0    0 -0.15965666879E+02 -0.38254488525E+02  0.12857481619E+02  0.47787271379E+02  0.20000001527E+02 0.  0.
         12    1    1    2    0    0  0.15965666879E+02  0.38254488525E+02 -0.12857481619E+02  0.43400728621E+02  0.00000000000E+00 0. -1.
         11    1    3    3    0    0 -0.13684160211E+02 -0.12962321632E+02  0.75267757141E+01  0.20296067986E+02  0.51100000000E-03 0.  1.
        -11    1    3    3    0    0  0.25638311896E+00 -0.23706509701E+02  0.59322483432E+01  0.24438819635E+02  0.51100000000E-03 0. -1.
         12    1    3    3    0    0 -0.25378897869E+01 -0.15856571925E+01 -0.60154243798E+00  0.30523837582E+01  0.00000000000E+00 0. -1.
</event>
<event>
 7    1  0.4477737E-009  0.4778726E+02  0.7816164E-02  0.1312668E+00
        -11   -1    0    0    0    0  0.00000000000E+00  0.00000000000E+00  0.45593999997E+02  0.45594000000E+02  0.51100000000E-03 0.  1.
         11   -1    0    0    0    0 -0.00000000000E+00 -0.00000000000E+00 -0.45593999997E+02  0.45594000000E+02  0.51100000000E-03 0. -1.
    9900012    2    1    2    0    0 -0.34109371439E+02 -0.38549424503E+01  0.26557752086E+02  0.47787262712E+02  0.19999962010E+02 0.  0.
         12    1    1    2    0    0  0.34109371439E+02  0.38549424503E+01 -0.26557752086E+02  0.43400737288E+02  0.00000000000E+00 0. -1.
         11    1    3    3    0    0 -0.11652081649E+02 -0.81925862168E+01  0.25818010157E+01  0.14476020600E+02  0.51100000000E-03 0. -1.
        -11    1    3    3    0    0 -0.17928302080E+02  0.24265413353E+01  0.17401694741E+02  0.25102412203E+02  0.51100000000E-03 0.  1.
        -12    1    3    3    0    0 -0.45289877099E+01  0.19111024312E+01  0.65742563295E+01  0.82088299084E+01  0.00000000000E+00 0.  1.
</event>
<event>
 7    1  0.4477737E-009  0.4778727E+02  0.7816164E-02  0.1312668E+00
        -11   -1    0    0    0    0  0.00000000000E+00  0.00000000000E+00  0.45593999997E+02  0.45594000000E+02  0.51100000000E-03 0.  1.
         11   -1    0    0    0    0 -0.00000000000E+00 -0.00000000000E+00 -0.45593999997E+02  0.45594000000E+02  0.51100000000E-03 0. -1.
    9900012    2    1    2    0    0 -0.32659151001E+02 -0.61197524153E+01  0.27920454422E+02  0.47787270872E+02  0.19999999214E+02 0.  0.
         12    1    1    2    0    0  0.32659151001E+02  0.61197524153E+01 -0.27920454422E+02  0.43400729128E+02  0.00000000000E+00 0. -1.
         11    1    3    3    0    0 -0.50327528803E+01 -0.33116275466E+01  0.13988657424E+02  0.15230824513E+02  0.51100000000E-03 0. -1.
        -11    1    3    3    0    0 -0.23043850803E+02 -0.47391038662E+01  0.80750890029E+01  0.24873383926E+02  0.51100000000E-03 0.  1.
        -12    1    3    3    0    0 -0.45825473177E+01  0.19309789975E+01  0.58567079945E+01  0.76830624324E+01  0.00000000000E+00 0.  1.
</event>
<event>
 7    1  0.4477737E-009  0.4778727E+02  0.7816164E-02  0.1312668E+00
        -11   -1    0    0    0    0  0.00000000000E+00  0.00000000000E+00  0.45593999997E+02  0.45594000000E+02  0.51100000000E-03 0. -1.
         11   -1    0    0    0    0 -0.00000000000E+00 -0.00000000000E+00 -0.45593999997E+02  0.45594000000E+02  0.51100000000E-03 0.  1.
    9900012    2    1    2    0    0 -0.38197830801E+02 -0.76642167067E+01 -0.19126122952E+02  0.47787273338E+02  0.20000010456E+02 0.  0.
         12    1    1    2    0    0  0.38197830801E+02  0.76642167067E+01  0.19126122952E+02  0.43400726662E+02  0.00000000000E+00 0. -1.
         11    1    3    3    0    0 -0.27784750970E+02 -0.33231250013E+01 -0.19517784132E+02  0.34117142963E+02  0.51100000000E-03 0.  1.
        -11    1    3    3    0    0 -0.73473460124E+01  0.76048547684E+00 -0.12600982049E+01  0.74933089709E+01  0.51100000000E-03 0. -1.
         12    1    3    3    0    0 -0.30657338186E+01 -0.51015771822E+01  0.16517593851E+01  0.61768214041E+01  0.00000000000E+00 0. -1.
</event>
<event>
 7    1  0.4477737E-009  0.4778727E+02  0.7816164E-02  0.1312668E+00
        -11   -1    0    0    0    0  0.00000000000E+00  0.00000000000E+00  0.45593999997E+02  0.45594000000E+02  0.51100000000E-03 0. -1.
         11   -1    0    0    0    0 -0.00000000000E+00 -0.00000000000E+00 -0.45593999997E+02  0.45594000000E+02  0.51100000000E-03 0.  1.
    9900012    2    1    2    0    0  0.36587017568E+01  0.26871265685E+01 -0.43162674884E+02  0.47787271309E+02  0.20000001207E+02 0.  0.
         12    1    1    2    0    0 -0.36587017568E+01 -0.26871265685E+01  0.43162674884E+02  0.43400728691E+02  0.00000000000E+00 0. -1.
         11    1    3    3    0    0 -0.69106199608E+01  0.59374568582E+00 -0.29742567494E+02  0.30540620878E+02  0.51100000000E-03 0. -1.
        -11    1    3    3    0    0  0.77760184737E+01  0.18980778350E+01 -0.10471276369E+02  0.13180166608E+02  0.51100000000E-03 0.  1.
         12    1    3    3    0    0  0.27933032438E+01  0.19530304767E+00 -0.29488310209E+01  0.40664838229E+01  0.00000000000E+00 0. -1.
</event>
<event>
 7    1  0.4477737E-009  0.4778727E+02  0.7816164E-02  0.1312668E+00
        -11   -1    0    0    0    0  0.00000000000E+00  0.00000000000E+00  0.45593999997E+02  0.45594000000E+02  0.51100000000E-03 0.  1.
         11   -1    0    0    0    0 -0.00000000000E+00 -0.00000000000E+00 -0.45593999997E+02  0.45594000000E+02  0.51100000000E-03 0. -1.
    9900012    2    1    2    0    0 -0.52073389259E+01 -0.12072820525E+02  0.41361260286E+02  0.47787271590E+02  0.20000002485E+02 0.  0.
         12    1    1    2    0    0  0.52073389259E+01  0.12072820525E+02 -0.41361260286E+02  0.43400728410E+02  0.00000000000E+00 0. -1.
         11    1    3    3    0    0  0.55872881726E+01 -0.30157951511E+01  0.21596617701E+02  0.22510590971E+02  0.51100000000E-03 0. -1.
        -11    1    3    3    0    0 -0.10562248975E+02 -0.51612498239E+01  0.15997410478E+02  0.19852373798E+02  0.51100000000E-03 0.  1.
         12    1    3    3    0    0 -0.23237812361E+00 -0.38957755501E+01  0.37672321078E+01  0.54243068205E+01  0.00000000000E+00 0. -1.
</event>
<event>
 7    1  0.4477737E-009  0.4778727E+02  0.7816164E-02  0.1312668E+00
        -11   -1    0    0    0    0  0.00000000000E+00  0.00000000000E+00  0.45593999997E+02  0.45594000000E+02  0.51100000000E-03 0. -1.
         11   -1    0    0    0    0 -0.00000000000E+00 -0.00000000000E+00 -0.45593999997E+02  0.45594000000E+02  0.51100000000E-03 0.  1.
    9900012    2    1    2    0    0 -0.41735194901E+02  0.67905254583E+01  0.97818946867E+01  0.47787271975E+02  0.20000004242E+02 0.  0.
         12    1    1    2    0    0  0.41735194901E+02 -0.67905254583E+01 -0.97818946867E+01  0.43400728025E+02  0.00000000000E+00 0. -1.
         11    1    3    3    0    0 -0.15183499635E+01 -0.27516928599E+01 -0.21587376337E+01  0.38127875157E+01  0.51100000000E-03 0. -1.
        -11    1    3    3    0    0 -0.48907138959E+01 -0.41232646577E+00 -0.10907117259E+01  0.50277975154E+01  0.51100000000E-03 0.  1.
         12    1    3    3    0    0 -0.35326131042E+02  0.99545447841E+01  0.13031344046E+02  0.38946686944E+02  0.00000000000E+00 0. -1.
</event>
<event>
 7    1  0.4477737E-009  0.4778727E+02  0.7816164E-02  0.1312668E+00
        -11   -1    0    0    0    0  0.00000000000E+00  0.00000000000E+00  0.45593999997E+02  0.45594000000E+02  0.51100000000E-03 0. -1.
         11   -1    0    0    0    0 -0.00000000000E+00 -0.00000000000E+00 -0.45593999997E+02  0.45594000000E+02  0.51100000000E-03 0.  1.
    9900012    2    1    2    0    0 -0.16798056051E+02 -0.14994968085E+02 -0.37102555047E+02  0.47787270214E+02  0.19999996214E+02 0.  0.
         12    1    1    2    0    0  0.16798056051E+02  0.14994968085E+02  0.37102555047E+02  0.43400729786E+02  0.00000000000E+00 0. -1.
         11    1    3    3    0    0 -0.83565210424E+01 -0.31172161142E+00 -0.39799547307E+01  0.92611367668E+01  0.51100000000E-03 0. -1.
        -11    1    3    3    0    0 -0.16290600265E+01 -0.18648760243E+01 -0.15491213115E+02  0.15687870576E+02  0.51100000000E-03 0.  1.
         12    1    3    3    0    0 -0.68124749818E+01 -0.12818370449E+02 -0.17631387201E+02  0.22838262871E+02  0.00000000000E+00 0. -1.
</event>
<event>
 7    1  0.4477737E-009  0.4778730E+02  0.7816164E-02  0.1312668E+00
        -11   -1    0    0    0    0  0.00000000000E+00  0.00000000000E+00  0.45593999997E+02  0.45594000000E+02  0.51100000000E-03 0.  1.
         11   -1    0    0    0    0 -0.00000000000E+00 -0.00000000000E+00 -0.45593999997E+02  0.45594000000E+02  0.51100000000E-03 0. -1.
    9900012    2    1    2    0    0  0.13912296567E+02 -0.14036815770E+02  0.38639834824E+02  0.47787296919E+02  0.20000117971E+02 0.  0.
         12    1    1    2    0    0 -0.13912296567E+02  0.14036815770E+02 -0.38639834824E+02  0.43400703081E+02  0.00000000000E+00 0. -1.
         11    1    3    3    0    0  0.45861737980E+01  0.40048874442E+01  0.34729039076E+01  0.70095060710E+01  0.51100000000E-03 0. -1.
        -11    1    3    3    0    0  0.82327242704E+01 -0.13007558870E+02  0.27981724086E+02  0.31936675152E+02  0.51100000000E-03 0.  1.
         12    1    3    3    0    0  0.10933984980E+01 -0.50341443439E+01  0.71852068307E+01  0.88411156960E+01  0.00000000000E+00 0. -1.
</event>
<event>
 7    1  0.4477737E-009  0.4778727E+02  0.7816164E-02  0.1312668E+00
        -11   -1    0    0    0    0  0.00000000000E+00  0.00000000000E+00  0.45593999997E+02  0.45594000000E+02  0.51100000000E-03 0. -1.
         11   -1    0    0    0    0 -0.00000000000E+00 -0.00000000000E+00 -0.45593999997E+02  0.45594000000E+02  0.51100000000E-03 0.  1.
    9900012    2    1    2    0    0 -0.42421959117E+02 -0.87561194672E+01 -0.27076351610E+01  0.47787268075E+02  0.19999986461E+02 0.  0.
         12    1    1    2    0    0  0.42421959117E+02  0.87561194672E+01  0.27076351610E+01  0.43400731925E+02  0.00000000000E+00 0. -1.
         11    1    3    3    0    0 -0.23119452827E+02 -0.46311915377E+01 -0.34526769883E+00  0.23581268926E+02  0.51100000000E-03 0. -1.
        -11    1    3    3    0    0 -0.58027207896E+01 -0.67872010578E-01 -0.72499771808E+01  0.92864602813E+01  0.51100000000E-03 0.  1.
         12    1    3    3    0    0 -0.13499785500E+02 -0.40570559189E+01  0.48876097186E+01  0.14919538868E+02  0.00000000000E+00 0. -1.
</event>
<event>
 7    1  0.4477737E-009  0.4778727E+02  0.7816164E-02  0.1312668E+00
        -11   -1    0    0    0    0  0.00000000000E+00  0.00000000000E+00  0.45593999997E+02  0.45594000000E+02  0.51100000000E-03 0.  1.
         11   -1    0    0    0    0 -0.00000000000E+00 -0.00000000000E+00 -0.45593999997E+02  0.45594000000E+02  0.51100000000E-03 0. -1.
    9900012    2    1    2    0    0  0.35329522077E+01  0.11989266539E+01  0.43240080508E+02  0.47787265689E+02  0.19999975583E+02 0.  0.
         12    1    1    2    0    0 -0.35329522077E+01 -0.11989266539E+01 -0.43240080508E+02  0.43400734311E+02  0.00000000000E+00 0. -1.
         11    1    3    3    0    0  0.50268934063E+01  0.45828294008E+00  0.32282476290E+01  0.59917663160E+01  0.51100000000E-03 0. -1.
        -11    1    3    3    0    0 -0.65536905008E+01  0.19945551232E+01  0.21638575971E+02  0.22697072050E+02  0.51100000000E-03 0.  1.
        -12    1    3    3    0    0  0.50597493022E+01 -0.12539114094E+01  0.18373256907E+02  0.19098427323E+02  0.00000000000E+00 0.  1.
</event>
<event>
 7    1  0.4477737E-009  0.4778729E+02  0.7816164E-02  0.1312668E+00
        -11   -1    0    0    0    0  0.00000000000E+00  0.00000000000E+00  0.45593999997E+02  0.45594000000E+02  0.51100000000E-03 0.  1.
         11   -1    0    0    0    0 -0.00000000000E+00 -0.00000000000E+00 -0.45593999997E+02  0.45594000000E+02  0.51100000000E-03 0. -1.
    9900012    2    1    2    0    0  0.27060227911E+02 -0.65563899671E+01  0.33292331954E+02  0.47787290894E+02  0.20000090501E+02 0.  0.
         12    1    1    2    0    0 -0.27060227911E+02  0.65563899671E+01 -0.33292331954E+02  0.43400709106E+02  0.00000000000E+00 0. -1.
         11    1    3    3    0    0  0.18273428116E+02 -0.76243245144E+01  0.13923736205E+02  0.24205762322E+02  0.51100000000E-03 0. -1.
        -11    1    3    3    0    0  0.82408067432E+01  0.48803882186E+01  0.14419843316E+02  0.17310718254E+02  0.51100000000E-03 0.  1.
         12    1    3    3    0    0  0.54599305183E+00 -0.38124536713E+01  0.49487524329E+01  0.62708103185E+01  0.00000000000E+00 0. -1.
</event>
<event>
 7    1  0.4477737E-009  0.4778727E+02  0.7816164E-02  0.1312668E+00
        -11   -1    0    0    0    0  0.00000000000E+00  0.00000000000E+00  0.45593999997E+02  0.45594000000E+02  0.51100000000E-03 0.  1.
         11   -1    0    0    0    0 -0.00000000000E+00 -0.00000000000E+00 -0.45593999997E+02  0.45594000000E+02  0.51100000000E-03 0. -1.
    9900012    2    1    2    0    0  0.21768125353E+02 -0.36926356153E+02  0.67982559812E+01  0.47787270231E+02  0.19999996290E+02 0.  0.
         12    1    1    2    0    0 -0.21768125353E+02  0.36926356153E+02 -0.67982559812E+01  0.43400729769E+02  0.00000000000E+00 0. -1.
         11    1    3    3    0    0  0.19740639956E+02 -0.15425161786E+02  0.48424968847E+01  0.25516235192E+02  0.51100000000E-03 0. -1.
        -11    1    3    3    0    0  0.35921882759E+01 -0.16287906616E+02  0.21927628216E+01  0.16822839463E+02  0.51100000000E-03 0.  1.
         12    1    3    3    0    0 -0.15647028789E+01 -0.52132877506E+01 -0.23700372513E+00  0.54481955761E+01  0.00000000000E+00 0. -1.
</event>
<event>
 7    1  0.4477737E-009  0.4778727E+02  0.7816164E-02  0.1312668E+00
        -11   -1    0    0    0    0  0.00000000000E+00  0.00000000000E+00  0.45593999997E+02  0.45594000000E+02  0.51100000000E-03 0.  1.
         11   -1    0    0    0    0 -0.00000000000E+00 -0.00000000000E+00 -0.45593999997E+02  0.45594000000E+02  0.51100000000E-03 0. -1.
    9900012    2    1    2    0    0  0.17217466803E+02  0.17190470637E+02  0.35939809027E+02  0.47787270550E+02  0.19999997747E+02 0.  0.
         12    1    1    2    0    0 -0.17217466803E+02 -0.17190470637E+02 -0.35939809027E+02  0.43400729450E+02  0.00000000000E+00 0. -1.
         11    1    3    3    0    0  0.91202182340E+01 -0.54887637648E+00  0.64587360053E+01  0.11189053443E+02  0.51100000000E-03 0. -1.
        -11    1    3    3    0    0  0.82602552379E+01  0.16859397582E+02  0.21401360586E+02  0.28469094446E+02  0.51100000000E-03 0.  1.
         12    1    3    3    0    0 -0.16300666884E+00  0.87994943186E+00  0.80797124364E+01  0.81291226607E+01  0.00000000000E+00 0. -1.
</event>
<event>
 7    1  0.4477737E-009  0.4778727E+02  0.7816164E-02  0.1312668E+00
        -11   -1    0    0    0    0  0.00000000000E+00  0.00000000000E+00  0.45593999997E+02  0.45594000000E+02  0.51100000000E-03 0. -1.
         11   -1    0    0    0    0 -0.00000000000E+00 -0.00000000000E+00 -0.45593999997E+02  0.45594000000E+02  0.51100000000E-03 0.  1.
    9900012    2    1    2    0    0  0.39795715055E+02 -0.87594724410E+01 -0.14939746466E+02  0.47787270529E+02  0.19999997650E+02 0.  0.
         12    1    1    2    0    0 -0.39795715055E+02  0.87594724410E+01  0.14939746466E+02  0.43400729471E+02  0.00000000000E+00 0. -1.
         11    1    3    3    0    0  0.16952695334E+01 -0.38144927489E+01 -0.32938898168E+01  0.53173305434E+01  0.51100000000E-03 0. -1.
        -11    1    3    3    0    0  0.33932330919E+02 -0.39357992736E+01 -0.14716924860E+02  0.37195180805E+02  0.51100000000E-03 0.  1.
        -12    1    3    3    0    0  0.41681146019E+01 -0.10091804185E+01  0.30710682114E+01  0.52747591803E+01  0.00000000000E+00 0.  1.
</event>
<event>
 7    1  0.4477737E-009  0.4778729E+02  0.7816164E-02  0.1312668E+00
        -11   -1    0    0    0    0  0.00000000000E+00  0.00000000000E+00  0.45593999997E+02  0.45594000000E+02  0.51100000000E-03 0.  1.
         11   -1    0    0    0    0 -0.00000000000E+00 -0.00000000000E+00 -0.45593999997E+02  0.45594000000E+02  0.51100000000E-03 0. -1.
    9900012    2    1    2    0    0 -0.13658227233E+02 -0.23490039726E+02  0.33842168913E+02  0.47787291086E+02  0.20000091376E+02 0.  0.
         12    1    1    2    0    0  0.13658227233E+02  0.23490039726E+02 -0.33842168913E+02  0.43400708914E+02  0.00000000000E+00 0. -1.
         11    1    3    3    0    0 -0.31846168796E+01 -0.18632461874E+02  0.15242412670E+02  0.24282536203E+02  0.51100000000E-03 0.  1.
        -11    1    3    3    0    0 -0.85709719181E+01  0.41143093413E+00  0.13056175518E+02  0.15623525673E+02  0.51100000000E-03 0. -1.
         12    1    3    3    0    0 -0.19026384356E+01 -0.52690087862E+01  0.55435807259E+01  0.78812292106E+01  0.00000000000E+00 0. -1.
</event>
<event>
 7    1  0.4477737E-009  0.4778730E+02  0.7816164E-02  0.1312668E+00
        -11   -1    0    0    0    0  0.00000000000E+00  0.00000000000E+00  0.45593999997E+02  0.45594000000E+02  0.51100000000E-03 0.  1.
         11   -1    0    0    0    0 -0.00000000000E+00 -0.00000000000E+00 -0.45593999997E+02  0.45594000000E+02  0.51100000000E-03 0. -1.
    9900012    2    1    2    0    0  0.19441644070E+02  0.29489972322E+02  0.25218741064E+02  0.47787298479E+02  0.20000125083E+02 0.  0.
         12    1    1    2    0    0 -0.19441644070E+02 -0.29489972322E+02 -0.25218741064E+02  0.43400701521E+02  0.00000000000E+00 0. -1.
         11    1    3    3    0    0  0.91626647507E+01  0.65243376021E+01  0.14222522651E+02  0.18132886072E+02  0.51100000000E-03 0. -1.
        -11    1    3    3    0    0  0.11370620557E+02  0.22721602882E+02  0.82900133402E+01  0.26726140215E+02  0.51100000000E-03 0.  1.
         12    1    3    3    0    0 -0.10916412374E+01  0.24403183768E+00  0.27062050734E+01  0.29282721916E+01  0.00000000000E+00 0. -1.
</event>
<event>
 7    1  0.4477737E-009  0.4778727E+02  0.7816164E-02  0.1312668E+00
        -11   -1    0    0    0    0  0.00000000000E+00  0.00000000000E+00  0.45593999997E+02  0.45594000000E+02  0.51100000000E-03 0.  1.
         11   -1    0    0    0    0 -0.00000000000E+00 -0.00000000000E+00 -0.45593999997E+02  0.45594000000E+02  0.51100000000E-03 0. -1.
    9900012    2    1    2    0    0  0.39251070745E+00 -0.25666351052E+02  0.34995824309E+02  0.47787270052E+02  0.19999995473E+02 0.  0.
         12    1    1    2    0    0 -0.39251070745E+00  0.25666351052E+02 -0.34995824309E+02  0.43400729948E+02  0.00000000000E+00 0. -1.
         11    1    3    3    0    0  0.36954803988E+01 -0.59453643104E+00  0.53103273898E+00  0.37804821091E+01  0.51100000000E-03 0. -1.
        -11    1    3    3    0    0  0.23601840589E+01 -0.11345433776E+01  0.21084816846E+01  0.33620459162E+01  0.51100000000E-03 0.  1.
         12    1    3    3    0    0 -0.56631537503E+01 -0.23937271244E+02  0.32356309885E+02  0.40644742026E+02  0.00000000000E+00 0. -1.
</event>
<event>
 7    1  0.4477737E-009  0.4778727E+02  0.7816164E-02  0.1312668E+00
        -11   -1    0    0    0    0  0.00000000000E+00  0.00000000000E+00  0.45593999997E+02  0.45594000000E+02  0.51100000000E-03 0.  1.
         11   -1    0    0    0    0 -0.00000000000E+00 -0.00000000000E+00 -0.45593999997E+02  0.45594000000E+02  0.51100000000E-03 0. -1.
    9900012    2    1    2    0    0  0.24745992223E+02  0.35659502574E+01  0.35475951809E+02  0.47787270869E+02  0.19999999199E+02 0.  0.
         12    1    1    2    0    0 -0.24745992223E+02 -0.35659502574E+01 -0.35475951809E+02  0.43400729131E+02  0.00000000000E+00 0. -1.
         11    1    3    3    0    0 -0.40879848866E+00  0.36591348944E+01 -0.80507063606E-01  0.36827796606E+01  0.51100000000E-03 0. -1.
        -11    1    3    3    0    0  0.19211827462E+02 -0.30203155740E+01  0.27302582848E+02  0.33520853972E+02  0.51100000000E-03 0.  1.
         12    1    3    3    0    0  0.59429632496E+01  0.29271309371E+01  0.82538760248E+01  0.10583637236E+02  0.00000000000E+00 0. -1.
</event>
<event>
 7    1  0.4477737E-009  0.4778722E+02  0.7816164E-02  0.1312668E+00
        -11   -1    0    0    0    0  0.00000000000E+00  0.00000000000E+00  0.45593999997E+02  0.45594000000E+02  0.51100000000E-03 0. -1.
         11   -1    0    0    0    0 -0.00000000000E+00 -0.00000000000E+00 -0.45593999997E+02  0.45594000000E+02  0.51100000000E-03 0.  1.
    9900012    2    1    2    0    0 -0.33420324783E+02  0.34703271450E+01 -0.27471196532E+02  0.47787217542E+02  0.19999756057E+02 0.  0.
         12    1    1    2    0    0  0.33420324783E+02 -0.34703271450E+01  0.27471196532E+02  0.43400782458E+02  0.00000000000E+00 0. -1.
         11    1    3    3    0    0 -0.39342030751E+01  0.38276246601E+01 -0.66275290855E+01  0.86053940302E+01  0.51100000000E-03 0. -1.
        -11    1    3    3    0    0 -0.98308087801E+01  0.52423352907E+01 -0.18744517127E+01  0.11297807312E+02  0.51100000000E-03 0.  1.
        -12    1    3    3    0    0 -0.19655312928E+02 -0.55996328058E+01 -0.18969215734E+02  0.27884016200E+02  0.00000000000E+00 0.  1.
</event>
<event>
 7    1  0.4477737E-009  0.4778727E+02  0.7816164E-02  0.1312668E+00
        -11   -1    0    0    0    0  0.00000000000E+00  0.00000000000E+00  0.45593999997E+02  0.45594000000E+02  0.51100000000E-03 0. -1.
         11   -1    0    0    0    0 -0.00000000000E+00 -0.00000000000E+00 -0.45593999997E+02  0.45594000000E+02  0.51100000000E-03 0.  1.
    9900012    2    1    2    0    0 -0.36389976053E+02 -0.21898165874E+02  0.89366211935E+01  0.47787271617E+02  0.20000002610E+02 0.  0.
         12    1    1    2    0    0  0.36389976053E+02  0.21898165874E+02 -0.89366211935E+01  0.43400728383E+02  0.00000000000E+00 0. -1.
         11    1    3    3    0    0 -0.14843615442E+02 -0.42645228639E+01  0.10705248407E+02  0.18791525174E+02  0.51100000000E-03 0. -1.
        -11    1    3    3    0    0 -0.10521944707E+02 -0.95772993719E+01 -0.47870241064E+01  0.15011714883E+02  0.51100000000E-03 0.  1.
         12    1    3    3    0    0 -0.11024415905E+02 -0.80563436385E+01  0.30183968924E+01  0.13984031560E+02  0.00000000000E+00 0. -1.
</event>
<event>
 7    1  0.4477737E-009  0.4778727E+02  0.7816164E-02  0.1312668E+00
        -11   -1    0    0    0    0  0.00000000000E+00  0.00000000000E+00  0.45593999997E+02  0.45594000000E+02  0.51100000000E-03 0.  1.
         11   -1    0    0    0    0 -0.00000000000E+00 -0.00000000000E+00 -0.45593999997E+02  0.45594000000E+02  0.51100000000E-03 0. -1.
    9900012    2    1    2    0    0  0.31718162189E+02  0.11501082935E+01  0.29601666006E+02  0.47787271987E+02  0.20000004297E+02 0.  0.
         12    1    1    2    0    0 -0.31718162189E+02 -0.11501082935E+01 -0.29601666006E+02  0.43400728013E+02  0.00000000000E+00 0. -1.
         11    1    3    3    0    0  0.37798920853E+01 -0.43446623883E+01  0.12092455660E+01  0.58843819170E+01  0.51100000000E-03 0. -1.
        -11    1    3    3    0    0  0.28868494769E+02  0.61831241721E+01  0.26433292860E+02  0.39627515522E+02  0.51100000000E-03 0.  1.
        -12    1    3    3    0    0 -0.93022466572E+00 -0.68835349024E+00  0.19591275805E+01  0.22753745479E+01  0.00000000000E+00 0.  1.
</event>
<event>
 7    1  0.4477737E-009  0.4778726E+02  0.7816164E-02  0.1312668E+00
        -11   -1    0    0    0    0  0.00000000000E+00  0.00000000000E+00  0.45593999997E+02  0.45594000000E+02  0.51100000000E-03 0. -1.
         11   -1    0    0    0    0 -0.00000000000E+00 -0.00000000000E+00 -0.45593999997E+02  0.45594000000E+02  0.51100000000E-03 0.  1.
    9900012    2    1    2    0    0 -0.10736422984E+02  0.18758064089E+02 -0.37636263726E+02  0.47787261595E+02  0.19999956914E+02 0.  0.
         12    1    1    2    0    0  0.10736422984E+02 -0.18758064089E+02  0.37636263726E+02  0.43400738405E+02  0.00000000000E+00 0. -1.
         11    1    3    3    0    0 -0.13894463103E+01  0.15103381885E+02 -0.16854979574E+02  0.22674502025E+02  0.51100000000E-03 0. -1.
        -11    1    3    3    0    0 -0.94042591730E+01  0.44699619500E+01 -0.21585781727E+02  0.23965947163E+02  0.51100000000E-03 0.  1.
         12    1    3    3    0    0  0.57282499025E-01 -0.81527974572E+00  0.80449757381E+00  0.11468124061E+01  0.00000000000E+00 0. -1.
</event>
<event>
 7    1  0.4477737E-009  0.4778727E+02  0.7816164E-02  0.1312668E+00
        -11   -1    0    0    0    0  0.00000000000E+00  0.00000000000E+00  0.45593999997E+02  0.45594000000E+02  0.51100000000E-03 0. -1.
         11   -1    0    0    0    0 -0.00000000000E+00 -0.00000000000E+00 -0.45593999997E+02  0.45594000000E+02  0.51100000000E-03 0.  1.
    9900012    2    1    2    0    0 -0.27456758899E+02 -0.29600938698E+02 -0.15922749198E+02  0.47787272782E+02  0.20000007922E+02 0.  0.
         12    1    1    2    0    0  0.27456758899E+02  0.29600938698E+02  0.15922749198E+02  0.43400727218E+02  0.00000000000E+00 0. -1.
         11    1    3    3    0    0 -0.34954181388E+01  0.69330558758E-01 -0.39544213345E+01  0.52782765221E+01  0.51100000000E-03 0. -1.
        -11    1    3    3    0    0 -0.25481216270E+02 -0.29802434109E+02 -0.11920530338E+02  0.40982636631E+02  0.51100000000E-03 0.  1.
        -12    1    3    3    0    0  0.15198755097E+01  0.13216485209E+00 -0.47797524855E-01  0.15263596288E+01  0.00000000000E+00 0.  1.
</event>
<event>
 7    1  0.4477737E-009  0.4778727E+02  0.7816164E-02  0.1312668E+00
        -11   -1    0    0    0    0  0.00000000000E+00  0.00000000000E+00  0.45593999997E+02  0.45594000000E+02  0.51100000000E-03 0. -1.
         11   -1    0    0    0    0 -0.00000000000E+00 -0.00000000000E+00 -0.45593999997E+02  0.45594000000E+02  0.51100000000E-03 0.  1.
    9900012    2    1    2    0    0 -0.57537149727E+01  0.41695474376E+02 -0.10583260948E+02  0.47787271530E+02  0.20000002213E+02 0.  0.
         12    1    1    2    0    0  0.57537149727E+01 -0.41695474376E+02  0.10583260948E+02  0.43400728470E+02  0.00000000000E+00 0. -1.
         11    1    3    3    0    0 -0.63954664871E+00  0.26227254853E+02 -0.15613092659E+02  0.30529437919E+02  0.51100000000E-03 0.  1.
        -11    1    3    3    0    0 -0.41673202402E+01  0.14680941877E+02  0.44483397339E+01  0.15896047906E+02  0.51100000000E-03 0. -1.
        -12    1    3    3    0    0 -0.94684808379E+00  0.78727764679E+00  0.58149197707E+00  0.13617857050E+01  0.00000000000E+00 0.  1.
</event>
<event>
 7    1  0.4477737E-009  0.4778728E+02  0.7816164E-02  0.1312668E+00
        -11   -1    0    0    0    0  0.00000000000E+00  0.00000000000E+00  0.45593999997E+02  0.45594000000E+02  0.51100000000E-03 0. -1.
         11   -1    0    0    0    0 -0.00000000000E+00 -0.00000000000E+00 -0.45593999997E+02  0.45594000000E+02  0.51100000000E-03 0.  1.
    9900012    2    1    2    0    0 -0.80152595189E+01 -0.37160947907E+02 -0.20939010521E+02  0.47787278853E+02  0.20000035602E+02 0.  0.
         12    1    1    2    0    0  0.80152595189E+01  0.37160947907E+02  0.20939010521E+02  0.43400721147E+02  0.00000000000E+00 0. -1.
         11    1    3    3    0    0 -0.13525262212E+01 -0.68319928973E+01  0.38875355482E+01  0.79761135290E+01  0.51100000000E-03 0. -1.
        -11    1    3    3    0    0 -0.60300902016E+01 -0.23473985394E+02 -0.19163742153E+02  0.30897232751E+02  0.51100000000E-03 0.  1.
         12    1    3    3    0    0 -0.63264309612E+00 -0.68549696156E+01 -0.56628039161E+01  0.89139325727E+01  0.00000000000E+00 0. -1.
</event>
<event>
 7    1  0.4477737E-009  0.4778729E+02  0.7816164E-02  0.1312668E+00
        -11   -1    0    0    0    0  0.00000000000E+00  0.00000000000E+00  0.45593999997E+02  0.45594000000E+02  0.51100000000E-03 0.  1.
         11   -1    0    0    0    0 -0.00000000000E+00 -0.00000000000E+00 -0.45593999997E+02  0.45594000000E+02  0.51100000000E-03 0. -1.
    9900012    2    1    2    0    0 -0.77780380911E+01 -0.41926549091E+02 -0.80801349701E+01  0.47787285993E+02  0.20000068155E+02 0.  0.
         12    1    1    2    0    0  0.77780380911E+01  0.41926549091E+02  0.80801349701E+01  0.43400714007E+02  0.00000000000E+00 0. -1.
         11    1    3    3    0    0  0.50347388256E+00 -0.14811768276E+02 -0.80861751463E+01  0.16882778035E+02  0.51100000000E-03 0. -1.
        -11    1    3    3    0    0 -0.11189254751E+02 -0.22106285555E+02 -0.17892038583E+01  0.24841266748E+02  0.51100000000E-03 0.  1.
        -12    1    3    3    0    0  0.29077427776E+01 -0.50084952594E+01  0.17952440345E+01  0.60632412098E+01  0.00000000000E+00 0.  1.
</event>
<event>
 7    1  0.4477737E-009  0.4778727E+02  0.7816164E-02  0.1312668E+00
        -11   -1    0    0    0    0  0.00000000000E+00  0.00000000000E+00  0.45593999997E+02  0.45594000000E+02  0.51100000000E-03 0.  1.
         11   -1    0    0    0    0 -0.00000000000E+00 -0.00000000000E+00 -0.45593999997E+02  0.45594000000E+02  0.51100000000E-03 0. -1.
    9900012    2    1    2    0    0 -0.18687021296E+02  0.12027183397E+02  0.37279557619E+02  0.47787270494E+02  0.19999997488E+02 0.  0.
         12    1    1    2    0    0  0.18687021296E+02 -0.12027183397E+02 -0.37279557619E+02  0.43400729506E+02  0.00000000000E+00 0. -1.
         11    1    3    3    0    0 -0.98169621245E+01  0.19188003103E+01  0.23158112813E+02  0.25226032770E+02  0.51100000000E-03 0. -1.
        -11    1    3    3    0    0  0.18708300314E+01  0.56130941474E+01  0.40947586584E+01  0.71954068436E+01  0.51100000000E-03 0.  1.
        -12    1    3    3    0    0 -0.10740889203E+02  0.44952889394E+01  0.10026686148E+02  0.15365830880E+02  0.00000000000E+00 0.  1.
</event>
<event>
 7    1  0.4477737E-009  0.4778728E+02  0.7816164E-02  0.1312668E+00
        -11   -1    0    0    0    0  0.00000000000E+00  0.00000000000E+00  0.45593999997E+02  0.45594000000E+02  0.51100000000E-03 0. -1.
         11   -1    0    0    0    0 -0.00000000000E+00 -0.00000000000E+00 -0.45593999997E+02  0.45594000000E+02  0.51100000000E-03 0.  1.
    9900012    2    1    2    0    0  0.93664311151E+01 -0.42358590730E+02 -0.12815426793E+01  0.47787278899E+02  0.20000035813E+02 0.  0.
         12    1    1    2    0    0 -0.93664311151E+01  0.42358590730E+02  0.12815426793E+01  0.43400721101E+02  0.00000000000E+00 0. -1.
         11    1    3    3    0    0  0.14877309523E+01 -0.65531138156E+01  0.68711867457E+01  0.96109235572E+01  0.51100000000E-03 0. -1.
        -11    1    3    3    0    0  0.41541653175E+01 -0.30325495218E+02 -0.58570631782E+01  0.31164048823E+02  0.51100000000E-03 0.  1.
         12    1    3    3    0    0  0.37245348452E+01 -0.54799816960E+01 -0.22956662468E+01  0.70123065191E+01  0.00000000000E+00 0. -1.
</event>
<event>
 7    1  0.4477737E-009  0.4778727E+02  0.7816164E-02  0.1312668E+00
        -11   -1    0    0    0    0  0.00000000000E+00  0.00000000000E+00  0.45593999997E+02  0.45594000000E+02  0.51100000000E-03 0.  1.
         11   -1    0    0    0    0 -0.00000000000E+00 -0.00000000000E+00 -0.45593999997E+02  0.45594000000E+02  0.51100000000E-03 0. -1.
    9900012    2    1    2    0    0  0.19181052445E+02  0.10728076820E+02  0.37424844455E+02  0.47787269734E+02  0.19999994027E+02 0.  0.
         12    1    1    2    0    0 -0.19181052445E+02 -0.10728076820E+02 -0.37424844455E+02  0.43400730266E+02  0.00000000000E+00 0. -1.
         11    1    3    3    0    0  0.16474259725E+02  0.22382967335E+01  0.27351084735E+02  0.32007702858E+02  0.51100000000E-03 0.  1.
        -11    1    3    3    0    0 -0.13280400269E+01  0.17533127115E+00  0.51231122571E+01  0.52953480365E+01  0.51100000000E-03 0. -1.
         12    1    3    3    0    0  0.40348327463E+01  0.83144488154E+01  0.49506474621E+01  0.10484218840E+02  0.00000000000E+00 0. -1.
</event>
<event>
 7    1  0.4477737E-009  0.4778727E+02  0.7816164E-02  0.1312668E+00
        -11   -1    0    0    0    0  0.00000000000E+00  0.00000000000E+00  0.45593999997E+02  0.45594000000E+02  0.51100000000E-03 0.  1.
         11   -1    0    0    0    0 -0.00000000000E+00 -0.00000000000E+00 -0.45593999997E+02  0.45594000000E+02  0.51100000000E-03 0. -1.
    9900012    2    1    2    0    0  0.34950685430E+02 -0.14747558668E+02  0.21085122196E+02  0.47787271012E+02  0.19999999850E+02 0.  0.
         12    1    1    2    0    0 -0.34950685430E+02  0.14747558668E+02 -0.21085122196E+02  0.43400728988E+02  0.00000000000E+00 0. -1.
         11    1    3    3    0    0  0.11708442933E+02 -0.75507160199E+01  0.45961996209E+01  0.14670582795E+02  0.51100000000E-03 0. -1.
        -11    1    3    3    0    0  0.13445898155E+02 -0.71897809106E+01  0.16510151249E+01  0.15336589515E+02  0.51100000000E-03 0.  1.
        -12    1    3    3    0    0  0.97963443417E+01 -0.70617374282E-02  0.14837907451E+02  0.17780098702E+02  0.00000000000E+00 0.  1.
</event>
<event>
 7    1  0.4477737E-009  0.4778728E+02  0.7816164E-02  0.1312668E+00
        -11   -1    0    0    0    0  0.00000000000E+00  0.00000000000E+00  0.45593999997E+02  0.45594000000E+02  0.51100000000E-03 0.  1.
         11   -1    0    0    0    0 -0.00000000000E+00 -0.00000000000E+00 -0.45593999997E+02  0.45594000000E+02  0.51100000000E-03 0. -1.
    9900012    2    1    2    0    0 -0.15391159783E+02 -0.33359395095E+02  0.23105959822E+02  0.47787280883E+02  0.20000044856E+02 0.  0.
         12    1    1    2    0    0  0.15391159783E+02  0.33359395095E+02 -0.23105959822E+02  0.43400719117E+02  0.00000000000E+00 0. -1.
         11    1    3    3    0    0  0.23844882710E+00  0.13004611304E+01  0.24297432840E+01  0.27661723884E+01  0.51100000000E-03 0. -1.
        -11    1    3    3    0    0 -0.14615928501E+02 -0.33505757291E+02  0.15647668384E+02  0.39763182263E+02  0.51100000000E-03 0.  1.
        -12    1    3    3    0    0 -0.10136801093E+01 -0.11540989353E+01  0.50285481538E+01  0.52579262311E+01  0.00000000000E+00 0.  1.
</event>
<event>
 7    1  0.4477737E-009  0.4778727E+02  0.7816164E-02  0.1312668E+00
        -11   -1    0    0    0    0  0.00000000000E+00  0.00000000000E+00  0.45593999997E+02  0.45594000000E+02  0.51100000000E-03 0. -1.
         11   -1    0    0    0    0 -0.00000000000E+00 -0.00000000000E+00 -0.45593999997E+02  0.45594000000E+02  0.51100000000E-03 0.  1.
    9900012    2    1    2    0    0  0.19205899917E+02 -0.36257365057E+02 -0.14147804414E+02  0.47787268644E+02  0.19999989056E+02 0.  0.
         12    1    1    2    0    0 -0.19205899917E+02  0.36257365057E+02  0.14147804414E+02  0.43400731356E+02  0.00000000000E+00 0. -1.
         11    1    3    3    0    0  0.18359256002E+02 -0.28512320488E+02 -0.12725223737E+02  0.36220795408E+02  0.51100000000E-03 0. -1.
        -11    1    3    3    0    0  0.42357386557E+01 -0.48992517660E+01  0.94905995979E+00  0.65455988951E+01  0.51100000000E-03 0.  1.
         12    1    3    3    0    0 -0.33890947408E+01 -0.28457928028E+01 -0.23716406363E+01  0.50208743409E+01  0.00000000000E+00 0. -1.
</event>
<event>
 7    1  0.4477737E-009  0.4778727E+02  0.7816164E-02  0.1312668E+00
        -11   -1    0    0    0    0  0.00000000000E+00  0.00000000000E+00  0.45593999997E+02  0.45594000000E+02  0.51100000000E-03 0. -1.
         11   -1    0    0    0    0 -0.00000000000E+00 -0.00000000000E+00 -0.45593999997E+02  0.45594000000E+02  0.51100000000E-03 0.  1.
    9900012    2    1    2    0    0  0.33778260941E+01 -0.22408244250E+02 -0.37014646387E+02  0.47787272280E+02  0.20000005632E+02 0.  0.
         12    1    1    2    0    0 -0.33778260941E+01  0.22408244250E+02  0.37014646387E+02  0.43400727720E+02  0.00000000000E+00 0. -1.
         11    1    3    3    0    0 -0.61072135782E+00 -0.25138146576E+01  0.17574998629E+01  0.31274671443E+01  0.51100000000E-03 0. -1.
        -11    1    3    3    0    0  0.38409180956E+01 -0.18428414621E+02 -0.27705969408E+02  0.33495967793E+02  0.51100000000E-03 0.  1.
         12    1    3    3    0    0  0.14762935629E+00 -0.14660149723E+01 -0.11066176842E+02  0.11163837343E+02  0.00000000000E+00 0. -1.
</event>
<event>
 7    1  0.4477737E-009  0.4778727E+02  0.7816164E-02  0.1312668E+00
        -11   -1    0    0    0    0  0.00000000000E+00  0.00000000000E+00  0.45593999997E+02  0.45594000000E+02  0.51100000000E-03 0.  1.
         11   -1    0    0    0    0 -0.00000000000E+00 -0.00000000000E+00 -0.45593999997E+02  0.45594000000E+02  0.51100000000E-03 0. -1.
    9900012    2    1    2    0    0 -0.16372204229E+02  0.13178559890E+02  0.37972354734E+02  0.47787271479E+02  0.20000001982E+02 0.  0.
         12    1    1    2    0    0  0.16372204229E+02 -0.13178559890E+02 -0.37972354734E+02  0.43400728521E+02  0.00000000000E+00 0. -1.
         11    1    3    3    0    0 -0.83199417560E+01  0.14781398264E+02  0.26290541549E+02  0.31287437426E+02  0.51100000000E-03 0. -1.
        -11    1    3    3    0    0 -0.23663514881E+01  0.15137026134E+01  0.90948863772E+01  0.95188168090E+01  0.51100000000E-03 0.  1.
         12    1    3    3    0    0 -0.56859109850E+01 -0.31165409879E+01  0.25869268079E+01  0.69810172445E+01  0.00000000000E+00 0. -1.
</event>
<event>
 7    1  0.4477737E-009  0.4778726E+02  0.7816164E-02  0.1312668E+00
        -11   -1    0    0    0    0  0.00000000000E+00  0.00000000000E+00  0.45593999997E+02  0.45594000000E+02  0.51100000000E-03 0.  1.
         11   -1    0    0    0    0 -0.00000000000E+00 -0.00000000000E+00 -0.45593999997E+02  0.45594000000E+02  0.51100000000E-03 0. -1.
    9900012    2    1    2    0    0 -0.18576250420E+01 -0.36735243233E+02  0.23036825017E+02  0.47787260685E+02  0.19999952769E+02 0.  0.
         12    1    1    2    0    0  0.18576250420E+01  0.36735243233E+02 -0.23036825017E+02  0.43400739315E+02  0.00000000000E+00 0. -1.
         11    1    3    3    0    0 -0.14475018516E+01  0.31400835339E+00 -0.23759778196E+01  0.27998453022E+01  0.51100000000E-03 0. -1.
        -11    1    3    3    0    0 -0.11379985440E+01 -0.15637581330E+02  0.11455910073E+02  0.19418209660E+02  0.51100000000E-03 0.  1.
         12    1    3    3    0    0  0.72787535356E+00 -0.21411670256E+02  0.13956892763E+02  0.25569205723E+02  0.00000000000E+00 0. -1.
</event>
<event>
 7    1  0.4586260E-009  0.4778732E+02  0.7816164E-02  0.1312668E+00
        -11   -1    0    0    0    0  0.00000000000E+00  0.00000000000E+00  0.45593999997E+02  0.45594000000E+02  0.51100000000E-03 0. -1.
         11   -1    0    0    0    0 -0.00000000000E+00 -0.00000000000E+00 -0.45593999997E+02  0.45594000000E+02  0.51100000000E-03 0.  1.
    9900012    2    1    2    0    0  0.19638607448E+01  0.31728273309E+02 -0.29547912309E+02  0.47787318001E+02  0.20000214091E+02 0.  0.
         12    1    1    2    0    0 -0.19638607448E+01 -0.31728273309E+02  0.29547912309E+02  0.43400681999E+02  0.00000000000E+00 0. -1.
         11    1    3    3    0    0 -0.37678565817E+01 -0.11588371574E+01 -0.32178134092E+01  0.50886118122E+01  0.51100000000E-03 0. -1.
        -11    1    3    3    0    0  0.25678342802E+01  0.21397970006E+02 -0.18824814952E+02  0.28615390116E+02  0.51100000000E-03 0.  1.
         12    1    3    3    0    0  0.31638830463E+01  0.11489140461E+02 -0.75052839476E+01  0.14083316072E+02  0.00000000000E+00 0. -1.
</event>
<event>
 7    1  0.4477737E-009  0.4778728E+02  0.7816164E-02  0.1312668E+00
        -11   -1    0    0    0    0  0.00000000000E+00  0.00000000000E+00  0.45593999997E+02  0.45594000000E+02  0.51100000000E-03 0.  1.
         11   -1    0    0    0    0 -0.00000000000E+00 -0.00000000000E+00 -0.45593999997E+02  0.45594000000E+02  0.51100000000E-03 0. -1.
    9900012    2    1    2    0    0  0.56236586345E+01 -0.42735526272E+02  0.50667710013E+01  0.47787275230E+02  0.20000019084E+02 0.  0.
         12    1    1    2    0    0 -0.56236586345E+01  0.42735526272E+02 -0.50667710013E+01  0.43400724770E+02  0.00000000000E+00 0. -1.
         11    1    3    3    0    0  0.19500710718E+00 -0.22783099211E+02 -0.52390005742E+01  0.23378510746E+02  0.51100000000E-03 0. -1.
        -11    1    3    3    0    0  0.65498559948E+01 -0.90983438161E+01  0.49945475039E+01  0.12272977584E+02  0.51100000000E-03 0.  1.
        -12    1    3    3    0    0 -0.11212044675E+01 -0.10854083245E+02  0.53112240716E+01  0.12135786900E+02  0.00000000000E+00 0.  1.
</event>
<event>
 7    1  0.4477737E-009  0.4778727E+02  0.7816164E-02  0.1312668E+00
        -11   -1    0    0    0    0  0.00000000000E+00  0.00000000000E+00  0.45593999997E+02  0.45594000000E+02  0.51100000000E-03 0.  1.
         11   -1    0    0    0    0 -0.00000000000E+00 -0.00000000000E+00 -0.45593999997E+02  0.45594000000E+02  0.51100000000E-03 0. -1.
    9900012    2    1    2    0    0  0.36058389686E+02 -0.19585858069E+02 -0.14135423105E+02  0.47787268561E+02  0.19999988678E+02 0.  0.
         12    1    1    2    0    0 -0.36058389686E+02  0.19585858069E+02  0.14135423105E+02  0.43400731439E+02  0.00000000000E+00 0. -1.
         11    1    3    3    0    0 -0.71892224919E+00  0.83916970501E+00  0.11151204230E+01  0.15698881531E+01  0.51100000000E-03 0. -1.
        -11    1    3    3    0    0  0.31419769087E+02 -0.21617168466E+02 -0.13485546437E+02  0.40451994079E+02  0.51100000000E-03 0.  1.
        -12    1    3    3    0    0  0.53575428477E+01  0.11921406914E+01 -0.17649970911E+01  0.57653863292E+01  0.00000000000E+00 0.  1.
</event>
<event>
 7    1  0.4477737E-009  0.4778726E+02  0.7816164E-02  0.1312668E+00
        -11   -1    0    0    0    0  0.00000000000E+00  0.00000000000E+00  0.45593999997E+02  0.45594000000E+02  0.51100000000E-03 0.  1.
         11   -1    0    0    0    0 -0.00000000000E+00 -0.00000000000E+00 -0.45593999997E+02  0.45594000000E+02  0.51100000000E-03 0. -1.
    9900012    2    1    2    0    0  0.21520172048E+02  0.37667275545E+02  0.12972682890E+01  0.47787258567E+02  0.19999943110E+02 0.  0.
         12    1    1    2    0    0 -0.21520172048E+02 -0.37667275545E+02 -0.12972682890E+01  0.43400741433E+02  0.00000000000E+00 0. -1.
         11    1    3    3    0    0  0.20373688942E+01 -0.20137927324E+01  0.15987966719E+01  0.32806072973E+01  0.51100000000E-03 0. -1.
        -11    1    3    3    0    0  0.10908589460E+02  0.21710836800E+02  0.23902331080E+01  0.24414564774E+02  0.51100000000E-03 0.  1.
         12    1    3    3    0    0  0.85742136936E+01  0.17970231477E+02 -0.26917614908E+01  0.20092086495E+02  0.00000000000E+00 0. -1.
</event>
<event>
 7    1  0.4477737E-009  0.4778727E+02  0.7816164E-02  0.1312668E+00
        -11   -1    0    0    0    0  0.00000000000E+00  0.00000000000E+00  0.45593999997E+02  0.45594000000E+02  0.51100000000E-03 0.  1.
         11   -1    0    0    0    0 -0.00000000000E+00 -0.00000000000E+00 -0.45593999997E+02  0.45594000000E+02  0.51100000000E-03 0. -1.
    9900012    2    1    2    0    0 -0.10612063228E+02 -0.32042170151E+02  0.27281990519E+02  0.47787267741E+02  0.19999984938E+02 0.  0.
         12    1    1    2    0    0  0.10612063228E+02  0.32042170151E+02 -0.27281990519E+02  0.43400732259E+02  0.00000000000E+00 0. -1.
         11    1    3    3    0    0  0.27043736476E+01  0.68443203504E+00  0.61658999742E+00  0.28569682397E+01  0.51100000000E-03 0. -1.
        -11    1    3    3    0    0 -0.10809450210E+02 -0.28232854801E+02  0.19028156013E+02  0.35721268532E+02  0.51100000000E-03 0.  1.
         12    1    3    3    0    0 -0.25069866662E+01 -0.44937473856E+01  0.76372445086E+01  0.92090309693E+01  0.00000000000E+00 0. -1.
</event>
<event>
 7    1  0.4477737E-009  0.4778727E+02  0.7816164E-02  0.1312668E+00
        -11   -1    0    0    0    0  0.00000000000E+00  0.00000000000E+00  0.45593999997E+02  0.45594000000E+02  0.51100000000E-03 0. -1.
         11   -1    0    0    0    0 -0.00000000000E+00 -0.00000000000E+00 -0.45593999997E+02  0.45594000000E+02  0.51100000000E-03 0.  1.
    9900012    2    1    2    0    0 -0.40833022753E+02 -0.39351388686E+01  0.14170471601E+02  0.47787270392E+02  0.19999997027E+02 0.  0.
         12    1    1    2    0    0  0.40833022753E+02  0.39351388686E+01 -0.14170471601E+02  0.43400729608E+02  0.00000000000E+00 0. -1.
         11    1    3    3    0    0 -0.12635534904E+02 -0.55084660427E+01 -0.32993663082E+01  0.14173417328E+02  0.51100000000E-03 0. -1.
        -11    1    3    3    0    0 -0.16523795995E+02  0.33323209453E+01  0.11297231839E+02  0.20292058655E+02  0.51100000000E-03 0.  1.
         12    1    3    3    0    0 -0.11673691854E+02 -0.17589937712E+01  0.61726060706E+01  0.13321794410E+02  0.00000000000E+00 0. -1.
</event>
<event>
 7    1  0.4477737E-009  0.4778725E+02  0.7816164E-02  0.1312668E+00
        -11   -1    0    0    0    0  0.00000000000E+00  0.00000000000E+00  0.45593999997E+02  0.45594000000E+02  0.51100000000E-03 0.  1.
         11   -1    0    0    0    0 -0.00000000000E+00 -0.00000000000E+00 -0.45593999997E+02  0.45594000000E+02  0.51100000000E-03 0. -1.
    9900012    2    1    2    0    0  0.14404607491E+01 -0.33791486726E+02  0.27197163074E+02  0.47787249066E+02  0.19999899793E+02 0.  0.
         12    1    1    2    0    0 -0.14404607491E+01  0.33791486726E+02 -0.27197163074E+02  0.43400750934E+02  0.00000000000E+00 0. -1.
         11    1    3    3    0    0  0.92779352922E+00 -0.31281453056E+01 -0.18708762583E+00  0.32681945974E+01  0.51100000000E-03 0. -1.
        -11    1    3    3    0    0 -0.68514590386E+01 -0.18021133078E+02  0.97471423184E+01  0.21603483793E+02  0.51100000000E-03 0.  1.
        -12    1    3    3    0    0  0.73641262585E+01 -0.12642208342E+02  0.17637108382E+02  0.22915570676E+02  0.00000000000E+00 0.  1.
</event>
<event>
 7    1  0.4477737E-009  0.4778727E+02  0.7816164E-02  0.1312668E+00
        -11   -1    0    0    0    0  0.00000000000E+00  0.00000000000E+00  0.45593999997E+02  0.45594000000E+02  0.51100000000E-03 0. -1.
         11   -1    0    0    0    0 -0.00000000000E+00 -0.00000000000E+00 -0.45593999997E+02  0.45594000000E+02  0.51100000000E-03 0.  1.
    9900012    2    1    2    0    0 -0.20280024336E+02 -0.29646645642E+02 -0.24360224879E+02  0.47787267967E+02  0.19999985968E+02 0.  0.
         12    1    1    2    0    0  0.20280024336E+02  0.29646645642E+02  0.24360224879E+02  0.43400732033E+02  0.00000000000E+00 0. -1.
         11    1    3    3    0    0 -0.44986830293E+01 -0.19325355571E+02 -0.72844505391E+01  0.21136951929E+02  0.51100000000E-03 0. -1.
        -11    1    3    3    0    0 -0.81113457410E+01 -0.90633350757E+01 -0.13254002672E+02  0.17989067778E+02  0.51100000000E-03 0.  1.
         12    1    3    3    0    0 -0.76699955653E+01 -0.12579549953E+01 -0.38217716682E+01  0.86612482603E+01  0.00000000000E+00 0. -1.
</event>
<event>
 7    1  0.4477737E-009  0.4778727E+02  0.7816164E-02  0.1312668E+00
        -11   -1    0    0    0    0  0.00000000000E+00  0.00000000000E+00  0.45593999997E+02  0.45594000000E+02  0.51100000000E-03 0.  1.
         11   -1    0    0    0    0 -0.00000000000E+00 -0.00000000000E+00 -0.45593999997E+02  0.45594000000E+02  0.51100000000E-03 0. -1.
    9900012    2    1    2    0    0  0.11324343189E+02  0.61824270323E+01  0.41438630197E+02  0.47787271605E+02  0.20000002554E+02 0.  0.
         12    1    1    2    0    0 -0.11324343189E+02 -0.61824270323E+01 -0.41438630197E+02  0.43400728395E+02  0.00000000000E+00 0. -1.
         11    1    3    3    0    0  0.12225778612E+02  0.10173349761E+01  0.31021335095E+02  0.33359074694E+02  0.51100000000E-03 0. -1.
        -11    1    3    3    0    0  0.37277257429E+00  0.24952161531E+01 -0.93969195021E+00  0.26922266371E+01  0.51100000000E-03 0.  1.
         12    1    3    3    0    0 -0.12742079970E+01  0.26698759030E+01  0.11356987052E+02  0.11735970274E+02  0.00000000000E+00 0. -1.
</event>
<event>
 7    1  0.4477737E-009  0.4778727E+02  0.7816164E-02  0.1312668E+00
        -11   -1    0    0    0    0  0.00000000000E+00  0.00000000000E+00  0.45593999997E+02  0.45594000000E+02  0.51100000000E-03 0.  1.
         11   -1    0    0    0    0 -0.00000000000E+00 -0.00000000000E+00 -0.45593999997E+02  0.45594000000E+02  0.51100000000E-03 0. -1.
    9900012    2    1    2    0    0 -0.15062884839E+02  0.39859952280E+02  0.82411741319E+01  0.47787271360E+02  0.20000001437E+02 0.  0.
         12    1    1    2    0    0  0.15062884839E+02 -0.39859952280E+02 -0.82411741319E+01  0.43400728640E+02  0.00000000000E+00 0. -1.
         11    1    3    3    0    0 -0.82286333621E+00  0.26074822007E+02  0.70243117782E+01  0.27016928082E+02  0.51100000000E-03 0.  1.
        -11    1    3    3    0    0 -0.27317017122E+01  0.31008810994E+01  0.27934188466E+01  0.49880704637E+01  0.51100000000E-03 0. -1.
         12    1    3    3    0    0 -0.11508319790E+02  0.10684249174E+02 -0.15765564930E+01  0.15782272814E+02  0.00000000000E+00 0. -1.
</event>
<event>
 7    1  0.4477737E-009  0.4778727E+02  0.7816164E-02  0.1312668E+00
        -11   -1    0    0    0    0  0.00000000000E+00  0.00000000000E+00  0.45593999997E+02  0.45594000000E+02  0.51100000000E-03 0. -1.
         11   -1    0    0    0    0 -0.00000000000E+00 -0.00000000000E+00 -0.45593999997E+02  0.45594000000E+02  0.51100000000E-03 0.  1.
    9900012    2    1    2    0    0  0.14845385829E+02 -0.17486749784E+02 -0.36843608817E+02  0.47787269487E+02  0.19999992899E+02 0.  0.
         12    1    1    2    0    0 -0.14845385829E+02  0.17486749784E+02  0.36843608817E+02  0.43400730513E+02  0.00000000000E+00 0. -1.
         11    1    3    3    0    0  0.10333559582E+02 -0.14836900761E+02 -0.31601659466E+02  0.36408528659E+02  0.51100000000E-03 0. -1.
        -11    1    3    3    0    0  0.66203147021E+01 -0.38315852560E+01 -0.43683890134E+01  0.88086568308E+01  0.51100000000E-03 0.  1.
         12    1    3    3    0    0 -0.21084884552E+01  0.11817362330E+01 -0.87356033725E+00  0.25700839972E+01  0.00000000000E+00 0. -1.
</event>
<event>
 7    1  0.4612472E-009  0.4778727E+02  0.7816164E-02  0.1312668E+00
        -11   -1    0    0    0    0  0.00000000000E+00  0.00000000000E+00  0.45593999997E+02  0.45594000000E+02  0.51100000000E-03 0. -1.
         11   -1    0    0    0    0 -0.00000000000E+00 -0.00000000000E+00 -0.45593999997E+02  0.45594000000E+02  0.51100000000E-03 0.  1.
    9900012    2    1    2    0    0 -0.37953690313E+02  0.14118216891E+02 -0.15614626965E+02  0.47787271529E+02  0.20000002210E+02 0.  0.
         12    1    1    2    0    0  0.37953690313E+02 -0.14118216891E+02  0.15614626965E+02  0.43400728471E+02  0.00000000000E+00 0. -1.
         11    1    3    3    0    0 -0.31644260921E+01 -0.61580294027E+00 -0.76618946739E+01  0.83124867524E+01  0.51100000000E-03 0. -1.
        -11    1    3    3    0    0 -0.27340362471E+02  0.11691664308E+02 -0.96295028027E+01  0.31255683624E+02  0.51100000000E-03 0.  1.
        -12    1    3    3    0    0 -0.74489017496E+01  0.30423555234E+01  0.16767705113E+01  0.82191011524E+01  0.00000000000E+00 0.  1.
</event>
<event>
 7    1  0.4477737E-009  0.4778726E+02  0.7816164E-02  0.1312668E+00
        -11   -1    0    0    0    0  0.00000000000E+00  0.00000000000E+00  0.45593999997E+02  0.45594000000E+02  0.51100000000E-03 0. -1.
         11   -1    0    0    0    0 -0.00000000000E+00 -0.00000000000E+00 -0.45593999997E+02  0.45594000000E+02  0.51100000000E-03 0.  1.
    9900012    2    1    2    0    0  0.34633007294E+02 -0.18712627820E+02 -0.18276114305E+02  0.47787262815E+02  0.19999962477E+02 0.  0.
         12    1    1    2    0    0 -0.34633007294E+02  0.18712627820E+02  0.18276114305E+02  0.43400737185E+02  0.00000000000E+00 0. -1.
         11    1    3    3    0    0  0.10789471026E+02 -0.46234835297E+01  0.20393751369E+01  0.11914207325E+02  0.51100000000E-03 0. -1.
        -11    1    3    3    0    0  0.88506948150E+01 -0.92852954024E+01 -0.13780642127E+02  0.18827044566E+02  0.51100000000E-03 0.  1.
         12    1    3    3    0    0  0.14992841453E+02 -0.48038488879E+01 -0.65348473153E+01  0.17046010923E+02  0.00000000000E+00 0. -1.
</event>
<event>
 7    1  0.4477737E-009  0.4778727E+02  0.7816164E-02  0.1312668E+00
        -11   -1    0    0    0    0  0.00000000000E+00  0.00000000000E+00  0.45593999997E+02  0.45594000000E+02  0.51100000000E-03 0.  1.
         11   -1    0    0    0    0 -0.00000000000E+00 -0.00000000000E+00 -0.45593999997E+02  0.45594000000E+02  0.51100000000E-03 0. -1.
    9900012    2    1    2    0    0  0.33148038699E+02  0.27485434284E+02  0.54204891464E+01  0.47787271089E+02  0.20000000205E+02 0.  0.
         12    1    1    2    0    0 -0.33148038699E+02 -0.27485434284E+02 -0.54204891464E+01  0.43400728911E+02  0.00000000000E+00 0. -1.
         11    1    3    3    0    0  0.37029699534E+01 -0.26949673286E+01  0.30814806471E+01  0.55199962516E+01  0.51100000000E-03 0. -1.
        -11    1    3    3    0    0  0.11341409331E+02  0.11533097704E+02  0.31232471680E-01  0.16175317122E+02  0.51100000000E-03 0.  1.
         12    1    3    3    0    0  0.18103659415E+02  0.18647303908E+02  0.23077760277E+01  0.26091957716E+02  0.00000000000E+00 0. -1.
</event>
<event>
 7    1  0.4477737E-009  0.4778727E+02  0.7816164E-02  0.1312668E+00
        -11   -1    0    0    0    0  0.00000000000E+00  0.00000000000E+00  0.45593999997E+02  0.45594000000E+02  0.51100000000E-03 0.  1.
         11   -1    0    0    0    0 -0.00000000000E+00 -0.00000000000E+00 -0.45593999997E+02  0.45594000000E+02  0.51100000000E-03 0. -1.
    9900012    2    1    2    0    0 -0.13741391525E+02  0.30120846338E+02  0.28062998978E+02  0.47787272623E+02  0.20000007197E+02 0.  0.
         12    1    1    2    0    0  0.13741391525E+02 -0.30120846338E+02 -0.28062998978E+02  0.43400727377E+02  0.00000000000E+00 0. -1.
         11    1    3    3    0    0 -0.48455649119E+01  0.12243014242E+02  0.90165968002E+00  0.13197874355E+02  0.51100000000E-03 0. -1.
        -11    1    3    3    0    0 -0.84705192341E+01  0.18133522884E+02  0.27482735045E+02  0.33998162805E+02  0.51100000000E-03 0.  1.
        -12    1    3    3    0    0 -0.42530737929E+00 -0.25569078817E+00 -0.32139574708E+00  0.59123546263E+00  0.00000000000E+00 0.  1.
</event>
<event>
 7    1  0.4477737E-009  0.4778726E+02  0.7816164E-02  0.1312668E+00
        -11   -1    0    0    0    0  0.00000000000E+00  0.00000000000E+00  0.45593999997E+02  0.45594000000E+02  0.51100000000E-03 0.  1.
         11   -1    0    0    0    0 -0.00000000000E+00 -0.00000000000E+00 -0.45593999997E+02  0.45594000000E+02  0.51100000000E-03 0. -1.
    9900012    2    1    2    0    0  0.39985512386E+02 -0.80196215479E+01  0.14848176743E+02  0.47787264025E+02  0.19999967998E+02 0.  0.
         12    1    1    2    0    0 -0.39985512386E+02  0.80196215479E+01 -0.14848176743E+02  0.43400735975E+02  0.00000000000E+00 0. -1.
         11    1    3    3    0    0  0.93809458391E+01  0.18252752755E+00  0.93508507065E+01  0.13246655062E+02  0.51100000000E-03 0. -1.
        -11    1    3    3    0    0  0.12377730017E+02 -0.25404400400E+01 -0.39577361140E+01  0.13241061565E+02  0.51100000000E-03 0.  1.
         12    1    3    3    0    0  0.18226836530E+02 -0.56617090355E+01  0.94550621508E+01  0.21299547398E+02  0.00000000000E+00 0. -1.
</event>
<event>
 7    1  0.4477737E-009  0.4778726E+02  0.7816164E-02  0.1312668E+00
        -11   -1    0    0    0    0  0.00000000000E+00  0.00000000000E+00  0.45593999997E+02  0.45594000000E+02  0.51100000000E-03 0. -1.
         11   -1    0    0    0    0 -0.00000000000E+00 -0.00000000000E+00 -0.45593999997E+02  0.45594000000E+02  0.51100000000E-03 0.  1.
    9900012    2    1    2    0    0 -0.24257575912E+02 -0.17165528344E+02 -0.31631293623E+02  0.47787261657E+02  0.19999957200E+02 0.  0.
         12    1    1    2    0    0  0.24257575912E+02  0.17165528344E+02  0.31631293623E+02  0.43400738343E+02  0.00000000000E+00 0. -1.
         11    1    3    3    0    0 -0.20834697714E+02 -0.10189454815E+02 -0.24926965956E+02  0.34047955156E+02  0.51100000000E-03 0.  1.
        -11    1    3    3    0    0 -0.20538711866E+01 -0.85892464782E+01 -0.73897334501E+01  0.11515281266E+02  0.51100000000E-03 0. -1.
         12    1    3    3    0    0 -0.13690070112E+01  0.16131729491E+01  0.68540578310E+00  0.22240252355E+01  0.00000000000E+00 0. -1.
</event>
<event>
 7    1  0.4477737E-009  0.4778728E+02  0.7816164E-02  0.1312668E+00
        -11   -1    0    0    0    0  0.00000000000E+00  0.00000000000E+00  0.45593999997E+02  0.45594000000E+02  0.51100000000E-03 0.  1.
         11   -1    0    0    0    0 -0.00000000000E+00 -0.00000000000E+00 -0.45593999997E+02  0.45594000000E+02  0.51100000000E-03 0. -1.
    9900012    2    1    2    0    0  0.39673841189E+02  0.16931853280E+02 -0.47876173242E+01  0.47787278694E+02  0.20000034879E+02 0.  0.
         12    1    1    2    0    0 -0.39673841189E+02 -0.16931853280E+02  0.47876173242E+01  0.43400721306E+02  0.00000000000E+00 0. -1.
         11    1    3    3    0    0  0.17325140455E+02 -0.45518121285E+00 -0.49116957052E+01  0.18013673604E+02  0.51100000000E-03 0. -1.
        -11    1    3    3    0    0  0.15083185254E+02  0.76408881812E+01  0.32595426787E+01  0.17219473521E+02  0.51100000000E-03 0.  1.
         12    1    3    3    0    0  0.72655154797E+01  0.97461463112E+01 -0.31354642977E+01  0.12554131570E+02  0.00000000000E+00 0. -1.
</event>
<event>
 7    1  0.4477737E-009  0.4778727E+02  0.7816164E-02  0.1312668E+00
        -11   -1    0    0    0    0  0.00000000000E+00  0.00000000000E+00  0.45593999997E+02  0.45594000000E+02  0.51100000000E-03 0.  1.
         11   -1    0    0    0    0 -0.00000000000E+00 -0.00000000000E+00 -0.45593999997E+02  0.45594000000E+02  0.51100000000E-03 0. -1.
    9900012    2    1    2    0    0  0.12108934395E+02 -0.28299342628E+02  0.30596475627E+02  0.47787269520E+02  0.19999993051E+02 0.  0.
         12    1    1    2    0    0 -0.12108934395E+02  0.28299342628E+02 -0.30596475627E+02  0.43400730480E+02  0.00000000000E+00 0. -1.
         11    1    3    3    0    0  0.28298544400E+01 -0.47539889616E+01  0.21398200308E+01  0.59318898526E+01  0.51100000000E-03 0. -1.
        -11    1    3    3    0    0  0.14287418468E+01 -0.66459709793E+01 -0.11287874804E+01  0.68908921744E+01  0.51100000000E-03 0.  1.
        -12    1    3    3    0    0  0.78503381079E+01 -0.16899382687E+02  0.29585443077E+02  0.34964487493E+02  0.00000000000E+00 0.  1.
</event>
<event>
 7    1  0.4477737E-009  0.4778727E+02  0.7816164E-02  0.1312668E+00
        -11   -1    0    0    0    0  0.00000000000E+00  0.00000000000E+00  0.45593999997E+02  0.45594000000E+02  0.51100000000E-03 0.  1.
         11   -1    0    0    0    0 -0.00000000000E+00 -0.00000000000E+00 -0.45593999997E+02  0.45594000000E+02  0.51100000000E-03 0. -1.
    9900012    2    1    2    0    0 -0.31857405339E+02  0.11633866530E+02  0.27081034044E+02  0.47787268091E+02  0.19999986532E+02 0.  0.
         12    1    1    2    0    0  0.31857405339E+02 -0.11633866530E+02 -0.27081034044E+02  0.43400731909E+02  0.00000000000E+00 0. -1.
         11    1    3    3    0    0 -0.38794892868E+01  0.35102734974E+01  0.29478709600E+01  0.60051977995E+01  0.51100000000E-03 0. -1.
        -11    1    3    3    0    0 -0.12571953865E+02  0.10757155609E+02  0.19301612962E+02  0.25422877177E+02  0.51100000000E-03 0.  1.
        -12    1    3    3    0    0 -0.15405962187E+02 -0.26335625759E+01  0.48315501221E+01  0.16359193114E+02  0.00000000000E+00 0.  1.
</event>
<event>
 7    1  0.4477737E-009  0.4778730E+02  0.7816164E-02  0.1312668E+00
        -11   -1    0    0    0    0  0.00000000000E+00  0.00000000000E+00  0.45593999997E+02  0.45594000000E+02  0.51100000000E-03 0. -1.
         11   -1    0    0    0    0 -0.00000000000E+00 -0.00000000000E+00 -0.45593999997E+02  0.45594000000E+02  0.51100000000E-03 0.  1.
    9900012    2    1    2    0    0  0.79930353668E-01 -0.43395503562E+02 -0.66673566636E+00  0.47787301219E+02  0.20000137578E+02 0.  0.
         12    1    1    2    0    0 -0.79930353668E-01  0.43395503562E+02  0.66673566636E+00  0.43400698781E+02  0.00000000000E+00 0. -1.
         11    1    3    3    0    0 -0.52736793406E+01 -0.11557110151E+02 -0.83863727430E+00  0.12731135125E+02  0.51100000000E-03 0. -1.
        -11    1    3    3    0    0  0.80359764929E+01 -0.28671648097E+02 -0.28643674172E+01  0.29913958677E+02  0.51100000000E-03 0.  1.
        -12    1    3    3    0    0 -0.26823667986E+01 -0.31667453136E+01  0.30362690251E+01  0.51422074168E+01  0.00000000000E+00 0.  1.
</event>
<event>
 7    1  0.4477737E-009  0.4778727E+02  0.7816164E-02  0.1312668E+00
        -11   -1    0    0    0    0  0.00000000000E+00  0.00000000000E+00  0.45593999997E+02  0.45594000000E+02  0.51100000000E-03 0.  1.
         11   -1    0    0    0    0 -0.00000000000E+00 -0.00000000000E+00 -0.45593999997E+02  0.45594000000E+02  0.51100000000E-03 0. -1.
    9900012    2    1    2    0    0  0.17166534308E+01  0.23385398438E+02  0.36521220251E+02  0.47787270884E+02  0.19999999270E+02 0.  0.
         12    1    1    2    0    0 -0.17166534308E+01 -0.23385398438E+02 -0.36521220251E+02  0.43400729116E+02  0.00000000000E+00 0. -1.
         11    1    3    3    0    0  0.23868100601E+01 -0.18272769807E+01  0.40075346297E+01  0.50096045250E+01  0.51100000000E-03 0. -1.
        -11    1    3    3    0    0 -0.38581411390E+01  0.13309774464E+02  0.99206897897E+01  0.17042753167E+02  0.51100000000E-03 0.  1.
        -12    1    3    3    0    0  0.31879845097E+01  0.11902900955E+02  0.22592995832E+02  0.25734913193E+02  0.00000000000E+00 0.  1.
</event>
<event>
 7    1  0.4477737E-009  0.4778727E+02  0.7816164E-02  0.1312668E+00
        -11   -1    0    0    0    0  0.00000000000E+00  0.00000000000E+00  0.45593999997E+02  0.45594000000E+02  0.51100000000E-03 0.  1.
         11   -1    0    0    0    0 -0.00000000000E+00 -0.00000000000E+00 -0.45593999997E+02  0.45594000000E+02  0.51100000000E-03 0. -1.
    9900012    2    1    2    0    0  0.22515878931E+02 -0.28904521970E+02  0.23263420665E+02  0.47787274944E+02  0.20000017779E+02 0.  0.
         12    1    1    2    0    0 -0.22515878931E+02  0.28904521970E+02 -0.23263420665E+02  0.43400725056E+02  0.00000000000E+00 0. -1.
         11    1    3    3    0    0  0.34667384428E+01 -0.11532966738E+02  0.12572522260E+02  0.17409650009E+02  0.51100000000E-03 0. -1.
        -11    1    3    3    0    0  0.37940051235E+01 -0.82296709687E+01  0.85600205750E+01  0.12465789652E+02  0.51100000000E-03 0.  1.
         12    1    3    3    0    0  0.15255135364E+02 -0.91418842634E+01  0.21308778303E+01  0.17911835283E+02  0.00000000000E+00 0. -1.
</event>
<event>
 7    1  0.4477737E-009  0.4778727E+02  0.7816164E-02  0.1312668E+00
        -11   -1    0    0    0    0  0.00000000000E+00  0.00000000000E+00  0.45593999997E+02  0.45594000000E+02  0.51100000000E-03 0.  1.
         11   -1    0    0    0    0 -0.00000000000E+00 -0.00000000000E+00 -0.45593999997E+02  0.45594000000E+02  0.51100000000E-03 0. -1.
    9900012    2    1    2    0    0  0.42051377586E+02  0.80320616528E+01 -0.71267637754E+01  0.47787272666E+02  0.20000007392E+02 0.  0.
         12    1    1    2    0    0 -0.42051377586E+02 -0.80320616528E+01  0.71267637754E+01  0.43400727334E+02  0.00000000000E+00 0. -1.
         11    1    3    3    0    0  0.41278362483E+00 -0.48592009777E+00  0.15725563982E+01  0.16968920263E+01  0.51100000000E-03 0. -1.
        -11    1    3    3    0    0  0.17656648757E+02  0.12600485226E+01  0.37767399966E+01  0.18099964996E+02  0.51100000000E-03 0.  1.
        -12    1    3    3    0    0  0.23981945204E+02  0.72579332280E+01 -0.12476060170E+02  0.27990415643E+02  0.00000000000E+00 0.  1.
</event>
<event>
 7    1  0.4477737E-009  0.4778727E+02  0.7816164E-02  0.1312668E+00
        -11   -1    0    0    0    0  0.00000000000E+00  0.00000000000E+00  0.45593999997E+02  0.45594000000E+02  0.51100000000E-03 0.  1.
         11   -1    0    0    0    0 -0.00000000000E+00 -0.00000000000E+00 -0.45593999997E+02  0.45594000000E+02  0.51100000000E-03 0. -1.
    9900012    2    1    2    0    0 -0.35031797287E+02  0.12790759734E+02  0.22198945210E+02  0.47787268161E+02  0.19999986851E+02 0.  0.
         12    1    1    2    0    0  0.35031797287E+02 -0.12790759734E+02 -0.22198945210E+02  0.43400731839E+02  0.00000000000E+00 0. -1.
         11    1    3    3    0    0 -0.27613385333E+02  0.58776650448E+01  0.11405800929E+02  0.30448945647E+02  0.51100000000E-03 0. -1.
        -11    1    3    3    0    0 -0.71721242587E+01  0.14424706742E+01  0.32208351368E+01  0.79933639519E+01  0.51100000000E-03 0.  1.
         12    1    3    3    0    0 -0.24628769599E+00  0.54706240152E+01  0.75723091444E+01  0.93449585619E+01  0.00000000000E+00 0. -1.
</event>
<event>
 7    1  0.4477737E-009  0.4778728E+02  0.7816164E-02  0.1312668E+00
        -11   -1    0    0    0    0  0.00000000000E+00  0.00000000000E+00  0.45593999997E+02  0.45594000000E+02  0.51100000000E-03 0.  1.
         11   -1    0    0    0    0 -0.00000000000E+00 -0.00000000000E+00 -0.45593999997E+02  0.45594000000E+02  0.51100000000E-03 0. -1.
    9900012    2    1    2    0    0  0.28947493126E+02 -0.27547034363E+02  0.16935951494E+02  0.47787275197E+02  0.20000018932E+02 0.  0.
         12    1    1    2    0    0 -0.28947493126E+02  0.27547034363E+02 -0.16935951494E+02  0.43400724803E+02  0.00000000000E+00 0. -1.
         11    1    3    3    0    0  0.12610049427E+02 -0.19432298481E+02  0.15934932455E+02  0.28116714663E+02  0.51100000000E-03 0.  1.
        -11    1    3    3    0    0  0.90660041500E+01 -0.46469759046E+00  0.11040640852E+00  0.90785772528E+01  0.51100000000E-03 0. -1.
        -12    1    3    3    0    0  0.72714395489E+01 -0.76500382916E+01  0.89061262987E+00  0.10591983281E+02  0.00000000000E+00 0.  1.
</event>
<event>
 7    1  0.4477737E-009  0.4778726E+02  0.7816164E-02  0.1312668E+00
        -11   -1    0    0    0    0  0.00000000000E+00  0.00000000000E+00  0.45593999997E+02  0.45594000000E+02  0.51100000000E-03 0. -1.
         11   -1    0    0    0    0 -0.00000000000E+00 -0.00000000000E+00 -0.45593999997E+02  0.45594000000E+02  0.51100000000E-03 0.  1.
    9900012    2    1    2    0    0  0.10161918682E+02  0.40175891105E+02  0.12894100879E+02  0.47787255135E+02  0.19999927463E+02 0.  0.
         12    1    1    2    0    0 -0.10161918682E+02 -0.40175891105E+02 -0.12894100879E+02  0.43400744865E+02  0.00000000000E+00 0. -1.
         11    1    3    3    0    0  0.95778843929E+01  0.13982035978E+02  0.90662902279E+01  0.19220583193E+02  0.51100000000E-03 0. -1.
        -11    1    3    3    0    0  0.33141383902E+01  0.14382368966E+02 -0.23748651539E+01  0.14949114860E+02  0.51100000000E-03 0.  1.
         12    1    3    3    0    0 -0.27301041012E+01  0.11811486161E+02  0.62026758054E+01  0.13617557082E+02  0.00000000000E+00 0. -1.
</event>
<event>
 7    1  0.4477737E-009  0.4778730E+02  0.7816164E-02  0.1312668E+00
        -11   -1    0    0    0    0  0.00000000000E+00  0.00000000000E+00  0.45593999997E+02  0.45594000000E+02  0.51100000000E-03 0.  1.
         11   -1    0    0    0    0 -0.00000000000E+00 -0.00000000000E+00 -0.45593999997E+02  0.45594000000E+02  0.51100000000E-03 0. -1.
    9900012    2    1    2    0    0  0.10983515860E+02  0.16703520895E+02  0.38522408203E+02  0.47787295343E+02  0.20000110789E+02 0.  0.
         12    1    1    2    0    0 -0.10983515860E+02 -0.16703520895E+02 -0.38522408203E+02  0.43400704657E+02  0.00000000000E+00 0. -1.
         11    1    3    3    0    0 -0.25334985797E+01 -0.23911282322E+00 -0.50106369421E+00  0.25936181450E+01  0.51100000000E-03 0. -1.
        -11    1    3    3    0    0  0.13062892727E+02  0.17562814322E+02  0.36542052310E+02  0.42595929390E+02  0.51100000000E-03 0.  1.
        -12    1    3    3    0    0  0.45412171216E+00 -0.62018060307E+00  0.24814195867E+01  0.25977478082E+01  0.00000000000E+00 0.  1.
</event>
<event>
 7    1  0.4477737E-009  0.4778727E+02  0.7816164E-02  0.1312668E+00
        -11   -1    0    0    0    0  0.00000000000E+00  0.00000000000E+00  0.45593999997E+02  0.45594000000E+02  0.51100000000E-03 0.  1.
         11   -1    0    0    0    0 -0.00000000000E+00 -0.00000000000E+00 -0.45593999997E+02  0.45594000000E+02  0.51100000000E-03 0. -1.
    9900012    2    1    2    0    0 -0.12098592487E+02  0.40914841805E+02  0.79512910351E+01  0.47787271329E+02  0.20000001295E+02 0.  0.
         12    1    1    2    0    0  0.12098592487E+02 -0.40914841805E+02 -0.79512910351E+01  0.43400728671E+02  0.00000000000E+00 0. -1.
         11    1    3    3    0    0 -0.84327208971E+01  0.14020260223E+02 -0.45864158445E+01  0.16991577002E+02  0.51100000000E-03 0. -1.
        -11    1    3    3    0    0 -0.52987337961E+01  0.16885045420E+02  0.10056603260E+02  0.20354768681E+02  0.51100000000E-03 0.  1.
        -12    1    3    3    0    0  0.16328622061E+01  0.10009536162E+02  0.24811036195E+01  0.10440925645E+02  0.00000000000E+00 0.  1.
</event>
<event>
 7    1  0.4477737E-009  0.4778727E+02  0.7816164E-02  0.1312668E+00
        -11   -1    0    0    0    0  0.00000000000E+00  0.00000000000E+00  0.45593999997E+02  0.45594000000E+02  0.51100000000E-03 0. -1.
         11   -1    0    0    0    0 -0.00000000000E+00 -0.00000000000E+00 -0.45593999997E+02  0.45594000000E+02  0.51100000000E-03 0.  1.
    9900012    2    1    2    0    0 -0.28887636193E+02  0.31212753373E+02 -0.86540166717E+01  0.47787268410E+02  0.19999987990E+02 0.  0.
         12    1    1    2    0    0  0.28887636193E+02 -0.31212753373E+02  0.86540166717E+01  0.43400731590E+02  0.00000000000E+00 0. -1.
         11    1    3    3    0    0  0.18161490840E+00  0.15993313235E+00 -0.39775896498E+01  0.39849444494E+01  0.51100000000E-03 0. -1.
        -11    1    3    3    0    0 -0.10802124123E+02  0.17770214237E+02 -0.41764002894E+01  0.21211051818E+02  0.51100000000E-03 0.  1.
         12    1    3    3    0    0 -0.18267126978E+02  0.13282606004E+02 -0.50002673256E+00  0.22591272143E+02  0.00000000000E+00 0. -1.
</event>
<event>
 7    1  0.4477737E-009  0.4778727E+02  0.7816164E-02  0.1312668E+00
        -11   -1    0    0    0    0  0.00000000000E+00  0.00000000000E+00  0.45593999997E+02  0.45594000000E+02  0.51100000000E-03 0.  1.
         11   -1    0    0    0    0 -0.00000000000E+00 -0.00000000000E+00 -0.45593999997E+02  0.45594000000E+02  0.51100000000E-03 0. -1.
    9900012    2    1    2    0    0 -0.14047430324E+02 -0.48197886479E+01  0.40780662658E+02  0.47787272954E+02  0.20000008707E+02 0.  0.
         12    1    1    2    0    0  0.14047430324E+02  0.48197886479E+01 -0.40780662658E+02  0.43400727046E+02  0.00000000000E+00 0. -1.
         11    1    3    3    0    0 -0.18256944146E+01  0.18799396753E+01  0.23706440059E+02  0.23850841365E+02  0.51100000000E-03 0. -1.
        -11    1    3    3    0    0 -0.11158584142E+02 -0.12685413337E+01  0.11840928473E+02  0.16319644130E+02  0.51100000000E-03 0.  1.
         12    1    3    3    0    0 -0.10631517676E+01 -0.54311869895E+01  0.52332941257E+01  0.76167874594E+01  0.00000000000E+00 0. -1.
</event>
<event>
 7    1  0.4477737E-009  0.4778727E+02  0.7816164E-02  0.1312668E+00
        -11   -1    0    0    0    0  0.00000000000E+00  0.00000000000E+00  0.45593999997E+02  0.45594000000E+02  0.51100000000E-03 0. -1.
         11   -1    0    0    0    0 -0.00000000000E+00 -0.00000000000E+00 -0.45593999997E+02  0.45594000000E+02  0.51100000000E-03 0.  1.
    9900012    2    1    2    0    0 -0.40883922263E+02  0.74765470964E+01  0.12499169291E+02  0.47787273173E+02  0.20000009707E+02 0.  0.
         12    1    1    2    0    0  0.40883922263E+02 -0.74765470964E+01 -0.12499169291E+02  0.43400726827E+02  0.00000000000E+00 0. -1.
         11    1    3    3    0    0 -0.15255090846E+02  0.66561877189E+01  0.66900053891E+01  0.17938194002E+02  0.51100000000E-03 0. -1.
        -11    1    3    3    0    0 -0.93886653817E+01 -0.24979695286E+01 -0.40914358786E+01  0.10541666719E+02  0.51100000000E-03 0.  1.
        -12    1    3    3    0    0 -0.16240166036E+02  0.33183289060E+01  0.99005997804E+01  0.19307412452E+02  0.00000000000E+00 0.  1.
</event>
<event>
 7    1  0.4477737E-009  0.4778727E+02  0.7816164E-02  0.1312668E+00
        -11   -1    0    0    0    0  0.00000000000E+00  0.00000000000E+00  0.45593999997E+02  0.45594000000E+02  0.51100000000E-03 0. -1.
         11   -1    0    0    0    0 -0.00000000000E+00 -0.00000000000E+00 -0.45593999997E+02  0.45594000000E+02  0.51100000000E-03 0.  1.
    9900012    2    1    2    0    0 -0.11600404743E+02 -0.29352625339E+02 -0.29790559138E+02  0.47787269381E+02  0.19999992415E+02 0.  0.
         12    1    1    2    0    0  0.11600404743E+02  0.29352625339E+02  0.29790559138E+02  0.43400730619E+02  0.00000000000E+00 0. -1.
         11    1    3    3    0    0 -0.19980364855E+01 -0.18562611518E+02 -0.26488016769E+02  0.32406445791E+02  0.51100000000E-03 0. -1.
        -11    1    3    3    0    0 -0.63025481841E+01 -0.53057132381E+01 -0.35608945802E+01  0.89751143196E+01  0.51100000000E-03 0.  1.
         12    1    3    3    0    0 -0.32998200734E+01 -0.54843005824E+01  0.25835221054E+00  0.64057092707E+01  0.00000000000E+00 0. -1.
</event>
<event>
 7    1  0.4477737E-009  0.4778725E+02  0.7816164E-02  0.1312668E+00
        -11   -1    0    0    0    0  0.00000000000E+00  0.00000000000E+00  0.45593999997E+02  0.45594000000E+02  0.51100000000E-03 0.  1.
         11   -1    0    0    0    0 -0.00000000000E+00 -0.00000000000E+00 -0.45593999997E+02  0.45594000000E+02  0.51100000000E-03 0. -1.
    9900012    2    1    2    0    0  0.15202052844E+02  0.39492209867E+02  0.96378526923E+01  0.47787248216E+02  0.19999895918E+02 0.  0.
         12    1    1    2    0    0 -0.15202052844E+02 -0.39492209867E+02 -0.96378526923E+01  0.43400751784E+02  0.00000000000E+00 0. -1.
         11    1    3    3    0    0 -0.15469574967E+01  0.27927932486E+00  0.35649942197E-01  0.15723694278E+01  0.51100000000E-03 0. -1.
        -11    1    3    3    0    0  0.83452555728E+01  0.45770277224E+01  0.11654040761E+01  0.95890896476E+01  0.51100000000E-03 0.  1.
        -12    1    3    3    0    0  0.84037547682E+01  0.34635902820E+02  0.84367986740E+01  0.36625789141E+02  0.00000000000E+00 0.  1.
</event>
<event>
 7    1  0.4477737E-009  0.4778727E+02  0.7816164E-02  0.1312668E+00
        -11   -1    0    0    0    0  0.00000000000E+00  0.00000000000E+00  0.45593999997E+02  0.45594000000E+02  0.51100000000E-03 0. -1.
         11   -1    0    0    0    0 -0.00000000000E+00 -0.00000000000E+00 -0.45593999997E+02  0.45594000000E+02  0.51100000000E-03 0.  1.
    9900012    2    1    2    0    0 -0.17070236141E+02  0.60310113966E+01 -0.39444354393E+02  0.47787272427E+02  0.20000006305E+02 0.  0.
         12    1    1    2    0    0  0.17070236141E+02 -0.60310113966E+01  0.39444354393E+02  0.43400727573E+02  0.00000000000E+00 0. -1.
         11    1    3    3    0    0 -0.44843119677E+01 -0.50300237218E+01 -0.61198507261E+01  0.91028987491E+01  0.51100000000E-03 0. -1.
        -11    1    3    3    0    0 -0.38551941669E+01  0.87566753906E+01 -0.23325893455E+02  0.25211885921E+02  0.51100000000E-03 0.  1.
        -12    1    3    3    0    0 -0.87307300062E+01  0.23043597278E+01 -0.99986102114E+01  0.13472487757E+02  0.00000000000E+00 0.  1.
</event>
<event>
 7    1  0.4477737E-009  0.4778727E+02  0.7816164E-02  0.1312668E+00
        -11   -1    0    0    0    0  0.00000000000E+00  0.00000000000E+00  0.45593999997E+02  0.45594000000E+02  0.51100000000E-03 0.  1.
         11   -1    0    0    0    0 -0.00000000000E+00 -0.00000000000E+00 -0.45593999997E+02  0.45594000000E+02  0.51100000000E-03 0. -1.
    9900012    2    1    2    0    0  0.27543040802E+02  0.25599200811E+02  0.21672220010E+02  0.47787270756E+02  0.19999998683E+02 0.  0.
         12    1    1    2    0    0 -0.27543040802E+02 -0.25599200811E+02 -0.21672220010E+02  0.43400729244E+02  0.00000000000E+00 0. -1.
         11    1    3    3    0    0  0.25661198308E+01 -0.24226150376E+01  0.14224385343E+01  0.38049134355E+01  0.51100000000E-03 0. -1.
        -11    1    3    3    0    0  0.20621507203E+02  0.26154314910E+02  0.20712052710E+02  0.39220962195E+02  0.51100000000E-03 0.  1.
        -12    1    3    3    0    0  0.43554137682E+01  0.18675009383E+01 -0.46227123410E+00  0.47613951255E+01  0.00000000000E+00 0.  1.
</event>
<event>
 7    1  0.4477737E-009  0.4778732E+02  0.7816164E-02  0.1312668E+00
        -11   -1    0    0    0    0  0.00000000000E+00  0.00000000000E+00  0.45593999997E+02  0.45594000000E+02  0.51100000000E-03 0.  1.
         11   -1    0    0    0    0 -0.00000000000E+00 -0.00000000000E+00 -0.45593999997E+02  0.45594000000E+02  0.51100000000E-03 0. -1.
    9900012    2    1    2    0    0 -0.73474614704E+01  0.38995863876E+01  0.42596092947E+02  0.47787319148E+02  0.20000219324E+02 0.  0.
         12    1    1    2    0    0  0.73474614704E+01 -0.38995863876E+01 -0.42596092947E+02  0.43400680852E+02  0.00000000000E+00 0. -1.
         11    1    3    3    0    0 -0.73755850834E+00 -0.55993547527E+01  0.28954656294E+02  0.29500320127E+02  0.51100000000E-03 0. -1.
        -11    1    3    3    0    0 -0.48103336714E+01  0.67020884510E+01  0.12041450364E+02  0.14596363477E+02  0.51100000000E-03 0.  1.
         12    1    3    3    0    0 -0.17995692906E+01  0.27968526893E+01  0.15999862886E+01  0.36906355444E+01  0.00000000000E+00 0. -1.
</event>
<event>
 7    1  0.4477737E-009  0.4778727E+02  0.7816164E-02  0.1312668E+00
        -11   -1    0    0    0    0  0.00000000000E+00  0.00000000000E+00  0.45593999997E+02  0.45594000000E+02  0.51100000000E-03 0.  1.
         11   -1    0    0    0    0 -0.00000000000E+00 -0.00000000000E+00 -0.45593999997E+02  0.45594000000E+02  0.51100000000E-03 0. -1.
    9900012    2    1    2    0    0  0.30637971445E+02  0.30130494840E+02 -0.60902654733E+01  0.47787270201E+02  0.19999996153E+02 0.  0.
         12    1    1    2    0    0 -0.30637971445E+02 -0.30130494840E+02  0.60902654733E+01  0.43400729799E+02  0.00000000000E+00 0. -1.
         11    1    3    3    0    0  0.13990401477E+02  0.12265670666E+02  0.32870317842E+01  0.18893982867E+02  0.51100000000E-03 0. -1.
        -11    1    3    3    0    0  0.13107928589E+02  0.17398040678E+02 -0.11608323015E+02  0.24683248870E+02  0.51100000000E-03 0.  1.
         12    1    3    3    0    0  0.35396413795E+01  0.46678349559E+00  0.22310257575E+01  0.42100384628E+01  0.00000000000E+00 0. -1.
</event>
