<event>
 7    1  0.5479172E-013  0.5052886E+02  0.7816164E-02  0.1300439E+00
        -11   -1    0    0    0    0  0.00000000000E+00  0.00000000000E+00  0.45593999997E+02  0.45594000000E+02  0.51100000000E-03 0. -1.
         11   -1    0    0    0    0 -0.00000000000E+00 -0.00000000000E+00 -0.45593999997E+02  0.45594000000E+02  0.51100000000E-03 0.  1.
    9900012    2    1    2    0    0 -0.18252454035E+02  0.53358126297E+01 -0.35938038603E+02  0.50528860888E+02  0.30000003155E+02 0.  0.
         12    1    1    2    0    0  0.18252454035E+02 -0.53358126297E+01  0.35938038603E+02  0.40659139112E+02  0.00000000000E+00 0. -1.
         11    1    3    3    0    0 -0.68181343769E+01 -0.17846428923E+01  0.33302646907E+01  0.77950349458E+01  0.51100000000E-03 0. -1.
        -11    1    3    3    0    0 -0.17189846468E+01 -0.22558709867E+01 -0.35183803908E+01  0.45191661797E+01  0.51100000000E-03 0.  1.
        -12    1    3    3    0    0 -0.97153350111E+01  0.93763265087E+01 -0.35749922903E+02  0.38214659762E+02  0.00000000000E+00 0.  1.
</event>
<event>
 7    1  0.5479172E-013  0.5052889E+02  0.7816164E-02  0.1300439E+00
        -11   -1    0    0    0    0  0.00000000000E+00  0.00000000000E+00  0.45593999997E+02  0.45594000000E+02  0.51100000000E-03 0.  1.
         11   -1    0    0    0    0 -0.00000000000E+00 -0.00000000000E+00 -0.45593999997E+02  0.45594000000E+02  0.51100000000E-03 0. -1.
    9900012    2    1    2    0    0  0.14145271604E+02  0.58769786899E+01  0.37663454520E+02  0.50528887938E+02  0.30000085375E+02 0.  0.
         12    1    1    2    0    0 -0.14145271604E+02 -0.58769786899E+01 -0.37663454520E+02  0.40659112062E+02  0.00000000000E+00 0. -1.
         11    1    3    3    0    0  0.30287065128E+01 -0.21748597801E+01  0.14412886427E+02  0.14887389752E+02  0.51100000000E-03 0.  1.
        -11    1    3    3    0    0 -0.19597062935E+01 -0.39003687826E+01  0.15853707418E+02  0.16443642071E+02  0.51100000000E-03 0. -1.
         12    1    3    3    0    0  0.13076271385E+02  0.11952207253E+02  0.73968606746E+01  0.19197856114E+02  0.00000000000E+00 0. -1.
</event>
<event>
 7    1  0.5479172E-013  0.5052886E+02  0.7816164E-02  0.1300439E+00
        -11   -1    0    0    0    0  0.00000000000E+00  0.00000000000E+00  0.45593999997E+02  0.45594000000E+02  0.51100000000E-03 0.  1.
         11   -1    0    0    0    0 -0.00000000000E+00 -0.00000000000E+00 -0.45593999997E+02  0.45594000000E+02  0.51100000000E-03 0. -1.
    9900012    2    1    2    0    0 -0.33484504168E+02 -0.16617275916E+02  0.15994359104E+02  0.50528863248E+02  0.30000010330E+02 0.  0.
         12    1    1    2    0    0  0.33484504168E+02  0.16617275916E+02 -0.15994359104E+02  0.40659136752E+02  0.00000000000E+00 0. -1.
         11    1    3    3    0    0 -0.68804829414E+01  0.74370422039E+00  0.21183097469E+01  0.72374980427E+01  0.51100000000E-03 0. -1.
        -11    1    3    3    0    0 -0.98150141073E+01  0.22050233024E+01 -0.51004180561E+01  0.11278780710E+02  0.51100000000E-03 0.  1.
         12    1    3    3    0    0 -0.16789007119E+02 -0.19566003439E+02  0.18976467413E+02  0.32012584496E+02  0.00000000000E+00 0. -1.
</event>
<event>
 7    1  0.5479172E-013  0.5052886E+02  0.7816164E-02  0.1300439E+00
        -11   -1    0    0    0    0  0.00000000000E+00  0.00000000000E+00  0.45593999997E+02  0.45594000000E+02  0.51100000000E-03 0. -1.
         11   -1    0    0    0    0 -0.00000000000E+00 -0.00000000000E+00 -0.45593999997E+02  0.45594000000E+02  0.51100000000E-03 0.  1.
    9900012    2    1    2    0    0  0.25357782789E+02 -0.48403905999E+01 -0.31412087984E+02  0.50528858338E+02  0.29999995406E+02 0.  0.
         12    1    1    2    0    0 -0.25357782789E+02  0.48403905999E+01  0.31412087984E+02  0.40659141662E+02  0.00000000000E+00 0. -1.
         11    1    3    3    0    0  0.97613838820E+01 -0.16169436185E+01 -0.94387106386E+01  0.13674369482E+02  0.51100000000E-03 0. -1.
        -11    1    3    3    0    0  0.18190119596E+02  0.40051262248E+01 -0.67636878704E+01  0.19815876485E+02  0.51100000000E-03 0.  1.
         12    1    3    3    0    0 -0.25937206893E+01 -0.72285732061E+01 -0.15209689475E+02  0.17038612372E+02  0.00000000000E+00 0. -1.
</event>
<event>
 7    1  0.5479172E-013  0.5052885E+02  0.7816164E-02  0.1300439E+00
        -11   -1    0    0    0    0  0.00000000000E+00  0.00000000000E+00  0.45593999997E+02  0.45594000000E+02  0.51100000000E-03 0.  1.
         11   -1    0    0    0    0 -0.00000000000E+00 -0.00000000000E+00 -0.45593999997E+02  0.45594000000E+02  0.51100000000E-03 0. -1.
    9900012    2    1    2    0    0  0.29370832886E+02  0.69111468555E+01  0.27253561340E+02  0.50528851202E+02  0.29999973714E+02 0.  0.
         12    1    1    2    0    0 -0.29370832886E+02 -0.69111468555E+01 -0.27253561340E+02  0.40659148798E+02  0.00000000000E+00 0. -1.
         11    1    3    3    0    0  0.91887027936E+01  0.55910489688E+01  0.11695849091E+02  0.15889775764E+02  0.51100000000E-03 0. -1.
        -11    1    3    3    0    0  0.24975521791E+02  0.41316955274E+01  0.13670094311E+02  0.28770107323E+02  0.51100000000E-03 0.  1.
         12    1    3    3    0    0 -0.47933916982E+01 -0.28115976407E+01  0.18876179377E+01  0.58689681157E+01  0.00000000000E+00 0. -1.
</event>
<event>
 7    1  0.5479172E-013  0.5052886E+02  0.7816164E-02  0.1300439E+00
        -11   -1    0    0    0    0  0.00000000000E+00  0.00000000000E+00  0.45593999997E+02  0.45594000000E+02  0.51100000000E-03 0. -1.
         11   -1    0    0    0    0 -0.00000000000E+00 -0.00000000000E+00 -0.45593999997E+02  0.45594000000E+02  0.51100000000E-03 0.  1.
    9900012    2    1    2    0    0 -0.35139785792E+02  0.10954452640E+02 -0.17273131061E+02  0.50528860378E+02  0.30000001604E+02 0.  0.
         12    1    1    2    0    0  0.35139785792E+02 -0.10954452640E+02  0.17273131061E+02  0.40659139622E+02  0.00000000000E+00 0. -1.
         11    1    3    3    0    0  0.13262463211E+01  0.14770291318E+01 -0.19141323604E+01  0.27576162377E+01  0.51100000000E-03 0. -1.
        -11    1    3    3    0    0 -0.90628240994E+01  0.14707058968E+02 -0.46642614381E+01  0.17893789402E+02  0.51100000000E-03 0.  1.
        -12    1    3    3    0    0 -0.27403208014E+02 -0.52296354596E+01 -0.10694737262E+02  0.29877454738E+02  0.00000000000E+00 0.  1.
</event>
<event>
 7    1  0.5479172E-013  0.5052885E+02  0.7816164E-02  0.1300439E+00
        -11   -1    0    0    0    0  0.00000000000E+00  0.00000000000E+00  0.45593999997E+02  0.45594000000E+02  0.51100000000E-03 0.  1.
         11   -1    0    0    0    0 -0.00000000000E+00 -0.00000000000E+00 -0.45593999997E+02  0.45594000000E+02  0.51100000000E-03 0. -1.
    9900012    2    1    2    0    0  0.11583934174E+02  0.26046832161E+02  0.28992093092E+02  0.50528850250E+02  0.29999970819E+02 0.  0.
         12    1    1    2    0    0 -0.11583934174E+02 -0.26046832161E+02 -0.28992093092E+02  0.40659149750E+02  0.00000000000E+00 0. -1.
         11    1    3    3    0    0  0.72320550602E+01  0.14460969405E+02 -0.19469950843E+01  0.16285362957E+02  0.51100000000E-03 0. -1.
        -11    1    3    3    0    0 -0.18887877442E+01  0.40132398566E+01  0.13785594091E+02  0.14481582027E+02  0.51100000000E-03 0.  1.
        -12    1    3    3    0    0  0.62406668579E+01  0.75726228993E+01  0.17153494085E+02  0.19761905266E+02  0.00000000000E+00 0.  1.
</event>
<event>
 7    1  0.5479172E-013  0.5052886E+02  0.7816164E-02  0.1300439E+00
        -11   -1    0    0    0    0  0.00000000000E+00  0.00000000000E+00  0.45593999997E+02  0.45594000000E+02  0.51100000000E-03 0.  1.
         11   -1    0    0    0    0 -0.00000000000E+00 -0.00000000000E+00 -0.45593999997E+02  0.45594000000E+02  0.51100000000E-03 0. -1.
    9900012    2    1    2    0    0  0.88988592854E+01  0.15706785911E+02  0.36431758145E+02  0.50528858079E+02  0.29999994617E+02 0.  0.
         12    1    1    2    0    0 -0.88988592854E+01 -0.15706785911E+02 -0.36431758145E+02  0.40659141921E+02  0.00000000000E+00 0. -1.
         11    1    3    3    0    0  0.65224108403E+01  0.42270497285E+01 -0.36682890993E+00  0.77810254007E+01  0.51100000000E-03 0. -1.
        -11    1    3    3    0    0 -0.34664943597E+01  0.80421223033E+01  0.46955493041E+01  0.99368253389E+01  0.51100000000E-03 0.  1.
        -12    1    3    3    0    0  0.58429428048E+01  0.34376138797E+01  0.32103037751E+02  0.32811007339E+02  0.00000000000E+00 0.  1.
</event>
<event>
 7    1  0.7235362E-013  0.5052886E+02  0.7816164E-02  0.1300439E+00
        -11   -1    0    0    0    0  0.00000000000E+00  0.00000000000E+00  0.45593999997E+02  0.45594000000E+02  0.51100000000E-03 0.  1.
         11   -1    0    0    0    0 -0.00000000000E+00 -0.00000000000E+00 -0.45593999997E+02  0.45594000000E+02  0.51100000000E-03 0. -1.
    9900012    2    1    2    0    0  0.28740391278E+02  0.19131401084E+02  0.21474293327E+02  0.50528857459E+02  0.29999992732E+02 0.  0.
         12    1    1    2    0    0 -0.28740391278E+02 -0.19131401084E+02 -0.21474293327E+02  0.40659142541E+02  0.00000000000E+00 0. -1.
         11    1    3    3    0    0  0.20480584483E+01 -0.50663378839E+00 -0.44658058262E+01  0.49390933522E+01  0.51100000000E-03 0. -1.
        -11    1    3    3    0    0  0.11452421032E+01  0.90704082923E+01  0.10505635314E+02  0.13926674394E+02  0.51100000000E-03 0.  1.
        -12    1    3    3    0    0  0.25547090727E+02  0.10567626580E+02  0.15434463839E+02  0.31663089713E+02  0.00000000000E+00 0.  1.
</event>
<event>
 7    1  0.5479172E-013  0.5052885E+02  0.7816164E-02  0.1300439E+00
        -11   -1    0    0    0    0  0.00000000000E+00  0.00000000000E+00  0.45593999997E+02  0.45594000000E+02  0.51100000000E-03 0. -1.
         11   -1    0    0    0    0 -0.00000000000E+00 -0.00000000000E+00 -0.45593999997E+02  0.45594000000E+02  0.51100000000E-03 0.  1.
    9900012    2    1    2    0    0  0.17454758214E+02  0.23633383020E+02 -0.28106241968E+02  0.50528853245E+02  0.29999979924E+02 0.  0.
         12    1    1    2    0    0 -0.17454758214E+02 -0.23633383020E+02  0.28106241968E+02  0.40659146755E+02  0.00000000000E+00 0. -1.
         11    1    3    3    0    0  0.12596583074E+02  0.22527060652E+01 -0.37926137402E+01  0.13346629125E+02  0.51100000000E-03 0. -1.
        -11    1    3    3    0    0  0.26200994976E+00 -0.17031632152E+01  0.14744079070E+01  0.22678829531E+01  0.51100000000E-03 0.  1.
        -12    1    3    3    0    0  0.45961651902E+01  0.23083840170E+02 -0.25788036135E+02  0.34914341167E+02  0.00000000000E+00 0.  1.
</event>
<event>
 7    1  0.5479172E-013  0.5052885E+02  0.7816164E-02  0.1300439E+00
        -11   -1    0    0    0    0  0.00000000000E+00  0.00000000000E+00  0.45593999997E+02  0.45594000000E+02  0.51100000000E-03 0. -1.
         11   -1    0    0    0    0 -0.00000000000E+00 -0.00000000000E+00 -0.45593999997E+02  0.45594000000E+02  0.51100000000E-03 0.  1.
    9900012    2    1    2    0    0  0.39525798305E+02 -0.26874502605E+01  0.91463310549E+01  0.50528849833E+02  0.29999969553E+02 0.  0.
         12    1    1    2    0    0 -0.39525798305E+02  0.26874502605E+01 -0.91463310549E+01  0.40659150167E+02  0.00000000000E+00 0. -1.
         11    1    3    3    0    0  0.42275750864E+01  0.48585755883E+01  0.52478466908E+01  0.83077098534E+01  0.51100000000E-03 0. -1.
        -11    1    3    3    0    0  0.10514273245E+02 -0.46909364387E+01  0.11367252745E+02  0.16179284958E+02  0.51100000000E-03 0.  1.
        -12    1    3    3    0    0  0.24783949973E+02 -0.28550894101E+01 -0.74687683807E+01  0.26041855021E+02  0.00000000000E+00 0.  1.
</event>
<event>
 7    1  0.5479172E-013  0.5052886E+02  0.7816164E-02  0.1300439E+00
        -11   -1    0    0    0    0  0.00000000000E+00  0.00000000000E+00  0.45593999997E+02  0.45594000000E+02  0.51100000000E-03 0.  1.
         11   -1    0    0    0    0 -0.00000000000E+00 -0.00000000000E+00 -0.45593999997E+02  0.45594000000E+02  0.51100000000E-03 0. -1.
    9900012    2    1    2    0    0 -0.23789115122E+01 -0.20199317222E+02  0.35206450325E+02  0.50528858583E+02  0.29999996150E+02 0.  0.
         12    1    1    2    0    0  0.23789115122E+01  0.20199317222E+02 -0.35206450325E+02  0.40659141417E+02  0.00000000000E+00 0. -1.
         11    1    3    3    0    0 -0.63017491473E+01 -0.13492657354E+01 -0.29749138429E+00  0.64514387330E+01  0.51100000000E-03 0. -1.
        -11    1    3    3    0    0  0.85258026588E+00  0.34745456583E+01  0.44900718841E+01  0.57410893067E+01  0.51100000000E-03 0.  1.
        -12    1    3    3    0    0  0.30702573693E+01 -0.22324597145E+02  0.31013869826E+02  0.38336330544E+02  0.00000000000E+00 0.  1.
</event>
<event>
 7    1  0.5479172E-013  0.5052886E+02  0.7816164E-02  0.1300439E+00
        -11   -1    0    0    0    0  0.00000000000E+00  0.00000000000E+00  0.45593999997E+02  0.45594000000E+02  0.51100000000E-03 0. -1.
         11   -1    0    0    0    0 -0.00000000000E+00 -0.00000000000E+00 -0.45593999997E+02  0.45594000000E+02  0.51100000000E-03 0.  1.
    9900012    2    1    2    0    0  0.16206278500E+02 -0.32327162206E+02 -0.18587015134E+02  0.50528855755E+02  0.29999987554E+02 0.  0.
         12    1    1    2    0    0 -0.16206278500E+02  0.32327162206E+02  0.18587015134E+02  0.40659144245E+02  0.00000000000E+00 0. -1.
         11    1    3    3    0    0  0.87009587564E+00  0.66181748223E+00 -0.58715493210E+01  0.59724501591E+01  0.51100000000E-03 0.  1.
        -11    1    3    3    0    0 -0.17764620900E+01 -0.21898445939E+02 -0.37833118649E+01  0.22293748025E+02  0.51100000000E-03 0. -1.
         12    1    3    3    0    0  0.17112644714E+02 -0.11090533750E+02 -0.89321539480E+01  0.22262657571E+02  0.00000000000E+00 0. -1.
</event>
<event>
 7    1  0.5479172E-013  0.5052887E+02  0.7816164E-02  0.1300439E+00
        -11   -1    0    0    0    0  0.00000000000E+00  0.00000000000E+00  0.45593999997E+02  0.45594000000E+02  0.51100000000E-03 0.  1.
         11   -1    0    0    0    0 -0.00000000000E+00 -0.00000000000E+00 -0.45593999997E+02  0.45594000000E+02  0.51100000000E-03 0. -1.
    9900012    2    1    2    0    0  0.64079544042E+01 -0.38913416914E+02  0.98918556989E+01  0.50528871815E+02  0.30000036369E+02 0.  0.
         12    1    1    2    0    0 -0.64079544042E+01  0.38913416914E+02 -0.98918556989E+01  0.40659128185E+02  0.00000000000E+00 0. -1.
         11    1    3    3    0    0 -0.30495547667E+01 -0.13583362171E+02  0.16828758441E+01  0.14022823664E+02  0.51100000000E-03 0. -1.
        -11    1    3    3    0    0  0.48465012621E+01 -0.28437576540E+02  0.10203198706E+02  0.30598849620E+02  0.51100000000E-03 0.  1.
         12    1    3    3    0    0  0.46110079089E+01  0.31075217972E+01 -0.19942188516E+01  0.59071985309E+01  0.00000000000E+00 0. -1.
</event>
<event>
 7    1  0.5479172E-013  0.5052887E+02  0.7816164E-02  0.1300439E+00
        -11   -1    0    0    0    0  0.00000000000E+00  0.00000000000E+00  0.45593999997E+02  0.45594000000E+02  0.51100000000E-03 0.  1.
         11   -1    0    0    0    0 -0.00000000000E+00 -0.00000000000E+00 -0.45593999997E+02  0.45594000000E+02  0.51100000000E-03 0. -1.
    9900012    2    1    2    0    0 -0.21613982388E+02  0.29289851424E+02  0.18113680883E+02  0.50528867370E+02  0.30000022856E+02 0.  0.
         12    1    1    2    0    0  0.21613982388E+02 -0.29289851424E+02 -0.18113680883E+02  0.40659132630E+02  0.00000000000E+00 0. -1.
         11    1    3    3    0    0 -0.20918128767E+02  0.85663953395E+01  0.35221754381E+01  0.22876996313E+02  0.51100000000E-03 0. -1.
        -11    1    3    3    0    0 -0.49611325746E+01  0.16543578269E+02  0.12515705745E+02  0.21329456367E+02  0.51100000000E-03 0.  1.
        -12    1    3    3    0    0  0.42652789537E+01  0.41798778155E+01  0.20757997000E+01  0.63224146890E+01  0.00000000000E+00 0.  1.
</event>
<event>
 7    1  0.5479172E-013  0.5052885E+02  0.7816164E-02  0.1300439E+00
        -11   -1    0    0    0    0  0.00000000000E+00  0.00000000000E+00  0.45593999997E+02  0.45594000000E+02  0.51100000000E-03 0.  1.
         11   -1    0    0    0    0 -0.00000000000E+00 -0.00000000000E+00 -0.45593999997E+02  0.45594000000E+02  0.51100000000E-03 0. -1.
    9900012    2    1    2    0    0 -0.16223284413E+02 -0.22620289608E+02  0.29636023982E+02  0.50528851256E+02  0.29999973879E+02 0.  0.
         12    1    1    2    0    0  0.16223284413E+02  0.22620289608E+02 -0.29636023982E+02  0.40659148744E+02  0.00000000000E+00 0. -1.
         11    1    3    3    0    0 -0.75110340943E+01 -0.51939960772E+01  0.33700205217E+01  0.97339748816E+01  0.51100000000E-03 0.  1.
        -11    1    3    3    0    0 -0.50378652226E+01 -0.13672951664E+02  0.58610826787E+00  0.14583319799E+02  0.51100000000E-03 0. -1.
        -12    1    3    3    0    0 -0.36743850964E+01 -0.37533418664E+01  0.25679895193E+02  0.26211556575E+02  0.00000000000E+00 0.  1.
</event>
<event>
 7    1  0.5479172E-013  0.5052886E+02  0.7816164E-02  0.1300439E+00
        -11   -1    0    0    0    0  0.00000000000E+00  0.00000000000E+00  0.45593999997E+02  0.45594000000E+02  0.51100000000E-03 0.  1.
         11   -1    0    0    0    0 -0.00000000000E+00 -0.00000000000E+00 -0.45593999997E+02  0.45594000000E+02  0.51100000000E-03 0. -1.
    9900012    2    1    2    0    0 -0.24545496689E+02  0.11974068687E+02  0.30121514954E+02  0.50528863367E+02  0.30000010691E+02 0.  0.
         12    1    1    2    0    0  0.24545496689E+02 -0.11974068687E+02 -0.30121514954E+02  0.40659136633E+02  0.00000000000E+00 0. -1.
         11    1    3    3    0    0 -0.10457788540E+02 -0.39374884219E+01  0.83807771146E+01  0.13968055753E+02  0.51100000000E-03 0. -1.
        -11    1    3    3    0    0 -0.77171777721E+01 -0.95292526357E+00  0.15748255814E+02  0.17563327155E+02  0.51100000000E-03 0.  1.
         12    1    3    3    0    0 -0.63705303768E+01  0.16864482373E+02  0.59924820254E+01  0.18997480459E+02  0.00000000000E+00 0. -1.
</event>
<event>
 7    1  0.5479172E-013  0.5052883E+02  0.7816164E-02  0.1300439E+00
        -11   -1    0    0    0    0  0.00000000000E+00  0.00000000000E+00  0.45593999997E+02  0.45594000000E+02  0.51100000000E-03 0.  1.
         11   -1    0    0    0    0 -0.00000000000E+00 -0.00000000000E+00 -0.45593999997E+02  0.45594000000E+02  0.51100000000E-03 0. -1.
    9900012    2    1    2    0    0 -0.35781919883E+02  0.19133399670E+02  0.25952522954E+01  0.50528829965E+02  0.29999909161E+02 0.  0.
         12    1    1    2    0    0  0.35781919883E+02 -0.19133399670E+02 -0.25952522954E+01  0.40659170035E+02  0.00000000000E+00 0. -1.
         11    1    3    3    0    0 -0.10795970292E+02  0.96559224458E+01 -0.34217188690E+01  0.14882807971E+02  0.51100000000E-03 0. -1.
        -11    1    3    3    0    0 -0.23233085967E+02  0.10909481477E+02  0.12666189905E+02  0.28622114468E+02  0.51100000000E-03 0.  1.
         12    1    3    3    0    0 -0.17528636235E+01 -0.14320042529E+01 -0.66492187406E+01  0.70239075253E+01  0.00000000000E+00 0. -1.
</event>
<event>
 7    1  0.5479172E-013  0.5052883E+02  0.7816164E-02  0.1300439E+00
        -11   -1    0    0    0    0  0.00000000000E+00  0.00000000000E+00  0.45593999997E+02  0.45594000000E+02  0.51100000000E-03 0.  1.
         11   -1    0    0    0    0 -0.00000000000E+00 -0.00000000000E+00 -0.45593999997E+02  0.45594000000E+02  0.51100000000E-03 0. -1.
    9900012    2    1    2    0    0  0.16855448858E+02  0.34210244441E+02  0.14096836930E+02  0.50528833846E+02  0.29999920958E+02 0.  0.
         12    1    1    2    0    0 -0.16855448858E+02 -0.34210244441E+02 -0.14096836930E+02  0.40659166154E+02  0.00000000000E+00 0. -1.
         11    1    3    3    0    0  0.45791617424E+01  0.61846323312E+00  0.32377997848E+01  0.56422129294E+01  0.51100000000E-03 0. -1.
        -11    1    3    3    0    0  0.49484522693E+01  0.40085377517E+01  0.12853001149E+02  0.14344169323E+02  0.51100000000E-03 0.  1.
        -12    1    3    3    0    0  0.73278348461E+01  0.29583243456E+02 -0.19939640035E+01  0.30542451594E+02  0.00000000000E+00 0.  1.
</event>
<event>
 7    1  0.5479172E-013  0.5052886E+02  0.7816164E-02  0.1300439E+00
        -11   -1    0    0    0    0  0.00000000000E+00  0.00000000000E+00  0.45593999997E+02  0.45594000000E+02  0.51100000000E-03 0. -1.
         11   -1    0    0    0    0 -0.00000000000E+00 -0.00000000000E+00 -0.45593999997E+02  0.45594000000E+02  0.51100000000E-03 0.  1.
    9900012    2    1    2    0    0 -0.26534524917E+02  0.85892152720E+01 -0.29585640703E+02  0.50528858747E+02  0.29999996648E+02 0.  0.
         12    1    1    2    0    0  0.26534524917E+02 -0.85892152720E+01  0.29585640703E+02  0.40659141253E+02  0.00000000000E+00 0. -1.
         11    1    3    3    0    0 -0.89269734835E+01 -0.48864512752E+01 -0.42196747041E+01  0.11016983095E+02  0.51100000000E-03 0. -1.
        -11    1    3    3    0    0 -0.16926135921E+02  0.97079096014E+00 -0.99793678549E+01  0.19672933065E+02  0.51100000000E-03 0.  1.
         12    1    3    3    0    0 -0.68141551247E+00  0.12504875587E+02 -0.15386598144E+02  0.19838942588E+02  0.00000000000E+00 0. -1.
</event>
<event>
 7    1  0.5479172E-013  0.5052886E+02  0.7816164E-02  0.1300439E+00
        -11   -1    0    0    0    0  0.00000000000E+00  0.00000000000E+00  0.45593999997E+02  0.45594000000E+02  0.51100000000E-03 0.  1.
         11   -1    0    0    0    0 -0.00000000000E+00 -0.00000000000E+00 -0.45593999997E+02  0.45594000000E+02  0.51100000000E-03 0. -1.
    9900012    2    1    2    0    0  0.16654741838E+02  0.18286410595E+02  0.32270606485E+02  0.50528864728E+02  0.30000014827E+02 0.  0.
         12    1    1    2    0    0 -0.16654741838E+02 -0.18286410595E+02 -0.32270606485E+02  0.40659135272E+02  0.00000000000E+00 0. -1.
         11    1    3    3    0    0 -0.30851320957E+01 -0.71481767618E+00  0.36117177508E+01  0.48034893287E+01  0.51100000000E-03 0.  1.
        -11    1    3    3    0    0 -0.34151838786E+01  0.54038433469E+00 -0.12112585202E+01  0.36636926205E+01  0.51100000000E-03 0. -1.
        -12    1    3    3    0    0  0.23155057812E+02  0.18460843937E+02  0.29870147255E+02  0.42061682779E+02  0.00000000000E+00 0.  1.
</event>
<event>
 7    1  0.5479172E-013  0.5052887E+02  0.7816164E-02  0.1300439E+00
        -11   -1    0    0    0    0  0.00000000000E+00  0.00000000000E+00  0.45593999997E+02  0.45594000000E+02  0.51100000000E-03 0.  1.
         11   -1    0    0    0    0 -0.00000000000E+00 -0.00000000000E+00 -0.45593999997E+02  0.45594000000E+02  0.51100000000E-03 0. -1.
    9900012    2    1    2    0    0  0.14990247258E+02 -0.29171145984E+02  0.24031264494E+02  0.50528868872E+02  0.30000027424E+02 0.  0.
         12    1    1    2    0    0 -0.14990247258E+02  0.29171145984E+02 -0.24031264494E+02  0.40659131128E+02  0.00000000000E+00 0. -1.
         11    1    3    3    0    0  0.16404029641E+02 -0.22762985548E+02  0.20474655493E+02  0.34734093011E+02  0.51100000000E-03 0. -1.
        -11    1    3    3    0    0  0.46882230100E+01 -0.26900269200E+01  0.61550047590E+01  0.81914445409E+01  0.51100000000E-03 0.  1.
         12    1    3    3    0    0 -0.61020053922E+01 -0.37181335159E+01 -0.25983957577E+01  0.76033313201E+01  0.00000000000E+00 0. -1.
</event>
<event>
 7    1  0.5479172E-013  0.5052885E+02  0.7816164E-02  0.1300439E+00
        -11   -1    0    0    0    0  0.00000000000E+00  0.00000000000E+00  0.45593999997E+02  0.45594000000E+02  0.51100000000E-03 0.  1.
         11   -1    0    0    0    0 -0.00000000000E+00 -0.00000000000E+00 -0.45593999997E+02  0.45594000000E+02  0.51100000000E-03 0. -1.
    9900012    2    1    2    0    0 -0.33694773439E+02 -0.43675781982E+01 -0.22332780900E+02  0.50528848519E+02  0.29999965557E+02 0.  0.
         12    1    1    2    0    0  0.33694773439E+02  0.43675781982E+01  0.22332780900E+02  0.40659151481E+02  0.00000000000E+00 0. -1.
         11    1    3    3    0    0 -0.19864572263E+02  0.28059624396E+01 -0.22397708749E+02  0.30068788034E+02  0.51100000000E-03 0. -1.
        -11    1    3    3    0    0 -0.12576841585E+02 -0.55364106617E+01 -0.52879446905E+01  0.14723829209E+02  0.51100000000E-03 0.  1.
        -12    1    3    3    0    0 -0.12533595918E+01 -0.16371299762E+01  0.53528725391E+01  0.57362312754E+01  0.00000000000E+00 0.  1.
</event>
<event>
 7    1  0.5479172E-013  0.5052885E+02  0.7816164E-02  0.1300439E+00
        -11   -1    0    0    0    0  0.00000000000E+00  0.00000000000E+00  0.45593999997E+02  0.45594000000E+02  0.51100000000E-03 0.  1.
         11   -1    0    0    0    0 -0.00000000000E+00 -0.00000000000E+00 -0.45593999997E+02  0.45594000000E+02  0.51100000000E-03 0. -1.
    9900012    2    1    2    0    0 -0.24295097065E+02  0.79156538736E-01  0.32602279171E+02  0.50528848332E+02  0.29999964991E+02 0.  0.
         12    1    1    2    0    0  0.24295097065E+02 -0.79156538736E-01 -0.32602279171E+02  0.40659151668E+02  0.00000000000E+00 0. -1.
         11    1    3    3    0    0 -0.95908174815E+01 -0.61440141517E+01  0.18980569380E+02  0.22135823999E+02  0.51100000000E-03 0.  1.
        -11    1    3    3    0    0  0.57161975337E+00 -0.54295319291E+01  0.14491997798E+01  0.56486057018E+01  0.51100000000E-03 0. -1.
        -12    1    3    3    0    0 -0.15275899337E+02  0.11652702620E+02  0.12172510011E+02  0.22744418631E+02  0.00000000000E+00 0.  1.
</event>
<event>
 7    1  0.5479172E-013  0.5052886E+02  0.7816164E-02  0.1300439E+00
        -11   -1    0    0    0    0  0.00000000000E+00  0.00000000000E+00  0.45593999997E+02  0.45594000000E+02  0.51100000000E-03 0.  1.
         11   -1    0    0    0    0 -0.00000000000E+00 -0.00000000000E+00 -0.45593999997E+02  0.45594000000E+02  0.51100000000E-03 0. -1.
    9900012    2    1    2    0    0  0.13342911486E+02  0.37682376584E+01  0.38222150198E+02  0.50528859973E+02  0.30000000373E+02 0.  0.
         12    1    1    2    0    0 -0.13342911486E+02 -0.37682376584E+01 -0.38222150198E+02  0.40659140027E+02  0.00000000000E+00 0. -1.
         11    1    3    3    0    0 -0.35817263339E+01  0.92822573302E+01  0.17068443810E+02  0.19756539146E+02  0.51100000000E-03 0. -1.
        -11    1    3    3    0    0  0.12112925204E+02  0.12397955264E+01  0.61777565667E+01  0.13653744043E+02  0.51100000000E-03 0.  1.
        -12    1    3    3    0    0  0.48117126162E+01 -0.67538151981E+01  0.14975949822E+02  0.17118576783E+02  0.00000000000E+00 0.  1.
</event>
<event>
 7    1  0.5479172E-013  0.5052884E+02  0.7816164E-02  0.1300439E+00
        -11   -1    0    0    0    0  0.00000000000E+00  0.00000000000E+00  0.45593999997E+02  0.45594000000E+02  0.51100000000E-03 0. -1.
         11   -1    0    0    0    0 -0.00000000000E+00 -0.00000000000E+00 -0.45593999997E+02  0.45594000000E+02  0.51100000000E-03 0.  1.
    9900012    2    1    2    0    0  0.38212940955E+02  0.47919783715E+01 -0.13037446459E+02  0.50528844533E+02  0.29999953441E+02 0.  0.
         12    1    1    2    0    0 -0.38212940955E+02 -0.47919783715E+01  0.13037446459E+02  0.40659155467E+02  0.00000000000E+00 0. -1.
         11    1    3    3    0    0  0.95728672376E+01  0.72467014475E+01 -0.18998681344E+01  0.12155820343E+02  0.51100000000E-03 0.  1.
        -11    1    3    3    0    0  0.26116719364E+02 -0.10571551030E+02 -0.93591142445E+01  0.29688949817E+02  0.51100000000E-03 0. -1.
         12    1    3    3    0    0  0.25233543537E+01  0.81168279542E+01 -0.17784640798E+01  0.86840743729E+01  0.00000000000E+00 0. -1.
</event>
<event>
 7    1  0.5479172E-013  0.5052886E+02  0.7816164E-02  0.1300439E+00
        -11   -1    0    0    0    0  0.00000000000E+00  0.00000000000E+00  0.45593999997E+02  0.45594000000E+02  0.51100000000E-03 0.  1.
         11   -1    0    0    0    0 -0.00000000000E+00 -0.00000000000E+00 -0.45593999997E+02  0.45594000000E+02  0.51100000000E-03 0. -1.
    9900012    2    1    2    0    0  0.37667900709E+02 -0.10147571962E+01  0.15273023518E+02  0.50528859289E+02  0.29999998294E+02 0.  0.
         12    1    1    2    0    0 -0.37667900709E+02  0.10147571962E+01 -0.15273023518E+02  0.40659140711E+02  0.00000000000E+00 0. -1.
         11    1    3    3    0    0 -0.12001793024E+01 -0.49361335431E+00 -0.21322091115E+01  0.24960770136E+01  0.51100000000E-03 0. -1.
        -11    1    3    3    0    0  0.25701806791E+02  0.40134168841E+01  0.35115940509E+00  0.26015643382E+02  0.51100000000E-03 0.  1.
         12    1    3    3    0    0  0.13166273221E+02 -0.45345607260E+01  0.17054073224E+02  0.22017138893E+02  0.00000000000E+00 0. -1.
</event>
<event>
 7    1  0.5479172E-013  0.5052886E+02  0.7816164E-02  0.1300439E+00
        -11   -1    0    0    0    0  0.00000000000E+00  0.00000000000E+00  0.45593999997E+02  0.45594000000E+02  0.51100000000E-03 0.  1.
         11   -1    0    0    0    0 -0.00000000000E+00 -0.00000000000E+00 -0.45593999997E+02  0.45594000000E+02  0.51100000000E-03 0. -1.
    9900012    2    1    2    0    0  0.20810778709E+02 -0.37729128060E+01  0.34725240784E+02  0.50528859219E+02  0.29999998082E+02 0.  0.
         12    1    1    2    0    0 -0.20810778709E+02  0.37729128060E+01 -0.34725240784E+02  0.40659140781E+02  0.00000000000E+00 0. -1.
         11    1    3    3    0    0 -0.32723828587E+01  0.15477428979E+01  0.60878333072E+01  0.70827757475E+01  0.51100000000E-03 0. -1.
        -11    1    3    3    0    0 -0.18516972403E+01  0.37020529491E+01  0.83015959816E+01  0.92763395157E+01  0.51100000000E-03 0.  1.
        -12    1    3    3    0    0  0.25934858808E+02 -0.90227086530E+01  0.20335811495E+02  0.34169743956E+02  0.00000000000E+00 0.  1.
</event>
<event>
 7    1  0.5479172E-013  0.5052886E+02  0.7816164E-02  0.1300439E+00
        -11   -1    0    0    0    0  0.00000000000E+00  0.00000000000E+00  0.45593999997E+02  0.45594000000E+02  0.51100000000E-03 0.  1.
         11   -1    0    0    0    0 -0.00000000000E+00 -0.00000000000E+00 -0.45593999997E+02  0.45594000000E+02  0.51100000000E-03 0. -1.
    9900012    2    1    2    0    0 -0.34006708222E+01  0.66142717691E+01  0.39973151309E+02  0.50528856149E+02  0.29999988752E+02 0.  0.
         12    1    1    2    0    0  0.34006708222E+01 -0.66142717691E+01 -0.39973151309E+02  0.40659143851E+02  0.00000000000E+00 0. -1.
         11    1    3    3    0    0  0.68905229679E+01 -0.11993272332E+01  0.79859528853E+01  0.10615702347E+02  0.51100000000E-03 0. -1.
        -11    1    3    3    0    0  0.34483524682E+01  0.68814141059E+01  0.38935416225E+01  0.86258136700E+01  0.51100000000E-03 0.  1.
        -12    1    3    3    0    0 -0.13739546258E+02  0.93218489644E+00  0.28093656801E+02  0.31287340132E+02  0.00000000000E+00 0.  1.
</event>
<event>
 7    1  0.5479172E-013  0.5052885E+02  0.7816164E-02  0.1300439E+00
        -11   -1    0    0    0    0  0.00000000000E+00  0.00000000000E+00  0.45593999997E+02  0.45594000000E+02  0.51100000000E-03 0. -1.
         11   -1    0    0    0    0 -0.00000000000E+00 -0.00000000000E+00 -0.45593999997E+02  0.45594000000E+02  0.51100000000E-03 0.  1.
    9900012    2    1    2    0    0 -0.10241811972E+02  0.19744372724E+02 -0.34035733372E+02  0.50528854498E+02  0.29999983733E+02 0.  0.
         12    1    1    2    0    0  0.10241811972E+02 -0.19744372724E+02  0.34035733372E+02  0.40659145502E+02  0.00000000000E+00 0. -1.
         11    1    3    3    0    0 -0.31863009776E+01  0.55937336245E+01 -0.22316287891E+01  0.68134086253E+01  0.51100000000E-03 0. -1.
        -11    1    3    3    0    0  0.51705946322E+01  0.76869336881E+01 -0.25420503169E+00  0.92676112799E+01  0.51100000000E-03 0.  1.
        -12    1    3    3    0    0 -0.12226105627E+02  0.64637054114E+01 -0.31549899552E+02  0.34447834593E+02  0.00000000000E+00 0.  1.
</event>
<event>
 7    1  0.5479172E-013  0.5052886E+02  0.7816164E-02  0.1300439E+00
        -11   -1    0    0    0    0  0.00000000000E+00  0.00000000000E+00  0.45593999997E+02  0.45594000000E+02  0.51100000000E-03 0.  1.
         11   -1    0    0    0    0 -0.00000000000E+00 -0.00000000000E+00 -0.45593999997E+02  0.45594000000E+02  0.51100000000E-03 0. -1.
    9900012    2    1    2    0    0  0.49603325991E+01 -0.30765740965E+01  0.40237984416E+02  0.50528860836E+02  0.30000002998E+02 0.  0.
         12    1    1    2    0    0 -0.49603325991E+01  0.30765740965E+01 -0.40237984416E+02  0.40659139164E+02  0.00000000000E+00 0. -1.
         11    1    3    3    0    0  0.72849701947E+01 -0.69648080289E+01  0.17543808487E+02  0.20232759528E+02  0.51100000000E-03 0. -1.
        -11    1    3    3    0    0  0.85363569680E+01  0.13227422236E+00  0.87217326048E+01  0.12204732961E+02  0.51100000000E-03 0.  1.
         12    1    3    3    0    0 -0.10860994564E+02  0.37559597101E+01  0.13972443324E+02  0.18091368348E+02  0.00000000000E+00 0. -1.
</event>
<event>
 7    1  0.5479172E-013  0.5052883E+02  0.7816164E-02  0.1300439E+00
        -11   -1    0    0    0    0  0.00000000000E+00  0.00000000000E+00  0.45593999997E+02  0.45594000000E+02  0.51100000000E-03 0. -1.
         11   -1    0    0    0    0 -0.00000000000E+00 -0.00000000000E+00 -0.45593999997E+02  0.45594000000E+02  0.51100000000E-03 0.  1.
    9900012    2    1    2    0    0 -0.19121560385E+02  0.28619203311E+02 -0.21644287724E+02  0.50528830544E+02  0.29999910923E+02 0.  0.
         12    1    1    2    0    0  0.19121560385E+02 -0.28619203311E+02  0.21644287724E+02  0.40659169456E+02  0.00000000000E+00 0. -1.
         11    1    3    3    0    0 -0.26815427874E+01  0.94180901433E+01  0.49556168853E+01  0.10974936567E+02  0.51100000000E-03 0. -1.
        -11    1    3    3    0    0 -0.14973654612E+02  0.63028406238E+01 -0.13675531743E+02  0.21235731706E+02  0.51100000000E-03 0.  1.
        -12    1    3    3    0    0 -0.14663629860E+01  0.12898272544E+02 -0.12924372867E+02  0.18318162272E+02  0.00000000000E+00 0.  1.
</event>
<event>
 7    1  0.5479172E-013  0.5052886E+02  0.7816164E-02  0.1300439E+00
        -11   -1    0    0    0    0  0.00000000000E+00  0.00000000000E+00  0.45593999997E+02  0.45594000000E+02  0.51100000000E-03 0.  1.
         11   -1    0    0    0    0 -0.00000000000E+00 -0.00000000000E+00 -0.45593999997E+02  0.45594000000E+02  0.51100000000E-03 0. -1.
    9900012    2    1    2    0    0 -0.36038410015E+02 -0.18364433417E+02 -0.41408039987E+01  0.50528859959E+02  0.30000000331E+02 0.  0.
         12    1    1    2    0    0  0.36038410015E+02  0.18364433417E+02  0.41408039987E+01  0.40659140041E+02  0.00000000000E+00 0. -1.
         11    1    3    3    0    0 -0.67784709318E+01 -0.14126057963E+02  0.83987164214E+00  0.15690715929E+02  0.51100000000E-03 0. -1.
        -11    1    3    3    0    0 -0.12993210843E+02 -0.10485357151E+02 -0.49446376757E+01  0.17413089462E+02  0.51100000000E-03 0.  1.
        -12    1    3    3    0    0 -0.16266728240E+02  0.62469816967E+01 -0.36037965136E-01  0.17425054568E+02  0.00000000000E+00 0.  1.
</event>
<event>
 7    1  0.5479172E-013  0.5052886E+02  0.7816164E-02  0.1300439E+00
        -11   -1    0    0    0    0  0.00000000000E+00  0.00000000000E+00  0.45593999997E+02  0.45594000000E+02  0.51100000000E-03 0. -1.
         11   -1    0    0    0    0 -0.00000000000E+00 -0.00000000000E+00 -0.45593999997E+02  0.45594000000E+02  0.51100000000E-03 0.  1.
    9900012    2    1    2    0    0  0.36297851386E+02 -0.58521312130E+01 -0.17360424810E+02  0.50528858291E+02  0.29999995260E+02 0.  0.
         12    1    1    2    0    0 -0.36297851386E+02  0.58521312130E+01  0.17360424810E+02  0.40659141709E+02  0.00000000000E+00 0. -1.
         11    1    3    3    0    0  0.15472037169E+02 -0.16215249679E+00  0.26794767536E+01  0.15703178772E+02  0.51100000000E-03 0. -1.
        -11    1    3    3    0    0  0.18204581745E+02 -0.57510837316E+01 -0.52429691462E+01  0.19798244526E+02  0.51100000000E-03 0.  1.
         12    1    3    3    0    0  0.26212324716E+01  0.61105015360E-01 -0.14796932417E+02  0.15027434993E+02  0.00000000000E+00 0. -1.
</event>
<event>
 7    1  0.5479172E-013  0.5052887E+02  0.7816164E-02  0.1300439E+00
        -11   -1    0    0    0    0  0.00000000000E+00  0.00000000000E+00  0.45593999997E+02  0.45594000000E+02  0.51100000000E-03 0.  1.
         11   -1    0    0    0    0 -0.00000000000E+00 -0.00000000000E+00 -0.45593999997E+02  0.45594000000E+02  0.51100000000E-03 0. -1.
    9900012    2    1    2    0    0 -0.10522723380E+02 -0.33085222947E+02  0.21161408089E+02  0.50528869696E+02  0.30000029926E+02 0.  0.
         12    1    1    2    0    0  0.10522723380E+02  0.33085222947E+02 -0.21161408089E+02  0.40659130304E+02  0.00000000000E+00 0. -1.
         11    1    3    3    0    0  0.30697417010E+01 -0.60203661869E+00 -0.42798123709E+01  0.53011844330E+01  0.51100000000E-03 0. -1.
        -11    1    3    3    0    0  0.20356422197E+00  0.66672051042E-01  0.37388033117E+01  0.37449344479E+01  0.51100000000E-03 0.  1.
        -12    1    3    3    0    0 -0.13796029303E+02 -0.32549858380E+02  0.21702417148E+02  0.41482750815E+02  0.00000000000E+00 0.  1.
</event>
<event>
 7    1  0.5479172E-013  0.5052886E+02  0.7816164E-02  0.1300439E+00
        -11   -1    0    0    0    0  0.00000000000E+00  0.00000000000E+00  0.45593999997E+02  0.45594000000E+02  0.51100000000E-03 0.  1.
         11   -1    0    0    0    0 -0.00000000000E+00 -0.00000000000E+00 -0.45593999997E+02  0.45594000000E+02  0.51100000000E-03 0. -1.
    9900012    2    1    2    0    0 -0.27003563018E+02  0.19502846993E+02  0.23315492936E+02  0.50528859978E+02  0.30000000388E+02 0.  0.
         12    1    1    2    0    0  0.27003563018E+02 -0.19502846993E+02 -0.23315492936E+02  0.40659140022E+02  0.00000000000E+00 0. -1.
         11    1    3    3    0    0  0.52552045602E+01  0.19080881220E+01  0.18747078579E+01  0.58968216069E+01  0.51100000000E-03 0. -1.
        -11    1    3    3    0    0 -0.13596759473E+02  0.45103832814E+01  0.15442860749E+02  0.21064125282E+02  0.51100000000E-03 0.  1.
         12    1    3    3    0    0 -0.18662008106E+02  0.13084375590E+02  0.59979243284E+01  0.23567913089E+02  0.00000000000E+00 0. -1.
</event>
<event>
 7    1  0.5479172E-013  0.5052887E+02  0.7816164E-02  0.1300439E+00
        -11   -1    0    0    0    0  0.00000000000E+00  0.00000000000E+00  0.45593999997E+02  0.45594000000E+02  0.51100000000E-03 0.  1.
         11   -1    0    0    0    0 -0.00000000000E+00 -0.00000000000E+00 -0.45593999997E+02  0.45594000000E+02  0.51100000000E-03 0. -1.
    9900012    2    1    2    0    0  0.38084895632E+01 -0.36878862990E+02 -0.16691618577E+02  0.50528865000E+02  0.30000015654E+02 0.  0.
         12    1    1    2    0    0 -0.38084895632E+01  0.36878862990E+02  0.16691618577E+02  0.40659135000E+02  0.00000000000E+00 0. -1.
         11    1    3    3    0    0 -0.10968360783E+01 -0.12986824690E+02  0.75760839466E+01  0.15075069259E+02  0.51100000000E-03 0. -1.
        -11    1    3    3    0    0 -0.23056283846E+01 -0.80711858957E+01 -0.67366998512E+01  0.10763042746E+02  0.51100000000E-03 0.  1.
        -12    1    3    3    0    0  0.72109540262E+01 -0.15820852404E+02 -0.17531002673E+02  0.24690752995E+02  0.00000000000E+00 0.  1.
</event>
<event>
 7    1  0.5479172E-013  0.5052887E+02  0.7816164E-02  0.1300439E+00
        -11   -1    0    0    0    0  0.00000000000E+00  0.00000000000E+00  0.45593999997E+02  0.45594000000E+02  0.51100000000E-03 0.  1.
         11   -1    0    0    0    0 -0.00000000000E+00 -0.00000000000E+00 -0.45593999997E+02  0.45594000000E+02  0.51100000000E-03 0. -1.
    9900012    2    1    2    0    0 -0.32449995336E+02  0.22050734034E+02 -0.10673713666E+02  0.50528865329E+02  0.30000016656E+02 0.  0.
         12    1    1    2    0    0  0.32449995336E+02 -0.22050734034E+02  0.10673713666E+02  0.40659134671E+02  0.00000000000E+00 0. -1.
         11    1    3    3    0    0 -0.14350049211E+02  0.11913208475E+02 -0.53516933525E+01  0.19403326275E+02  0.51100000000E-03 0. -1.
        -11    1    3    3    0    0 -0.51562992044E+01  0.56927878959E+01  0.86497860133E+01  0.11567802464E+02  0.51100000000E-03 0.  1.
         12    1    3    3    0    0 -0.12943646920E+02  0.44447376629E+01 -0.13971806327E+02  0.19557736590E+02  0.00000000000E+00 0. -1.
</event>
<event>
 7    1  0.5479172E-013  0.5052886E+02  0.7816164E-02  0.1300439E+00
        -11   -1    0    0    0    0  0.00000000000E+00  0.00000000000E+00  0.45593999997E+02  0.45594000000E+02  0.51100000000E-03 0.  1.
         11   -1    0    0    0    0 -0.00000000000E+00 -0.00000000000E+00 -0.45593999997E+02  0.45594000000E+02  0.51100000000E-03 0. -1.
    9900012    2    1    2    0    0 -0.29884450727E+02 -0.21147294320E+02  0.17688336772E+02  0.50528859452E+02  0.29999998791E+02 0.  0.
         12    1    1    2    0    0  0.29884450727E+02  0.21147294320E+02 -0.17688336772E+02  0.40659140548E+02  0.00000000000E+00 0. -1.
         11    1    3    3    0    0 -0.17937154803E+01  0.45333795276E+01 -0.42329324701E+00  0.48936819062E+01  0.51100000000E-03 0. -1.
        -11    1    3    3    0    0  0.19599226736E+01 -0.15395777144E+00  0.26115602136E+01  0.32688295905E+01  0.51100000000E-03 0.  1.
        -12    1    3    3    0    0 -0.30050657921E+02 -0.25526716076E+02  0.15500069806E+02  0.42366347955E+02  0.00000000000E+00 0.  1.
</event>
<event>
 7    1  0.5479172E-013  0.5052899E+02  0.7816164E-02  0.1300438E+00
        -11   -1    0    0    0    0  0.00000000000E+00  0.00000000000E+00  0.45593999997E+02  0.45594000000E+02  0.51100000000E-03 0.  1.
         11   -1    0    0    0    0 -0.00000000000E+00 -0.00000000000E+00 -0.45593999997E+02  0.45594000000E+02  0.51100000000E-03 0. -1.
    9900012    2    1    2    0    0  0.16911419953E+02 -0.26690468139E+02  0.25588633830E+02  0.50528986294E+02  0.30000384336E+02 0.  0.
         12    1    1    2    0    0 -0.16911419953E+02  0.26690468139E+02 -0.25588633830E+02  0.40659013706E+02  0.00000000000E+00 0. -1.
         11    1    3    3    0    0  0.12720396011E+02 -0.16573664825E+02  0.89730991586E+01  0.22737883568E+02  0.51100000000E-03 0. -1.
        -11    1    3    3    0    0  0.95046537175E+01 -0.48556363973E+01  0.13056364822E+01  0.10752689617E+02  0.51100000000E-03 0.  1.
         12    1    3    3    0    0 -0.53136297752E+01 -0.52611669168E+01  0.15309898189E+02  0.17038413109E+02  0.00000000000E+00 0. -1.
</event>
<event>
 7    1  0.5479172E-013  0.5052884E+02  0.7816164E-02  0.1300439E+00
        -11   -1    0    0    0    0  0.00000000000E+00  0.00000000000E+00  0.45593999997E+02  0.45594000000E+02  0.51100000000E-03 0. -1.
         11   -1    0    0    0    0 -0.00000000000E+00 -0.00000000000E+00 -0.45593999997E+02  0.45594000000E+02  0.51100000000E-03 0.  1.
    9900012    2    1    2    0    0 -0.38560818132E+02 -0.12780609383E+02  0.16989146844E+01  0.50528843807E+02  0.29999951235E+02 0.  0.
         12    1    1    2    0    0  0.38560818132E+02  0.12780609383E+02 -0.16989146844E+01  0.40659156193E+02  0.00000000000E+00 0. -1.
         11    1    3    3    0    0 -0.34450417331E+01  0.60931920372E+01 -0.19673821401E+01  0.72708936515E+01  0.51100000000E-03 0. -1.
        -11    1    3    3    0    0  0.40529084495E+00  0.90606583342E+00 -0.19760429843E+01  0.22113258693E+01  0.51100000000E-03 0.  1.
        -12    1    3    3    0    0 -0.35521067244E+02 -0.19779867254E+02  0.56423398087E+01  0.41046624286E+02  0.00000000000E+00 0.  1.
</event>
<event>
 7    1  0.5479172E-013  0.5052886E+02  0.7816164E-02  0.1300439E+00
        -11   -1    0    0    0    0  0.00000000000E+00  0.00000000000E+00  0.45593999997E+02  0.45594000000E+02  0.51100000000E-03 0.  1.
         11   -1    0    0    0    0 -0.00000000000E+00 -0.00000000000E+00 -0.45593999997E+02  0.45594000000E+02  0.51100000000E-03 0. -1.
    9900012    2    1    2    0    0 -0.34188275594E+02  0.69129001085E+01  0.20893530484E+02  0.50528855984E+02  0.29999988250E+02 0.  0.
         12    1    1    2    0    0  0.34188275594E+02 -0.69129001085E+01 -0.20893530484E+02  0.40659144016E+02  0.00000000000E+00 0. -1.
         11    1    3    3    0    0 -0.31986168445E+01  0.20917277141E+01 -0.26666302285E+01  0.46601922262E+01  0.51100000000E-03 0. -1.
        -11    1    3    3    0    0 -0.13145073426E+02  0.67596494054E+01 -0.17019963101E+01  0.14878931653E+02  0.51100000000E-03 0.  1.
        -12    1    3    3    0    0 -0.17844585324E+02 -0.19384770110E+01  0.25262157022E+02  0.30989732105E+02  0.00000000000E+00 0.  1.
</event>
<event>
 7    1  0.5479172E-013  0.5052886E+02  0.7816164E-02  0.1300439E+00
        -11   -1    0    0    0    0  0.00000000000E+00  0.00000000000E+00  0.45593999997E+02  0.45594000000E+02  0.51100000000E-03 0. -1.
         11   -1    0    0    0    0 -0.00000000000E+00 -0.00000000000E+00 -0.45593999997E+02  0.45594000000E+02  0.51100000000E-03 0.  1.
    9900012    2    1    2    0    0 -0.21714699614E+02 -0.10178274833E+02 -0.32833519417E+02  0.50528862586E+02  0.30000008318E+02 0.  0.
         12    1    1    2    0    0  0.21714699614E+02  0.10178274833E+02  0.32833519417E+02  0.40659137414E+02  0.00000000000E+00 0. -1.
         11    1    3    3    0    0  0.59353529925E+00  0.22865623037E+01 -0.18370734748E+00  0.23694725089E+01  0.51100000000E-03 0. -1.
        -11    1    3    3    0    0 -0.28650193145E+01  0.55171610258E+01 -0.15257165436E+02  0.16475087219E+02  0.51100000000E-03 0.  1.
        -12    1    3    3    0    0 -0.19443215598E+02 -0.17981998163E+02 -0.17392646634E+02  0.31684302859E+02  0.00000000000E+00 0.  1.
</event>
<event>
 7    1  0.5479172E-013  0.5052886E+02  0.7816164E-02  0.1300439E+00
        -11   -1    0    0    0    0  0.00000000000E+00  0.00000000000E+00  0.45593999997E+02  0.45594000000E+02  0.51100000000E-03 0.  1.
         11   -1    0    0    0    0 -0.00000000000E+00 -0.00000000000E+00 -0.45593999997E+02  0.45594000000E+02  0.51100000000E-03 0. -1.
    9900012    2    1    2    0    0  0.26638507027E+02  0.77570514515E+01  0.29721779050E+02  0.50528855226E+02  0.29999985946E+02 0.  0.
         12    1    1    2    0    0 -0.26638507027E+02 -0.77570514515E+01 -0.29721779050E+02  0.40659144774E+02  0.00000000000E+00 0. -1.
         11    1    3    3    0    0  0.10207148747E+02  0.16048908232E+01  0.57793362871E+01  0.11839015511E+02  0.51100000000E-03 0. -1.
        -11    1    3    3    0    0  0.15405344280E+02  0.14116610405E+02  0.22172652095E+02  0.30466864342E+02  0.51100000000E-03 0.  1.
        -12    1    3    3    0    0  0.10260140007E+01 -0.79644497765E+01  0.17697906682E+01  0.82229753728E+01  0.00000000000E+00 0.  1.
</event>
<event>
 7    1  0.5479172E-013  0.5052885E+02  0.7816164E-02  0.1300439E+00
        -11   -1    0    0    0    0  0.00000000000E+00  0.00000000000E+00  0.45593999997E+02  0.45594000000E+02  0.51100000000E-03 0.  1.
         11   -1    0    0    0    0 -0.00000000000E+00 -0.00000000000E+00 -0.45593999997E+02  0.45594000000E+02  0.51100000000E-03 0. -1.
    9900012    2    1    2    0    0  0.26784506944E+02  0.29893328956E+02 -0.64919312663E+01  0.50528854659E+02  0.29999984222E+02 0.  0.
         12    1    1    2    0    0 -0.26784506944E+02 -0.29893328956E+02  0.64919312663E+01  0.40659145341E+02  0.00000000000E+00 0. -1.
         11    1    3    3    0    0  0.18700008341E+02  0.21186103580E+02 -0.36175164589E+01  0.28489080758E+02  0.51100000000E-03 0. -1.
        -11    1    3    3    0    0  0.12225088999E+02  0.86656528692E+01  0.25658011342E+01  0.15202949595E+02  0.51100000000E-03 0.  1.
         12    1    3    3    0    0 -0.41405903957E+01  0.41572506576E-01 -0.54402159416E+01  0.68368243059E+01  0.00000000000E+00 0. -1.
</event>
<event>
 7    1  0.5479172E-013  0.5052886E+02  0.7816164E-02  0.1300439E+00
        -11   -1    0    0    0    0  0.00000000000E+00  0.00000000000E+00  0.45593999997E+02  0.45594000000E+02  0.51100000000E-03 0.  1.
         11   -1    0    0    0    0 -0.00000000000E+00 -0.00000000000E+00 -0.45593999997E+02  0.45594000000E+02  0.51100000000E-03 0. -1.
    9900012    2    1    2    0    0  0.19345557149E+02 -0.32756301273E+02  0.14350603902E+02  0.50528859738E+02  0.29999999659E+02 0.  0.
         12    1    1    2    0    0 -0.19345557149E+02  0.32756301273E+02 -0.14350603902E+02  0.40659140262E+02  0.00000000000E+00 0. -1.
         11    1    3    3    0    0  0.93631865781E+00 -0.12552756467E+02  0.13353664963E+01  0.12658261787E+02  0.51100000000E-03 0. -1.
        -11    1    3    3    0    0  0.21157100369E+02 -0.74003435084E+01  0.71938520494E+01  0.23540167536E+02  0.51100000000E-03 0.  1.
         12    1    3    3    0    0 -0.27478618776E+01 -0.12803201298E+02  0.58213853567E+01  0.14330430414E+02  0.00000000000E+00 0. -1.
</event>
<event>
 7    1  0.5479172E-013  0.5052886E+02  0.7816164E-02  0.1300439E+00
        -11   -1    0    0    0    0  0.00000000000E+00  0.00000000000E+00  0.45593999997E+02  0.45594000000E+02  0.51100000000E-03 0.  1.
         11   -1    0    0    0    0 -0.00000000000E+00 -0.00000000000E+00 -0.45593999997E+02  0.45594000000E+02  0.51100000000E-03 0. -1.
    9900012    2    1    2    0    0 -0.49968238044E+01 -0.39944071571E+02 -0.57156220083E+01  0.50528862814E+02  0.30000009008E+02 0.  0.
         12    1    1    2    0    0  0.49968238044E+01  0.39944071571E+02  0.57156220083E+01  0.40659137186E+02  0.00000000000E+00 0. -1.
         11    1    3    3    0    0 -0.23377791538E+01 -0.10754189253E+01 -0.18591347290E+01  0.31746053989E+01  0.51100000000E-03 0. -1.
        -11    1    3    3    0    0 -0.11637804301E+02 -0.16289504696E+02 -0.98726970660E+01  0.22321662120E+02  0.51100000000E-03 0.  1.
         12    1    3    3    0    0  0.89787596503E+01 -0.22579147949E+02  0.60162097867E+01  0.25032595294E+02  0.00000000000E+00 0. -1.
</event>
<event>
 7    1  0.5479172E-013  0.5052887E+02  0.7816164E-02  0.1300439E+00
        -11   -1    0    0    0    0  0.00000000000E+00  0.00000000000E+00  0.45593999997E+02  0.45594000000E+02  0.51100000000E-03 0. -1.
         11   -1    0    0    0    0 -0.00000000000E+00 -0.00000000000E+00 -0.45593999997E+02  0.45594000000E+02  0.51100000000E-03 0.  1.
    9900012    2    1    2    0    0  0.11617327804E+02 -0.30876076721E+02 -0.23766995892E+02  0.50528874177E+02  0.30000043548E+02 0.  0.
         12    1    1    2    0    0 -0.11617327804E+02  0.30876076721E+02  0.23766995892E+02  0.40659125823E+02  0.00000000000E+00 0. -1.
         11    1    3    3    0    0 -0.85098181123E+01 -0.67309335249E+01 -0.10148642967E+02  0.14856561673E+02  0.51100000000E-03 0. -1.
        -11    1    3    3    0    0  0.53081303912E+01 -0.41337868264E+01  0.99344213329E+00  0.68008359272E+01  0.51100000000E-03 0.  1.
        -12    1    3    3    0    0  0.14819015525E+02 -0.20011356370E+02 -0.14611795058E+02  0.28871476576E+02  0.00000000000E+00 0.  1.
</event>
<event>
 7    1  0.5479172E-013  0.5052888E+02  0.7816164E-02  0.1300439E+00
        -11   -1    0    0    0    0  0.00000000000E+00  0.00000000000E+00  0.45593999997E+02  0.45594000000E+02  0.51100000000E-03 0.  1.
         11   -1    0    0    0    0 -0.00000000000E+00 -0.00000000000E+00 -0.45593999997E+02  0.45594000000E+02  0.51100000000E-03 0. -1.
    9900012    2    1    2    0    0 -0.15792158894E+02  0.31018836832E+02  0.21014356156E+02  0.50528884348E+02  0.30000074463E+02 0.  0.
         12    1    1    2    0    0  0.15792158894E+02 -0.31018836832E+02 -0.21014356156E+02  0.40659115652E+02  0.00000000000E+00 0. -1.
         11    1    3    3    0    0  0.35543505172E+01  0.28521100940E+00 -0.89719412456E+00  0.36769158920E+01  0.51100000000E-03 0. -1.
        -11    1    3    3    0    0 -0.49945030804E+00  0.45582251234E+01 -0.35171903517E+01  0.57790565940E+01  0.51100000000E-03 0.  1.
        -12    1    3    3    0    0 -0.18847059103E+02  0.26175400700E+02  0.25428740633E+02  0.41072911862E+02  0.00000000000E+00 0.  1.
</event>
<event>
 7    1  0.5479172E-013  0.5052886E+02  0.7816164E-02  0.1300439E+00
        -11   -1    0    0    0    0  0.00000000000E+00  0.00000000000E+00  0.45593999997E+02  0.45594000000E+02  0.51100000000E-03 0.  1.
         11   -1    0    0    0    0 -0.00000000000E+00 -0.00000000000E+00 -0.45593999997E+02  0.45594000000E+02  0.51100000000E-03 0. -1.
    9900012    2    1    2    0    0 -0.19131370762E+02  0.17427469523E+02  0.31359842651E+02  0.50528858687E+02  0.29999996465E+02 0.  0.
         12    1    1    2    0    0  0.19131370762E+02 -0.17427469523E+02 -0.31359842651E+02  0.40659141313E+02  0.00000000000E+00 0. -1.
         11    1    3    3    0    0 -0.78873531541E+01  0.75628801714E+01  0.23510203495E+01  0.11177423371E+02  0.51100000000E-03 0. -1.
        -11    1    3    3    0    0 -0.34641740299E+01  0.15954058752E+01 -0.33389865708E+01  0.50689893664E+01  0.51100000000E-03 0.  1.
        -12    1    3    3    0    0 -0.77798435785E+01  0.82691834766E+01  0.32347808872E+02  0.34282445950E+02  0.00000000000E+00 0.  1.
</event>
<event>
 7    1  0.5479172E-013  0.5052899E+02  0.7816164E-02  0.1300438E+00
        -11   -1    0    0    0    0  0.00000000000E+00  0.00000000000E+00  0.45593999997E+02  0.45594000000E+02  0.51100000000E-03 0. -1.
         11   -1    0    0    0    0 -0.00000000000E+00 -0.00000000000E+00 -0.45593999997E+02  0.45594000000E+02  0.51100000000E-03 0.  1.
    9900012    2    1    2    0    0  0.49631444943E+01  0.17204111375E+02 -0.36503987933E+02  0.50528986405E+02  0.30000384675E+02 0.  0.
         12    1    1    2    0    0 -0.49631444943E+01 -0.17204111375E+02  0.36503987933E+02  0.40659013595E+02  0.00000000000E+00 0. -1.
         11    1    3    3    0    0  0.87280897498E+01  0.80505919294E+01 -0.33435624673E+01  0.12335760671E+02  0.51100000000E-03 0. -1.
        -11    1    3    3    0    0  0.58035568101E+01  0.22683129260E+01 -0.17608576359E+02  0.18678556605E+02  0.51100000000E-03 0.  1.
        -12    1    3    3    0    0 -0.95685020655E+01  0.68852065193E+01 -0.15551849107E+02  0.19514669129E+02  0.00000000000E+00 0.  1.
</event>
<event>
 7    1  0.5479172E-013  0.5052889E+02  0.7816164E-02  0.1300439E+00
        -11   -1    0    0    0    0  0.00000000000E+00  0.00000000000E+00  0.45593999997E+02  0.45594000000E+02  0.51100000000E-03 0. -1.
         11   -1    0    0    0    0 -0.00000000000E+00 -0.00000000000E+00 -0.45593999997E+02  0.45594000000E+02  0.51100000000E-03 0.  1.
    9900012    2    1    2    0    0 -0.25536854938E+02  0.19734591758E+02 -0.24730112320E+02  0.50528886294E+02  0.30000080380E+02 0.  0.
         12    1    1    2    0    0  0.25536854938E+02 -0.19734591758E+02  0.24730112320E+02  0.40659113706E+02  0.00000000000E+00 0. -1.
         11    1    3    3    0    0 -0.21041600604E+01  0.63334553897E+01 -0.14457077193E+02  0.15923166393E+02  0.51100000000E-03 0. -1.
        -11    1    3    3    0    0 -0.31033136000E+01  0.10360374474E+02 -0.88965309802E+01  0.14004148610E+02  0.51100000000E-03 0.  1.
         12    1    3    3    0    0 -0.20329381278E+02  0.30407618948E+01 -0.13765041460E+01  0.20601571292E+02  0.00000000000E+00 0. -1.
</event>
<event>
 7    1  0.5479172E-013  0.5052886E+02  0.7816164E-02  0.1300439E+00
        -11   -1    0    0    0    0  0.00000000000E+00  0.00000000000E+00  0.45593999997E+02  0.45594000000E+02  0.51100000000E-03 0.  1.
         11   -1    0    0    0    0 -0.00000000000E+00 -0.00000000000E+00 -0.45593999997E+02  0.45594000000E+02  0.51100000000E-03 0. -1.
    9900012    2    1    2    0    0 -0.20173023027E+02  0.87044946676E+01  0.34211787212E+02  0.50528862408E+02  0.30000007776E+02 0.  0.
         12    1    1    2    0    0  0.20173023027E+02 -0.87044946676E+01 -0.34211787212E+02  0.40659137592E+02  0.00000000000E+00 0. -1.
         11    1    3    3    0    0 -0.13595055222E+02  0.11771421797E+02  0.10919444851E+02  0.21038682794E+02  0.51100000000E-03 0. -1.
        -11    1    3    3    0    0 -0.10478700175E+02  0.92125764411E+00  0.80105708402E+01  0.13221993740E+02  0.51100000000E-03 0.  1.
         12    1    3    3    0    0  0.39007323702E+01 -0.39881847732E+01  0.15281771521E+02  0.16268185874E+02  0.00000000000E+00 0. -1.
</event>
<event>
 7    1  0.5479172E-013  0.5052886E+02  0.7816164E-02  0.1300439E+00
        -11   -1    0    0    0    0  0.00000000000E+00  0.00000000000E+00  0.45593999997E+02  0.45594000000E+02  0.51100000000E-03 0.  1.
         11   -1    0    0    0    0 -0.00000000000E+00 -0.00000000000E+00 -0.45593999997E+02  0.45594000000E+02  0.51100000000E-03 0. -1.
    9900012    2    1    2    0    0  0.32933127611E+02 -0.20939786390E+02  0.11406137201E+02  0.50528861862E+02  0.30000006116E+02 0.  0.
         12    1    1    2    0    0 -0.32933127611E+02  0.20939786390E+02 -0.11406137201E+02  0.40659138138E+02  0.00000000000E+00 0. -1.
         11    1    3    3    0    0  0.18208539321E+02 -0.17136540179E+02  0.86395683336E+00  0.25019159362E+02  0.51100000000E-03 0. -1.
        -11    1    3    3    0    0  0.89744317067E+01 -0.79698309210E+01  0.13279057522E+02  0.17899497152E+02  0.51100000000E-03 0.  1.
        -12    1    3    3    0    0  0.57501565830E+01  0.41665847105E+01 -0.27368771541E+01  0.76102053478E+01  0.00000000000E+00 0.  1.
</event>
<event>
 7    1  0.5479172E-013  0.5052881E+02  0.7816164E-02  0.1300439E+00
        -11   -1    0    0    0    0  0.00000000000E+00  0.00000000000E+00  0.45593999997E+02  0.45594000000E+02  0.51100000000E-03 0. -1.
         11   -1    0    0    0    0 -0.00000000000E+00 -0.00000000000E+00 -0.45593999997E+02  0.45594000000E+02  0.51100000000E-03 0.  1.
    9900012    2    1    2    0    0 -0.93568384212E+00 -0.34460982650E+02 -0.21557705102E+02  0.50528813108E+02  0.29999857923E+02 0.  0.
         12    1    1    2    0    0  0.93568384212E+00  0.34460982650E+02  0.21557705102E+02  0.40659186892E+02  0.00000000000E+00 0. -1.
         11    1    3    3    0    0  0.81813806622E+00  0.11937202915E+01 -0.19100803199E+01  0.23963983641E+01  0.51100000000E-03 0. -1.
        -11    1    3    3    0    0  0.77003327752E+01 -0.12993032379E+02 -0.18036293969E+02  0.23524921162E+02  0.51100000000E-03 0.  1.
        -12    1    3    3    0    0 -0.94541546836E+01 -0.22661670562E+02 -0.16113308133E+01  0.24607493583E+02  0.00000000000E+00 0.  1.
</event>
<event>
 7    1  0.5479172E-013  0.5052885E+02  0.7816164E-02  0.1300439E+00
        -11   -1    0    0    0    0  0.00000000000E+00  0.00000000000E+00  0.45593999997E+02  0.45594000000E+02  0.51100000000E-03 0.  1.
         11   -1    0    0    0    0 -0.00000000000E+00 -0.00000000000E+00 -0.45593999997E+02  0.45594000000E+02  0.51100000000E-03 0. -1.
    9900012    2    1    2    0    0 -0.49391242094E+01 -0.78824282420E+01  0.39580786839E+02  0.50528852078E+02  0.29999976377E+02 0.  0.
         12    1    1    2    0    0  0.49391242094E+01  0.78824282420E+01 -0.39580786839E+02  0.40659147922E+02  0.00000000000E+00 0. -1.
         11    1    3    3    0    0  0.65307236108E+01  0.44821944951E+01  0.12081449070E+02  0.14446516198E+02  0.51100000000E-03 0. -1.
        -11    1    3    3    0    0  0.37962269123E+01 -0.52117680445E+01  0.87355434314E+01  0.10857420698E+02  0.51100000000E-03 0.  1.
        -12    1    3    3    0    0 -0.15266074732E+02 -0.71528546926E+01  0.18763794337E+02  0.25224915181E+02  0.00000000000E+00 0.  1.
</event>
<event>
 7    1  0.5479172E-013  0.5052885E+02  0.7816164E-02  0.1300439E+00
        -11   -1    0    0    0    0  0.00000000000E+00  0.00000000000E+00  0.45593999997E+02  0.45594000000E+02  0.51100000000E-03 0.  1.
         11   -1    0    0    0    0 -0.00000000000E+00 -0.00000000000E+00 -0.45593999997E+02  0.45594000000E+02  0.51100000000E-03 0. -1.
    9900012    2    1    2    0    0  0.39204273243E+01 -0.25999615608E+02  0.31013165448E+02  0.50528853510E+02  0.29999980730E+02 0.  0.
         12    1    1    2    0    0 -0.39204273243E+01  0.25999615608E+02 -0.31013165448E+02  0.40659146490E+02  0.00000000000E+00 0. -1.
         11    1    3    3    0    0  0.23987175223E+01  0.38602739718E+00 -0.45617011100E+00  0.24720344525E+01  0.51100000000E-03 0. -1.
        -11    1    3    3    0    0  0.10839670774E+02 -0.39236837973E+01  0.13887578068E+02  0.18048783390E+02  0.51100000000E-03 0.  1.
        -12    1    3    3    0    0 -0.93179609718E+01 -0.22461959208E+02  0.17581757491E+02  0.30008035667E+02  0.00000000000E+00 0.  1.
</event>
<event>
 7    1  0.5479172E-013  0.5052891E+02  0.7816164E-02  0.1300439E+00
        -11   -1    0    0    0    0  0.00000000000E+00  0.00000000000E+00  0.45593999997E+02  0.45594000000E+02  0.51100000000E-03 0.  1.
         11   -1    0    0    0    0 -0.00000000000E+00 -0.00000000000E+00 -0.45593999997E+02  0.45594000000E+02  0.51100000000E-03 0. -1.
    9900012    2    1    2    0    0  0.12576563320E+02  0.83411886526E+01  0.37754685493E+02  0.50528909384E+02  0.30000150563E+02 0.  0.
         12    1    1    2    0    0 -0.12576563320E+02 -0.83411886526E+01 -0.37754685493E+02  0.40659090616E+02  0.00000000000E+00 0. -1.
         11    1    3    3    0    0  0.66473855331E-01 -0.12612665474E-01  0.83037370272E+00  0.83312580086E+00  0.51100000000E-03 0. -1.
        -11    1    3    3    0    0  0.13289958774E+02  0.18780225906E+01  0.40211012935E+02  0.42391927705E+02  0.51100000000E-03 0.  1.
         12    1    3    3    0    0 -0.77986930938E+00  0.64757787274E+01 -0.32867011450E+01  0.73038558778E+01  0.00000000000E+00 0. -1.
</event>
<event>
 7    1  0.5479172E-013  0.5052890E+02  0.7816164E-02  0.1300439E+00
        -11   -1    0    0    0    0  0.00000000000E+00  0.00000000000E+00  0.45593999997E+02  0.45594000000E+02  0.51100000000E-03 0.  1.
         11   -1    0    0    0    0 -0.00000000000E+00 -0.00000000000E+00 -0.45593999997E+02  0.45594000000E+02  0.51100000000E-03 0. -1.
    9900012    2    1    2    0    0 -0.33658450702E+02  0.15342841172E+02  0.16878034250E+02  0.50528903613E+02  0.30000133022E+02 0.  0.
         12    1    1    2    0    0  0.33658450702E+02 -0.15342841172E+02 -0.16878034250E+02  0.40659096387E+02  0.00000000000E+00 0. -1.
         11    1    3    3    0    0 -0.71502806534E+00 -0.16302521041E+01  0.86897177818E+01  0.88701850289E+01  0.51100000000E-03 0.  1.
        -11    1    3    3    0    0 -0.13300664897E+02  0.12835760006E+02  0.10812207304E+02  0.21414206702E+02  0.51100000000E-03 0. -1.
         12    1    3    3    0    0 -0.19642757740E+02  0.41373332697E+01 -0.26238908366E+01  0.20244511882E+02  0.00000000000E+00 0. -1.
</event>
<event>
 7    1  0.5479172E-013  0.5052886E+02  0.7816164E-02  0.1300439E+00
        -11   -1    0    0    0    0  0.00000000000E+00  0.00000000000E+00  0.45593999997E+02  0.45594000000E+02  0.51100000000E-03 0.  1.
         11   -1    0    0    0    0 -0.00000000000E+00 -0.00000000000E+00 -0.45593999997E+02  0.45594000000E+02  0.51100000000E-03 0. -1.
    9900012    2    1    2    0    0 -0.23236066865E+02  0.29640040318E+02  0.15320542537E+02  0.50528858137E+02  0.29999994793E+02 0.  0.
         12    1    1    2    0    0  0.23236066865E+02 -0.29640040318E+02 -0.15320542537E+02  0.40659141863E+02  0.00000000000E+00 0. -1.
         11    1    3    3    0    0 -0.78616156815E+01  0.37855682431E+01  0.11387857224E+01  0.87995659682E+01  0.51100000000E-03 0. -1.
        -11    1    3    3    0    0 -0.17001873672E+02  0.13308072234E+02  0.18426245697E+02  0.28384767494E+02  0.51100000000E-03 0.  1.
        -12    1    3    3    0    0  0.16274224888E+01  0.12546399841E+02 -0.42444888822E+01  0.13344524675E+02  0.00000000000E+00 0.  1.
</event>
<event>
 7    1  0.5479172E-013  0.5052886E+02  0.7816164E-02  0.1300439E+00
        -11   -1    0    0    0    0  0.00000000000E+00  0.00000000000E+00  0.45593999997E+02  0.45594000000E+02  0.51100000000E-03 0.  1.
         11   -1    0    0    0    0 -0.00000000000E+00 -0.00000000000E+00 -0.45593999997E+02  0.45594000000E+02  0.51100000000E-03 0. -1.
    9900012    2    1    2    0    0  0.24627225573E+02  0.42904775687E+01  0.32066447129E+02  0.50528862421E+02  0.30000007816E+02 0.  0.
         12    1    1    2    0    0 -0.24627225573E+02 -0.42904775687E+01 -0.32066447129E+02  0.40659137579E+02  0.00000000000E+00 0. -1.
         11    1    3    3    0    0 -0.21332221885E+01 -0.10788297949E+01 -0.17400774933E+01  0.29567516933E+01  0.51100000000E-03 0. -1.
        -11    1    3    3    0    0  0.10808693929E+02 -0.66660987493E+01  0.83032569827E+01  0.15172633712E+02  0.51100000000E-03 0.  1.
        -12    1    3    3    0    0  0.15951753832E+02  0.12035406113E+02  0.25503267639E+02  0.32399477016E+02  0.00000000000E+00 0.  1.
</event>
<event>
 7    1  0.5479172E-013  0.5052886E+02  0.7816164E-02  0.1300439E+00
        -11   -1    0    0    0    0  0.00000000000E+00  0.00000000000E+00  0.45593999997E+02  0.45594000000E+02  0.51100000000E-03 0. -1.
         11   -1    0    0    0    0 -0.00000000000E+00 -0.00000000000E+00 -0.45593999997E+02  0.45594000000E+02  0.51100000000E-03 0.  1.
    9900012    2    1    2    0    0  0.37333368160E+02 -0.15981069224E+02  0.19976742460E+01  0.50528860141E+02  0.30000000884E+02 0.  0.
         12    1    1    2    0    0 -0.37333368160E+02  0.15981069224E+02 -0.19976742460E+01  0.40659139859E+02  0.00000000000E+00 0. -1.
         11    1    3    3    0    0  0.12325594034E+02 -0.11786976535E+02 -0.10912621369E+02  0.20246935312E+02  0.51100000000E-03 0.  1.
        -11    1    3    3    0    0  0.19048449538E+02 -0.32084284646E+01  0.43423005923E+01  0.19798813543E+02  0.51100000000E-03 0. -1.
        -12    1    3    3    0    0  0.59593245876E+01 -0.98566422403E+00  0.85679950230E+01  0.10483111285E+02  0.00000000000E+00 0.  1.
</event>
<event>
 7    1  0.5479172E-013  0.5052888E+02  0.7816164E-02  0.1300439E+00
        -11   -1    0    0    0    0  0.00000000000E+00  0.00000000000E+00  0.45593999997E+02  0.45594000000E+02  0.51100000000E-03 0. -1.
         11   -1    0    0    0    0 -0.00000000000E+00 -0.00000000000E+00 -0.45593999997E+02  0.45594000000E+02  0.51100000000E-03 0.  1.
    9900012    2    1    2    0    0 -0.40572658357E+02 -0.20662082442E+01  0.16596632756E+01  0.50528876733E+02  0.30000051318E+02 0.  0.
         12    1    1    2    0    0  0.40572658357E+02  0.20662082442E+01 -0.16596632756E+01  0.40659123267E+02  0.00000000000E+00 0. -1.
         11    1    3    3    0    0 -0.18878106387E+02 -0.26155286334E+01 -0.32636999720E+01  0.19335863791E+02  0.51100000000E-03 0. -1.
        -11    1    3    3    0    0 -0.25996479748E+02  0.25477252741E+00  0.61394337536E+01  0.26712815565E+02  0.51100000000E-03 0.  1.
         12    1    3    3    0    0  0.43019277789E+01  0.29454786176E+00 -0.12160705061E+01  0.44801973766E+01  0.00000000000E+00 0. -1.
</event>
<event>
 7    1  0.5479172E-013  0.5052886E+02  0.7816164E-02  0.1300439E+00
        -11   -1    0    0    0    0  0.00000000000E+00  0.00000000000E+00  0.45593999997E+02  0.45594000000E+02  0.51100000000E-03 0.  1.
         11   -1    0    0    0    0 -0.00000000000E+00 -0.00000000000E+00 -0.45593999997E+02  0.45594000000E+02  0.51100000000E-03 0. -1.
    9900012    2    1    2    0    0  0.28797966633E+02 -0.23618822570E+02 -0.16309329751E+02  0.50528857132E+02  0.29999991739E+02 0.  0.
         12    1    1    2    0    0 -0.28797966633E+02  0.23618822570E+02  0.16309329751E+02  0.40659142868E+02  0.00000000000E+00 0. -1.
         11    1    3    3    0    0  0.56171886985E+01 -0.69638519170E+01 -0.28697764719E+01  0.93959384660E+01  0.51100000000E-03 0. -1.
        -11    1    3    3    0    0  0.19139061327E+02 -0.23248405314E+02 -0.14328950884E+02  0.33348326072E+02  0.51100000000E-03 0.  1.
         12    1    3    3    0    0  0.40417166072E+01  0.65934346606E+01  0.88939760441E+00  0.77845925940E+01  0.00000000000E+00 0. -1.
</event>
<event>
 7    1  0.5479172E-013  0.5052886E+02  0.7816164E-02  0.1300439E+00
        -11   -1    0    0    0    0  0.00000000000E+00  0.00000000000E+00  0.45593999997E+02  0.45594000000E+02  0.51100000000E-03 0. -1.
         11   -1    0    0    0    0 -0.00000000000E+00 -0.00000000000E+00 -0.45593999997E+02  0.45594000000E+02  0.51100000000E-03 0.  1.
    9900012    2    1    2    0    0 -0.21569179001E+02 -0.77862137530E+01 -0.33575452931E+02  0.50528860229E+02  0.30000001153E+02 0.  0.
         12    1    1    2    0    0  0.21569179001E+02  0.77862137530E+01  0.33575452931E+02  0.40659139771E+02  0.00000000000E+00 0. -1.
         11    1    3    3    0    0 -0.13714362833E+02  0.48346392474E+01 -0.14637261955E+02  0.20632666390E+02  0.51100000000E-03 0. -1.
        -11    1    3    3    0    0 -0.10552120953E+02 -0.10356720641E+02 -0.21099477967E+02  0.25764256049E+02  0.51100000000E-03 0.  1.
         12    1    3    3    0    0  0.26973047850E+01 -0.22641323599E+01  0.21612869906E+01  0.41319377901E+01  0.00000000000E+00 0. -1.
</event>
<event>
 7    1  0.5479172E-013  0.5052887E+02  0.7816164E-02  0.1300439E+00
        -11   -1    0    0    0    0  0.00000000000E+00  0.00000000000E+00  0.45593999997E+02  0.45594000000E+02  0.51100000000E-03 0. -1.
         11   -1    0    0    0    0 -0.00000000000E+00 -0.00000000000E+00 -0.45593999997E+02  0.45594000000E+02  0.51100000000E-03 0.  1.
    9900012    2    1    2    0    0  0.37390622308E+02  0.79032423104E+01 -0.13879670580E+02  0.50528866574E+02  0.30000020437E+02 0.  0.
         12    1    1    2    0    0 -0.37390622308E+02 -0.79032423104E+01  0.13879670580E+02  0.40659133426E+02  0.00000000000E+00 0. -1.
         11    1    3    3    0    0 -0.21444904099E+01  0.50741180735E+00 -0.10173690584E+01  0.24272094929E+01  0.51100000000E-03 0. -1.
        -11    1    3    3    0    0 -0.64975514506E+00 -0.43982837581E+01 -0.16979390851E+01  0.47592099306E+01  0.51100000000E-03 0.  1.
         12    1    3    3    0    0  0.40184867863E+02  0.11794114261E+02 -0.11164362437E+02  0.43342447150E+02  0.00000000000E+00 0. -1.
</event>
<event>
 7    1  0.5479172E-013  0.5052886E+02  0.7816164E-02  0.1300439E+00
        -11   -1    0    0    0    0  0.00000000000E+00  0.00000000000E+00  0.45593999997E+02  0.45594000000E+02  0.51100000000E-03 0. -1.
         11   -1    0    0    0    0 -0.00000000000E+00 -0.00000000000E+00 -0.45593999997E+02  0.45594000000E+02  0.51100000000E-03 0.  1.
    9900012    2    1    2    0    0  0.38197282238E+01  0.25200017395E+02 -0.31678614229E+02  0.50528858348E+02  0.29999995434E+02 0.  0.
         12    1    1    2    0    0 -0.38197282238E+01 -0.25200017395E+02  0.31678614229E+02  0.40659141652E+02  0.00000000000E+00 0. -1.
         11    1    3    3    0    0  0.50987666000E+00 -0.23001721595E+01  0.29590527593E+01  0.37824277475E+01  0.51100000000E-03 0. -1.
        -11    1    3    3    0    0 -0.37245655315E+01  0.36726310769E+01 -0.17214355597E+01  0.55067184487E+01  0.51100000000E-03 0.  1.
        -12    1    3    3    0    0  0.70344170954E+01  0.23827558478E+02 -0.32916231429E+02  0.41239712152E+02  0.00000000000E+00 0.  1.
</event>
<event>
 7    1  0.5479172E-013  0.5052886E+02  0.7816164E-02  0.1300439E+00
        -11   -1    0    0    0    0  0.00000000000E+00  0.00000000000E+00  0.45593999997E+02  0.45594000000E+02  0.51100000000E-03 0.  1.
         11   -1    0    0    0    0 -0.00000000000E+00 -0.00000000000E+00 -0.45593999997E+02  0.45594000000E+02  0.51100000000E-03 0. -1.
    9900012    2    1    2    0    0  0.94393355108E+01 -0.97114529596E+01  0.38337349884E+02  0.50528858721E+02  0.29999996567E+02 0.  0.
         12    1    1    2    0    0 -0.94393355108E+01  0.97114529596E+01 -0.38337349884E+02  0.40659141279E+02  0.00000000000E+00 0. -1.
         11    1    3    3    0    0  0.63316396464E+01  0.66054360815E+01  0.72728348108E+01  0.11688266462E+02  0.51100000000E-03 0. -1.
        -11    1    3    3    0    0 -0.66248201518E+01 -0.65519473776E+01  0.15138024438E+02  0.17775714912E+02  0.51100000000E-03 0.  1.
        -12    1    3    3    0    0  0.97325160163E+01 -0.97649416635E+01  0.15926490635E+02  0.21064877347E+02  0.00000000000E+00 0.  1.
</event>
<event>
 7    1  0.5479172E-013  0.5052886E+02  0.7816164E-02  0.1300439E+00
        -11   -1    0    0    0    0  0.00000000000E+00  0.00000000000E+00  0.45593999997E+02  0.45594000000E+02  0.51100000000E-03 0.  1.
         11   -1    0    0    0    0 -0.00000000000E+00 -0.00000000000E+00 -0.45593999997E+02  0.45594000000E+02  0.51100000000E-03 0. -1.
    9900012    2    1    2    0    0 -0.55657711656E+01  0.10153765581E+02  0.38975489390E+02  0.50528861577E+02  0.30000005249E+02 0.  0.
         12    1    1    2    0    0  0.55657711656E+01 -0.10153765581E+02 -0.38975489390E+02  0.40659138423E+02  0.00000000000E+00 0. -1.
         11    1    3    3    0    0  0.48486615492E+01 -0.38122132136E+01  0.85894829922E+01  0.10574578324E+02  0.51100000000E-03 0. -1.
        -11    1    3    3    0    0 -0.10392028243E+02  0.12532316422E+01  0.50808411246E+01  0.11635282006E+02  0.51100000000E-03 0.  1.
        -12    1    3    3    0    0 -0.22404471558E-01  0.12712747153E+02  0.25305165273E+02  0.28319001247E+02  0.00000000000E+00 0.  1.
</event>
<event>
 7    1  0.5479172E-013  0.5052882E+02  0.7816164E-02  0.1300439E+00
        -11   -1    0    0    0    0  0.00000000000E+00  0.00000000000E+00  0.45593999997E+02  0.45594000000E+02  0.51100000000E-03 0.  1.
         11   -1    0    0    0    0 -0.00000000000E+00 -0.00000000000E+00 -0.45593999997E+02  0.45594000000E+02  0.51100000000E-03 0. -1.
    9900012    2    1    2    0    0 -0.38927084571E+02  0.52866199262E+01  0.10483436727E+02  0.50528822572E+02  0.29999886691E+02 0.  0.
         12    1    1    2    0    0  0.38927084571E+02 -0.52866199262E+01 -0.10483436727E+02  0.40659177428E+02  0.00000000000E+00 0. -1.
         11    1    3    3    0    0  0.47300242570E+00 -0.83079176737E+00  0.50280944039E+01  0.51181715339E+01  0.51100000000E-03 0. -1.
        -11    1    3    3    0    0 -0.10001890381E+02  0.24024838496E+01  0.11221620750E+02  0.15222828658E+02  0.51100000000E-03 0.  1.
        -12    1    3    3    0    0 -0.29398196616E+02  0.37149278440E+01 -0.57662784269E+01  0.30187822380E+02  0.00000000000E+00 0.  1.
</event>
<event>
 7    1  0.5479172E-013  0.5052891E+02  0.7816164E-02  0.1300439E+00
        -11   -1    0    0    0    0  0.00000000000E+00  0.00000000000E+00  0.45593999997E+02  0.45594000000E+02  0.51100000000E-03 0.  1.
         11   -1    0    0    0    0 -0.00000000000E+00 -0.00000000000E+00 -0.45593999997E+02  0.45594000000E+02  0.51100000000E-03 0. -1.
    9900012    2    1    2    0    0 -0.16005167952E+02  0.35250342975E+02  0.12426174575E+02  0.50528906360E+02  0.30000141373E+02 0.  0.
         12    1    1    2    0    0  0.16005167952E+02 -0.35250342975E+02 -0.12426174575E+02  0.40659093640E+02  0.00000000000E+00 0. -1.
         11    1    3    3    0    0 -0.67429931935E+01  0.25508214781E+01  0.48114333914E+01  0.86674413157E+01  0.51100000000E-03 0. -1.
        -11    1    3    3    0    0 -0.13610761077E+01  0.27717977066E+01 -0.69856239043E+01  0.76376915551E+01  0.51100000000E-03 0.  1.
        -12    1    3    3    0    0 -0.79010986503E+01  0.29927723790E+02  0.14600365088E+02  0.34223773490E+02  0.00000000000E+00 0.  1.
</event>
<event>
 7    1  0.5479172E-013  0.5052886E+02  0.7816164E-02  0.1300439E+00
        -11   -1    0    0    0    0  0.00000000000E+00  0.00000000000E+00  0.45593999997E+02  0.45594000000E+02  0.51100000000E-03 0.  1.
         11   -1    0    0    0    0 -0.00000000000E+00 -0.00000000000E+00 -0.45593999997E+02  0.45594000000E+02  0.51100000000E-03 0. -1.
    9900012    2    1    2    0    0 -0.27202057552E+02 -0.27586684202E+02  0.12336459353E+02  0.50528864376E+02  0.30000013757E+02 0.  0.
         12    1    1    2    0    0  0.27202057552E+02  0.27586684202E+02 -0.12336459353E+02  0.40659135624E+02  0.00000000000E+00 0. -1.
         11    1    3    3    0    0 -0.20890914149E+01 -0.63778060361E+00  0.91947643985E+00  0.23699165012E+01  0.51100000000E-03 0. -1.
        -11    1    3    3    0    0 -0.13100230965E+02 -0.78996435955E+01  0.19002607656E+02  0.24395071598E+02  0.51100000000E-03 0.  1.
         12    1    3    3    0    0 -0.12012735172E+02 -0.19049260003E+02 -0.75856247425E+01  0.23763876277E+02  0.00000000000E+00 0. -1.
</event>
<event>
 7    1  0.5479172E-013  0.5052885E+02  0.7816164E-02  0.1300439E+00
        -11   -1    0    0    0    0  0.00000000000E+00  0.00000000000E+00  0.45593999997E+02  0.45594000000E+02  0.51100000000E-03 0.  1.
         11   -1    0    0    0    0 -0.00000000000E+00 -0.00000000000E+00 -0.45593999997E+02  0.45594000000E+02  0.51100000000E-03 0. -1.
    9900012    2    1    2    0    0 -0.33475713591E+02  0.16984520436E+02  0.15622720897E+02  0.50528846749E+02  0.29999960179E+02 0.  0.
         12    1    1    2    0    0  0.33475713591E+02 -0.16984520436E+02 -0.15622720897E+02  0.40659153251E+02  0.00000000000E+00 0. -1.
         11    1    3    3    0    0 -0.41461592459E+01 -0.39838591968E+01  0.56804050890E+00  0.57779270395E+01  0.51100000000E-03 0.  1.
        -11    1    3    3    0    0 -0.18588356003E-01 -0.37339810476E+01  0.58869396695E+00  0.37801482562E+01  0.51100000000E-03 0. -1.
        -12    1    3    3    0    0 -0.29310965989E+02  0.24702360680E+02  0.14465986421E+02  0.40970771454E+02  0.00000000000E+00 0.  1.
</event>
<event>
 7    1  0.5479172E-013  0.5052885E+02  0.7816164E-02  0.1300439E+00
        -11   -1    0    0    0    0  0.00000000000E+00  0.00000000000E+00  0.45593999997E+02  0.45594000000E+02  0.51100000000E-03 0. -1.
         11   -1    0    0    0    0 -0.00000000000E+00 -0.00000000000E+00 -0.45593999997E+02  0.45594000000E+02  0.51100000000E-03 0.  1.
    9900012    2    1    2    0    0  0.96581619941E+01 -0.33633187590E+02 -0.20704951641E+02  0.50528850685E+02  0.29999972142E+02 0.  0.
         12    1    1    2    0    0 -0.96581619941E+01  0.33633187590E+02  0.20704951641E+02  0.40659149315E+02  0.00000000000E+00 0. -1.
         11    1    3    3    0    0 -0.13223692965E+01 -0.19883832851E+02 -0.37362643625E+01  0.20274988065E+02  0.51100000000E-03 0. -1.
        -11    1    3    3    0    0  0.25086114289E+01 -0.15625076489E+02 -0.78453696086E+01  0.17663124614E+02  0.51100000000E-03 0.  1.
         12    1    3    3    0    0  0.84719198617E+01  0.18757217496E+01 -0.91233176696E+01  0.12590738006E+02  0.00000000000E+00 0. -1.
</event>
<event>
 7    1  0.5479172E-013  0.5052887E+02  0.7816164E-02  0.1300439E+00
        -11   -1    0    0    0    0  0.00000000000E+00  0.00000000000E+00  0.45593999997E+02  0.45594000000E+02  0.51100000000E-03 0. -1.
         11   -1    0    0    0    0 -0.00000000000E+00 -0.00000000000E+00 -0.45593999997E+02  0.45594000000E+02  0.51100000000E-03 0.  1.
    9900012    2    1    2    0    0 -0.34884622472E+02  0.35107793516E+01 -0.20588889517E+02  0.50528870297E+02  0.30000031755E+02 0.  0.
         12    1    1    2    0    0  0.34884622472E+02 -0.35107793516E+01  0.20588889517E+02  0.40659129703E+02  0.00000000000E+00 0. -1.
         11    1    3    3    0    0 -0.83071890651E+01  0.73350232094E+01 -0.45711896718E+01  0.11987815936E+02  0.51100000000E-03 0. -1.
        -11    1    3    3    0    0 -0.23246772411E+02  0.64207562228E+01 -0.93167813662E+01  0.25854225057E+02  0.51100000000E-03 0.  1.
        -12    1    3    3    0    0 -0.33306609956E+01 -0.10245000081E+02 -0.67009184791E+01  0.12686829304E+02  0.00000000000E+00 0.  1.
</event>
<event>
 7    1  0.5479172E-013  0.5052883E+02  0.7816164E-02  0.1300439E+00
        -11   -1    0    0    0    0  0.00000000000E+00  0.00000000000E+00  0.45593999997E+02  0.45594000000E+02  0.51100000000E-03 0.  1.
         11   -1    0    0    0    0 -0.00000000000E+00 -0.00000000000E+00 -0.45593999997E+02  0.45594000000E+02  0.51100000000E-03 0. -1.
    9900012    2    1    2    0    0 -0.51854858789E+01 -0.39621180679E+01  0.40132035787E+02  0.50528832033E+02  0.29999915446E+02 0.  0.
         12    1    1    2    0    0  0.51854858789E+01  0.39621180679E+01 -0.40132035787E+02  0.40659167967E+02  0.00000000000E+00 0. -1.
         11    1    3    3    0    0 -0.15862096922E+01  0.64700607374E+01  0.82307675056E+01  0.10588828128E+02  0.51100000000E-03 0. -1.
        -11    1    3    3    0    0 -0.11851965147E+02 -0.47764723059E+01  0.11385190614E+02  0.17114506452E+02  0.51100000000E-03 0.  1.
        -12    1    3    3    0    0  0.82526889600E+01 -0.56557064995E+01  0.20516077668E+02  0.22825497452E+02  0.00000000000E+00 0.  1.
</event>
<event>
 7    1  0.5479172E-013  0.5052887E+02  0.7816164E-02  0.1300439E+00
        -11   -1    0    0    0    0  0.00000000000E+00  0.00000000000E+00  0.45593999997E+02  0.45594000000E+02  0.51100000000E-03 0. -1.
         11   -1    0    0    0    0 -0.00000000000E+00 -0.00000000000E+00 -0.45593999997E+02  0.45594000000E+02  0.51100000000E-03 0.  1.
    9900012    2    1    2    0    0 -0.60685334375E+00  0.23396490881E+02 -0.33247569453E+02  0.50528869032E+02  0.30000027910E+02 0.  0.
         12    1    1    2    0    0  0.60685334375E+00 -0.23396490881E+02  0.33247569453E+02  0.40659130968E+02  0.00000000000E+00 0. -1.
         11    1    3    3    0    0 -0.22627392519E+01  0.11703548455E+01  0.27258887489E+01  0.37309769657E+01  0.51100000000E-03 0.  1.
        -11    1    3    3    0    0 -0.64076139262E+01  0.12058407665E+02 -0.76712071692E+01  0.15662379492E+02  0.51100000000E-03 0. -1.
        -12    1    3    3    0    0  0.80634998343E+01  0.10167728370E+02 -0.28302251032E+02  0.31135512575E+02  0.00000000000E+00 0.  1.
</event>
<event>
 7    1  0.5479172E-013  0.5052886E+02  0.7816164E-02  0.1300439E+00
        -11   -1    0    0    0    0  0.00000000000E+00  0.00000000000E+00  0.45593999997E+02  0.45594000000E+02  0.51100000000E-03 0.  1.
         11   -1    0    0    0    0 -0.00000000000E+00 -0.00000000000E+00 -0.45593999997E+02  0.45594000000E+02  0.51100000000E-03 0. -1.
    9900012    2    1    2    0    0 -0.16541789100E+02 -0.28860586785E+02  0.23379513474E+02  0.50528857037E+02  0.29999991451E+02 0.  0.
         12    1    1    2    0    0  0.16541789100E+02  0.28860586785E+02 -0.23379513474E+02  0.40659142963E+02  0.00000000000E+00 0. -1.
         11    1    3    3    0    0 -0.74906305627E+01 -0.11922445361E+02  0.15805377214E+02  0.21167526987E+02  0.51100000000E-03 0. -1.
        -11    1    3    3    0    0 -0.29975447191E+01 -0.52726435592E+01  0.13608971923E+02  0.14899334263E+02  0.51100000000E-03 0.  1.
         12    1    3    3    0    0 -0.60536138179E+01 -0.11665497864E+02 -0.60348356618E+01  0.14461995787E+02  0.00000000000E+00 0. -1.
</event>
<event>
 7    1  0.5479172E-013  0.5052886E+02  0.7816164E-02  0.1300439E+00
        -11   -1    0    0    0    0  0.00000000000E+00  0.00000000000E+00  0.45593999997E+02  0.45594000000E+02  0.51100000000E-03 0. -1.
         11   -1    0    0    0    0 -0.00000000000E+00 -0.00000000000E+00 -0.45593999997E+02  0.45594000000E+02  0.51100000000E-03 0.  1.
    9900012    2    1    2    0    0 -0.11724950131E+02  0.31856205407E+02 -0.22380205059E+02  0.50528857645E+02  0.29999993299E+02 0.  0.
         12    1    1    2    0    0  0.11724950131E+02 -0.31856205407E+02  0.22380205059E+02  0.40659142355E+02  0.00000000000E+00 0. -1.
         11    1    3    3    0    0 -0.18589029491E+01  0.17777230815E+02  0.14708646421E+01  0.17934572721E+02  0.51100000000E-03 0. -1.
        -11    1    3    3    0    0  0.14766948282E+01  0.79438562268E+01 -0.42444627684E+01  0.91269350727E+01  0.51100000000E-03 0.  1.
        -12    1    3    3    0    0 -0.11342742010E+02  0.61351183656E+01 -0.19606606933E+02  0.23467349852E+02  0.00000000000E+00 0.  1.
</event>
<event>
 7    1  0.5479172E-013  0.5052885E+02  0.7816164E-02  0.1300439E+00
        -11   -1    0    0    0    0  0.00000000000E+00  0.00000000000E+00  0.45593999997E+02  0.45594000000E+02  0.51100000000E-03 0.  1.
         11   -1    0    0    0    0 -0.00000000000E+00 -0.00000000000E+00 -0.45593999997E+02  0.45594000000E+02  0.51100000000E-03 0. -1.
    9900012    2    1    2    0    0  0.28533530214E+01 -0.37440311213E+02  0.15596400293E+02  0.50528853068E+02  0.29999979385E+02 0.  0.
         12    1    1    2    0    0 -0.28533530214E+01  0.37440311213E+02 -0.15596400293E+02  0.40659146932E+02  0.00000000000E+00 0. -1.
         11    1    3    3    0    0  0.35714515783E+01 -0.17103574255E+02  0.15280670638E+02  0.23211773179E+02  0.51100000000E-03 0. -1.
        -11    1    3    3    0    0  0.17880803969E+01 -0.14462698313E+02  0.85505104833E+01  0.16896097294E+02  0.51100000000E-03 0.  1.
         12    1    3    3    0    0 -0.25061789537E+01 -0.58740386447E+01 -0.82347808289E+01  0.10420982595E+02  0.00000000000E+00 0. -1.
</event>
<event>
 7    1  0.5479172E-013  0.5052886E+02  0.7816164E-02  0.1300439E+00
        -11   -1    0    0    0    0  0.00000000000E+00  0.00000000000E+00  0.45593999997E+02  0.45594000000E+02  0.51100000000E-03 0.  1.
         11   -1    0    0    0    0 -0.00000000000E+00 -0.00000000000E+00 -0.45593999997E+02  0.45594000000E+02  0.51100000000E-03 0. -1.
    9900012    2    1    2    0    0  0.99961904615E+01  0.19874819710E+02  0.34032830800E+02  0.50528857676E+02  0.29999993392E+02 0.  0.
         12    1    1    2    0    0 -0.99961904615E+01 -0.19874819710E+02 -0.34032830800E+02  0.40659142324E+02  0.00000000000E+00 0. -1.
         11    1    3    3    0    0  0.59472179804E+01  0.10555668400E+01  0.93155966314E+01  0.11102430541E+02  0.51100000000E-03 0. -1.
        -11    1    3    3    0    0  0.13281925289E+02  0.16022410866E+02  0.19185887025E+02  0.28305926068E+02  0.51100000000E-03 0.  1.
         12    1    3    3    0    0 -0.92329528083E+01  0.27968420043E+01  0.55313471435E+01  0.11120501067E+02  0.00000000000E+00 0. -1.
</event>
<event>
 7    1  0.5479172E-013  0.5052886E+02  0.7816164E-02  0.1300439E+00
        -11   -1    0    0    0    0  0.00000000000E+00  0.00000000000E+00  0.45593999997E+02  0.45594000000E+02  0.51100000000E-03 0.  1.
         11   -1    0    0    0    0 -0.00000000000E+00 -0.00000000000E+00 -0.45593999997E+02  0.45594000000E+02  0.51100000000E-03 0. -1.
    9900012    2    1    2    0    0 -0.36337264812E+02 -0.14337601589E+02  0.11278400262E+02  0.50528856553E+02  0.29999989979E+02 0.  0.
         12    1    1    2    0    0  0.36337264812E+02  0.14337601589E+02 -0.11278400262E+02  0.40659143447E+02  0.00000000000E+00 0. -1.
         11    1    3    3    0    0 -0.29682310999E+01 -0.18025346133E+01 -0.44389865019E+01  0.56359673810E+01  0.51100000000E-03 0. -1.
        -11    1    3    3    0    0 -0.23145094939E+01 -0.68518331407E+00 -0.51216283461E+01  0.56619349650E+01  0.51100000000E-03 0.  1.
        -12    1    3    3    0    0 -0.31054524218E+02 -0.11849883662E+02  0.20839015110E+02  0.39230954207E+02  0.00000000000E+00 0.  1.
</event>
<event>
 7    1  0.5479172E-013  0.5052886E+02  0.7816164E-02  0.1300439E+00
        -11   -1    0    0    0    0  0.00000000000E+00  0.00000000000E+00  0.45593999997E+02  0.45594000000E+02  0.51100000000E-03 0.  1.
         11   -1    0    0    0    0 -0.00000000000E+00 -0.00000000000E+00 -0.45593999997E+02  0.45594000000E+02  0.51100000000E-03 0. -1.
    9900012    2    1    2    0    0  0.17056882962E+02 -0.86308565956E+01  0.35885052479E+02  0.50528856707E+02  0.29999990446E+02 0.  0.
         12    1    1    2    0    0 -0.17056882962E+02  0.86308565956E+01 -0.35885052479E+02  0.40659143293E+02  0.00000000000E+00 0. -1.
         11    1    3    3    0    0  0.13035941131E+02  0.12616586011E+01  0.42923709090E+01  0.13782307205E+02  0.51100000000E-03 0. -1.
        -11    1    3    3    0    0  0.87104384486E+01 -0.25617367086E+01  0.10222336896E+02  0.13672249442E+02  0.51100000000E-03 0.  1.
        -12    1    3    3    0    0 -0.46894966185E+01 -0.73307784882E+01  0.21370344673E+02  0.23074300060E+02  0.00000000000E+00 0.  1.
</event>
<event>
 7    1  0.5479172E-013  0.5052884E+02  0.7816164E-02  0.1300439E+00
        -11   -1    0    0    0    0  0.00000000000E+00  0.00000000000E+00  0.45593999997E+02  0.45594000000E+02  0.51100000000E-03 0. -1.
         11   -1    0    0    0    0 -0.00000000000E+00 -0.00000000000E+00 -0.45593999997E+02  0.45594000000E+02  0.51100000000E-03 0.  1.
    9900012    2    1    2    0    0 -0.15836559172E+02 -0.37435514722E+02  0.97626334275E+00  0.50528837945E+02  0.29999933417E+02 0.  0.
         12    1    1    2    0    0  0.15836559172E+02  0.37435514722E+02 -0.97626334275E+00  0.40659162055E+02  0.00000000000E+00 0. -1.
         11    1    3    3    0    0  0.78442576050E+00 -0.18850231174E+02  0.10210480726E+02  0.21452283235E+02  0.51100000000E-03 0. -1.
        -11    1    3    3    0    0 -0.35180233076E+01 -0.10485116147E+02  0.10880353401E+00  0.11060107914E+02  0.51100000000E-03 0.  1.
         12    1    3    3    0    0 -0.13102961625E+02 -0.81001674007E+01 -0.93430209173E+01  0.18016446795E+02  0.00000000000E+00 0. -1.
</event>
<event>
 7    1  0.5479172E-013  0.5052886E+02  0.7816164E-02  0.1300439E+00
        -11   -1    0    0    0    0  0.00000000000E+00  0.00000000000E+00  0.45593999997E+02  0.45594000000E+02  0.51100000000E-03 0.  1.
         11   -1    0    0    0    0 -0.00000000000E+00 -0.00000000000E+00 -0.45593999997E+02  0.45594000000E+02  0.51100000000E-03 0. -1.
    9900012    2    1    2    0    0 -0.12484284954E+02 -0.11494070430E+02  0.36948544287E+02  0.50528856492E+02  0.29999989792E+02 0.  0.
         12    1    1    2    0    0  0.12484284954E+02  0.11494070430E+02 -0.36948544287E+02  0.40659143508E+02  0.00000000000E+00 0. -1.
         11    1    3    3    0    0 -0.47209347162E+01 -0.88920862525E+01  0.15701829552E+02  0.18652181482E+02  0.51100000000E-03 0. -1.
        -11    1    3    3    0    0  0.26843074632E+01 -0.85037072175E+01  0.16910984473E+02  0.19118052701E+02  0.51100000000E-03 0.  1.
         12    1    3    3    0    0 -0.10447657701E+02  0.59017230398E+01  0.43357302628E+01  0.12758622308E+02  0.00000000000E+00 0. -1.
</event>
<event>
 7    1  0.5479172E-013  0.5052886E+02  0.7816164E-02  0.1300439E+00
        -11   -1    0    0    0    0  0.00000000000E+00  0.00000000000E+00  0.45593999997E+02  0.45594000000E+02  0.51100000000E-03 0.  1.
         11   -1    0    0    0    0 -0.00000000000E+00 -0.00000000000E+00 -0.45593999997E+02  0.45594000000E+02  0.51100000000E-03 0. -1.
    9900012    2    1    2    0    0  0.23428990591E+02 -0.17800978950E+02  0.28060176622E+02  0.50528856333E+02  0.29999989308E+02 0.  0.
         12    1    1    2    0    0 -0.23428990591E+02  0.17800978950E+02 -0.28060176622E+02  0.40659143667E+02  0.00000000000E+00 0. -1.
         11    1    3    3    0    0  0.14056016081E+02 -0.46080090883E+01  0.27631427991E+02  0.31341683888E+02  0.51100000000E-03 0. -1.
        -11    1    3    3    0    0 -0.14869699333E+01 -0.21106466413E+01  0.24260511925E+01  0.35428284572E+01  0.51100000000E-03 0.  1.
         12    1    3    3    0    0  0.10859944444E+02 -0.11082323221E+02 -0.19973025614E+01  0.15644343988E+02  0.00000000000E+00 0. -1.
</event>
<event>
 7    1  0.5479172E-013  0.5052890E+02  0.7816164E-02  0.1300439E+00
        -11   -1    0    0    0    0  0.00000000000E+00  0.00000000000E+00  0.45593999997E+02  0.45594000000E+02  0.51100000000E-03 0.  1.
         11   -1    0    0    0    0 -0.00000000000E+00 -0.00000000000E+00 -0.45593999997E+02  0.45594000000E+02  0.51100000000E-03 0. -1.
    9900012    2    1    2    0    0 -0.90288873634E+01 -0.21034124398E+02  0.33603684352E+02  0.50528895260E+02  0.30000107632E+02 0.  0.
         12    1    1    2    0    0  0.90288873634E+01  0.21034124398E+02 -0.33603684352E+02  0.40659104740E+02  0.00000000000E+00 0. -1.
         11    1    3    3    0    0 -0.22537109351E+01 -0.38485986006E+01  0.28262509863E+02  0.28612241929E+02  0.51100000000E-03 0.  1.
        -11    1    3    3    0    0 -0.32035146435E+00 -0.29625264742E+01 -0.29842213668E+01  0.42171987857E+01  0.51100000000E-03 0. -1.
        -12    1    3    3    0    0 -0.64548249640E+01 -0.14222999323E+02  0.83253958562E+01  0.17699454546E+02  0.00000000000E+00 0.  1.
</event>
<event>
 7    1  0.5479172E-013  0.5052886E+02  0.7816164E-02  0.1300439E+00
        -11   -1    0    0    0    0  0.00000000000E+00  0.00000000000E+00  0.45593999997E+02  0.45594000000E+02  0.51100000000E-03 0.  1.
         11   -1    0    0    0    0 -0.00000000000E+00 -0.00000000000E+00 -0.45593999997E+02  0.45594000000E+02  0.51100000000E-03 0. -1.
    9900012    2    1    2    0    0 -0.37719140318E+01  0.24815452936E+02  0.31986431379E+02  0.50528857950E+02  0.29999994224E+02 0.  0.
         12    1    1    2    0    0  0.37719140318E+01 -0.24815452936E+02 -0.31986431379E+02  0.40659142050E+02  0.00000000000E+00 0. -1.
         11    1    3    3    0    0  0.45542879560E+01 -0.48108506309E+00  0.87293129910E+01  0.98576816331E+01  0.51100000000E-03 0. -1.
        -11    1    3    3    0    0 -0.93162954840E+01  0.14755536713E+02  0.24426336673E+02  0.30019412864E+02  0.51100000000E-03 0.  1.
         12    1    3    3    0    0  0.99009349616E+00  0.10541001286E+02 -0.11692182842E+01  0.10651763452E+02  0.00000000000E+00 0. -1.
</event>
<event>
 7    1  0.5479172E-013  0.5052879E+02  0.7816164E-02  0.1300439E+00
        -11   -1    0    0    0    0  0.00000000000E+00  0.00000000000E+00  0.45593999997E+02  0.45594000000E+02  0.51100000000E-03 0. -1.
         11   -1    0    0    0    0 -0.00000000000E+00 -0.00000000000E+00 -0.45593999997E+02  0.45594000000E+02  0.51100000000E-03 0.  1.
    9900012    2    1    2    0    0 -0.30055694224E+02 -0.63303966221E+01 -0.26641186154E+02  0.50528788543E+02  0.29999783254E+02 0.  0.
         12    1    1    2    0    0  0.30055694224E+02  0.63303966221E+01  0.26641186154E+02  0.40659211457E+02  0.00000000000E+00 0. -1.
         11    1    3    3    0    0 -0.22688065144E+01  0.10483907516E+01  0.22492970711E+01  0.33624312250E+01  0.51100000000E-03 0. -1.
        -11    1    3    3    0    0 -0.29729602545E+02 -0.17282527879E+01 -0.28433034457E+02  0.41173700026E+02  0.51100000000E-03 0.  1.
         12    1    3    3    0    0  0.19427148353E+01 -0.56505345859E+01 -0.45744876746E+00  0.59926572914E+01  0.00000000000E+00 0. -1.
</event>
<event>
 7    1  0.5479172E-013  0.5052888E+02  0.7816164E-02  0.1300439E+00
        -11   -1    0    0    0    0  0.00000000000E+00  0.00000000000E+00  0.45593999997E+02  0.45594000000E+02  0.51100000000E-03 0.  1.
         11   -1    0    0    0    0 -0.00000000000E+00 -0.00000000000E+00 -0.45593999997E+02  0.45594000000E+02  0.51100000000E-03 0. -1.
    9900012    2    1    2    0    0 -0.39772699693E+02 -0.39534066282E+01 -0.74610098813E+01  0.50528883762E+02  0.30000072682E+02 0.  0.
         12    1    1    2    0    0  0.39772699693E+02  0.39534066282E+01  0.74610098813E+01  0.40659116238E+02  0.00000000000E+00 0. -1.
         11    1    3    3    0    0 -0.56059108268E+01  0.44473991567E+01  0.45258660647E+01  0.84669391963E+01  0.51100000000E-03 0. -1.
        -11    1    3    3    0    0 -0.27356329302E+02  0.11580797157E+01 -0.35558548707E+01  0.27610758875E+02  0.51100000000E-03 0.  1.
         12    1    3    3    0    0 -0.68104595640E+01 -0.95588855007E+01 -0.84310210753E+01  0.14451185690E+02  0.00000000000E+00 0. -1.
</event>
<event>
 7    1  0.5479172E-013  0.5052886E+02  0.7816164E-02  0.1300439E+00
        -11   -1    0    0    0    0  0.00000000000E+00  0.00000000000E+00  0.45593999997E+02  0.45594000000E+02  0.51100000000E-03 0.  1.
         11   -1    0    0    0    0 -0.00000000000E+00 -0.00000000000E+00 -0.45593999997E+02  0.45594000000E+02  0.51100000000E-03 0. -1.
    9900012    2    1    2    0    0  0.34043089537E+02  0.17321666578E+02  0.13935339784E+02  0.50528858676E+02  0.29999996433E+02 0.  0.
         12    1    1    2    0    0 -0.34043089537E+02 -0.17321666578E+02 -0.13935339784E+02  0.40659141324E+02  0.00000000000E+00 0. -1.
         11    1    3    3    0    0  0.20854469555E+01 -0.45911595933E+01  0.16359819627E+00  0.50452552013E+01  0.51100000000E-03 0. -1.
        -11    1    3    3    0    0  0.10067754099E+02  0.17553013899E+02  0.22346689662E+01  0.20358332820E+02  0.51100000000E-03 0.  1.
         12    1    3    3    0    0  0.21889888483E+02  0.43598122718E+01  0.11537072622E+02  0.25125270655E+02  0.00000000000E+00 0. -1.
</event>
<event>
 7    1  0.5479172E-013  0.5052885E+02  0.7816164E-02  0.1300439E+00
        -11   -1    0    0    0    0  0.00000000000E+00  0.00000000000E+00  0.45593999997E+02  0.45594000000E+02  0.51100000000E-03 0.  1.
         11   -1    0    0    0    0 -0.00000000000E+00 -0.00000000000E+00 -0.45593999997E+02  0.45594000000E+02  0.51100000000E-03 0. -1.
    9900012    2    1    2    0    0 -0.67720234321E+01  0.35694901148E+02  0.18253217392E+02  0.50528853249E+02  0.29999979936E+02 0.  0.
         12    1    1    2    0    0  0.67720234321E+01 -0.35694901148E+02 -0.18253217392E+02  0.40659146751E+02  0.00000000000E+00 0. -1.
         11    1    3    3    0    0 -0.67476056545E+01  0.97812498685E+01 -0.12278351982E+01  0.11946154636E+02  0.51100000000E-03 0. -1.
        -11    1    3    3    0    0 -0.36570552889E+01  0.27654288816E+02  0.12598669883E+02  0.30608172542E+02  0.51100000000E-03 0.  1.
         12    1    3    3    0    0  0.36326375113E+01 -0.17406375360E+01  0.68823827078E+01  0.79745260709E+01  0.00000000000E+00 0. -1.
</event>
<event>
 7    1  0.5479172E-013  0.5052884E+02  0.7816164E-02  0.1300439E+00
        -11   -1    0    0    0    0  0.00000000000E+00  0.00000000000E+00  0.45593999997E+02  0.45594000000E+02  0.51100000000E-03 0.  1.
         11   -1    0    0    0    0 -0.00000000000E+00 -0.00000000000E+00 -0.45593999997E+02  0.45594000000E+02  0.51100000000E-03 0. -1.
    9900012    2    1    2    0    0 -0.12870159083E+02 -0.32059566152E+01  0.38434988329E+02  0.50528837681E+02  0.29999932614E+02 0.  0.
         12    1    1    2    0    0  0.12870159083E+02  0.32059566152E+01 -0.38434988329E+02  0.40659162319E+02  0.00000000000E+00 0. -1.
         11    1    3    3    0    0  0.57748342265E+01  0.29974836927E+01  0.54965428432E+01  0.85173706224E+01  0.51100000000E-03 0.  1.
        -11    1    3    3    0    0 -0.30554459274E+01  0.15072024409E+01 -0.12697133119E+01  0.36358741960E+01  0.51100000000E-03 0. -1.
         12    1    3    3    0    0 -0.15589547382E+02 -0.77106427488E+01  0.34208158798E+02  0.38375592862E+02  0.00000000000E+00 0. -1.
</event>
<event>
 7    1  0.5479172E-013  0.5052886E+02  0.7816164E-02  0.1300439E+00
        -11   -1    0    0    0    0  0.00000000000E+00  0.00000000000E+00  0.45593999997E+02  0.45594000000E+02  0.51100000000E-03 0.  1.
         11   -1    0    0    0    0 -0.00000000000E+00 -0.00000000000E+00 -0.45593999997E+02  0.45594000000E+02  0.51100000000E-03 0. -1.
    9900012    2    1    2    0    0  0.21252120064E+02  0.34633129361E+02  0.14351816580E+01  0.50528855851E+02  0.29999987846E+02 0.  0.
         12    1    1    2    0    0 -0.21252120064E+02 -0.34633129361E+02 -0.14351816580E+01  0.40659144149E+02  0.00000000000E+00 0. -1.
         11    1    3    3    0    0 -0.23960627008E+01  0.22824429181E+01 -0.34290988063E+00  0.33268978926E+01  0.51100000000E-03 0. -1.
        -11    1    3    3    0    0 -0.41216656252E+01  0.11023633534E+02 -0.21643025943E+01  0.11966320646E+02  0.51100000000E-03 0.  1.
         12    1    3    3    0    0  0.27769848390E+02  0.21327052909E+02  0.39423941329E+01  0.35235637313E+02  0.00000000000E+00 0. -1.
</event>
<event>
 7    1  0.5479172E-013  0.5052883E+02  0.7816164E-02  0.1300439E+00
        -11   -1    0    0    0    0  0.00000000000E+00  0.00000000000E+00  0.45593999997E+02  0.45594000000E+02  0.51100000000E-03 0.  1.
         11   -1    0    0    0    0 -0.00000000000E+00 -0.00000000000E+00 -0.45593999997E+02  0.45594000000E+02  0.51100000000E-03 0. -1.
    9900012    2    1    2    0    0 -0.32024094133E+02 -0.10232181042E+02  0.22867612098E+02  0.50528833543E+02  0.29999920038E+02 0.  0.
         12    1    1    2    0    0  0.32024094133E+02  0.10232181042E+02 -0.22867612098E+02  0.40659166457E+02  0.00000000000E+00 0. -1.
         11    1    3    3    0    0 -0.43932059433E+00 -0.19061984515E+01 -0.13701096012E+01  0.23882620672E+01  0.51100000000E-03 0. -1.
        -11    1    3    3    0    0 -0.22827453433E+02 -0.14783187778E+02  0.25381329839E+02  0.37200096448E+02  0.51100000000E-03 0.  1.
         12    1    3    3    0    0 -0.87573201061E+01  0.64572051867E+01 -0.11436081400E+01  0.10940475028E+02  0.00000000000E+00 0. -1.
</event>
<event>
 7    1  0.5479172E-013  0.5052884E+02  0.7816164E-02  0.1300439E+00
        -11   -1    0    0    0    0  0.00000000000E+00  0.00000000000E+00  0.45593999997E+02  0.45594000000E+02  0.51100000000E-03 0.  1.
         11   -1    0    0    0    0 -0.00000000000E+00 -0.00000000000E+00 -0.45593999997E+02  0.45594000000E+02  0.51100000000E-03 0. -1.
    9900012    2    1    2    0    0 -0.40229669355E+02  0.55851232075E+01  0.18833551105E+01  0.50528844523E+02  0.29999953411E+02 0.  0.
         12    1    1    2    0    0  0.40229669355E+02 -0.55851232075E+01 -0.18833551105E+01  0.40659155477E+02  0.00000000000E+00 0. -1.
         11    1    3    3    0    0 -0.12414942366E+02 -0.39602085527E+01 -0.39537685043E+01  0.13617868093E+02  0.51100000000E-03 0. -1.
        -11    1    3    3    0    0 -0.13511269202E+02 -0.62642915219E+01  0.44621005458E+01  0.15546899539E+02  0.51100000000E-03 0.  1.
        -12    1    3    3    0    0 -0.14303457787E+02  0.15809623282E+02  0.13750230689E+01  0.21364076891E+02  0.00000000000E+00 0.  1.
</event>
<event>
 7    1  0.5479172E-013  0.5052885E+02  0.7816164E-02  0.1300439E+00
        -11   -1    0    0    0    0  0.00000000000E+00  0.00000000000E+00  0.45593999997E+02  0.45594000000E+02  0.51100000000E-03 0. -1.
         11   -1    0    0    0    0 -0.00000000000E+00 -0.00000000000E+00 -0.45593999997E+02  0.45594000000E+02  0.51100000000E-03 0.  1.
    9900012    2    1    2    0    0  0.20417923883E+01 -0.39283806244E+02 -0.10284936716E+02  0.50528852537E+02  0.29999977771E+02 0.  0.
         12    1    1    2    0    0 -0.20417923883E+01  0.39283806244E+02  0.10284936716E+02  0.40659147463E+02  0.00000000000E+00 0. -1.
         11    1    3    3    0    0 -0.35860887028E+01  0.77558528146E+00 -0.39065513633E+01  0.53593571003E+01  0.51100000000E-03 0. -1.
        -11    1    3    3    0    0  0.89401888366E+01 -0.27166073459E+02  0.31882703685E+01  0.28776511112E+02  0.51100000000E-03 0.  1.
         12    1    3    3    0    0 -0.33123077455E+01 -0.12893318067E+02 -0.95666557212E+01  0.16392984324E+02  0.00000000000E+00 0. -1.
</event>
<event>
 7    1  0.5479172E-013  0.5052887E+02  0.7816164E-02  0.1300439E+00
        -11   -1    0    0    0    0  0.00000000000E+00  0.00000000000E+00  0.45593999997E+02  0.45594000000E+02  0.51100000000E-03 0.  1.
         11   -1    0    0    0    0 -0.00000000000E+00 -0.00000000000E+00 -0.45593999997E+02  0.45594000000E+02  0.51100000000E-03 0. -1.
    9900012    2    1    2    0    0 -0.34683961519E+02  0.12348427775E+01  0.21181666240E+02  0.50528868086E+02  0.30000025034E+02 0.  0.
         12    1    1    2    0    0  0.34683961519E+02 -0.12348427775E+01 -0.21181666240E+02  0.40659131914E+02  0.00000000000E+00 0. -1.
         11    1    3    3    0    0 -0.75937276517E+01  0.68441010247E+01  0.38121825468E+01  0.10910506611E+02  0.51100000000E-03 0. -1.
        -11    1    3    3    0    0 -0.63773857801E+01 -0.99593403131E+00 -0.54566354803E+01  0.84520887956E+01  0.51100000000E-03 0.  1.
        -12    1    3    3    0    0 -0.20712848087E+02 -0.46133242159E+01  0.22826119173E+02  0.31166272679E+02  0.00000000000E+00 0.  1.
</event>
<event>
 7    1  0.5479172E-013  0.5052886E+02  0.7816164E-02  0.1300439E+00
        -11   -1    0    0    0    0  0.00000000000E+00  0.00000000000E+00  0.45593999997E+02  0.45594000000E+02  0.51100000000E-03 0.  1.
         11   -1    0    0    0    0 -0.00000000000E+00 -0.00000000000E+00 -0.45593999997E+02  0.45594000000E+02  0.51100000000E-03 0. -1.
    9900012    2    1    2    0    0 -0.20492249860E+02 -0.19888074110E+02  0.28943004286E+02  0.50528864579E+02  0.30000014373E+02 0.  0.
         12    1    1    2    0    0  0.20492249860E+02  0.19888074110E+02 -0.28943004286E+02  0.40659135421E+02  0.00000000000E+00 0. -1.
         11    1    3    3    0    0 -0.94633386512E+01 -0.66191719064E+01  0.11966945560E+02  0.16630574297E+02  0.51100000000E-03 0.  1.
        -11    1    3    3    0    0 -0.16612535902E+02 -0.27022181792E+01  0.66255353264E+01  0.18088008481E+02  0.51100000000E-03 0. -1.
         12    1    3    3    0    0  0.55836246930E+01 -0.10566684024E+02  0.10350523400E+02  0.15810281801E+02  0.00000000000E+00 0. -1.
</event>
<event>
 7    1  0.5479172E-013  0.5052885E+02  0.7816164E-02  0.1300439E+00
        -11   -1    0    0    0    0  0.00000000000E+00  0.00000000000E+00  0.45593999997E+02  0.45594000000E+02  0.51100000000E-03 0.  1.
         11   -1    0    0    0    0 -0.00000000000E+00 -0.00000000000E+00 -0.45593999997E+02  0.45594000000E+02  0.51100000000E-03 0. -1.
    9900012    2    1    2    0    0 -0.25680474728E+02  0.18877423691E+02  0.25245240610E+02  0.50528854892E+02  0.29999984931E+02 0.  0.
         12    1    1    2    0    0  0.25680474728E+02 -0.18877423691E+02 -0.25245240610E+02  0.40659145108E+02  0.00000000000E+00 0. -1.
         11    1    3    3    0    0  0.47851003272E+01  0.67583776719E+00  0.49333757172E+01  0.69059494682E+01  0.51100000000E-03 0. -1.
        -11    1    3    3    0    0 -0.51105710208E+01  0.31295105898E+01  0.11282658581E+02  0.12775373091E+02  0.51100000000E-03 0.  1.
         12    1    3    3    0    0 -0.25355004034E+02  0.15072075334E+02  0.90292063116E+01  0.30847532333E+02  0.00000000000E+00 0. -1.
</event>
<event>
 7    1  0.5479172E-013  0.5052887E+02  0.7816164E-02  0.1300439E+00
        -11   -1    0    0    0    0  0.00000000000E+00  0.00000000000E+00  0.45593999997E+02  0.45594000000E+02  0.51100000000E-03 0.  1.
         11   -1    0    0    0    0 -0.00000000000E+00 -0.00000000000E+00 -0.45593999997E+02  0.45594000000E+02  0.51100000000E-03 0. -1.
    9900012    2    1    2    0    0  0.22899904928E+02 -0.20504892596E+02  0.26614068751E+02  0.50528869149E+02  0.30000028267E+02 0.  0.
         12    1    1    2    0    0 -0.22899904928E+02  0.20504892596E+02 -0.26614068751E+02  0.40659130851E+02  0.00000000000E+00 0. -1.
         11    1    3    3    0    0 -0.99493042974E+00 -0.32257476755E+01  0.94986794725E+01  0.10080686812E+02  0.51100000000E-03 0. -1.
        -11    1    3    3    0    0  0.56289477641E+01 -0.14594992258E+02  0.56385947020E+00  0.15653012161E+02  0.51100000000E-03 0.  1.
        -12    1    3    3    0    0  0.18265887594E+02 -0.26841526623E+01  0.16551529808E+02  0.24795170176E+02  0.00000000000E+00 0.  1.
</event>
<event>
 7    1  0.5479172E-013  0.5052886E+02  0.7816164E-02  0.1300439E+00
        -11   -1    0    0    0    0  0.00000000000E+00  0.00000000000E+00  0.45593999997E+02  0.45594000000E+02  0.51100000000E-03 0. -1.
         11   -1    0    0    0    0 -0.00000000000E+00 -0.00000000000E+00 -0.45593999997E+02  0.45594000000E+02  0.51100000000E-03 0.  1.
    9900012    2    1    2    0    0  0.87808643834E+01 -0.33959606804E+02 -0.20562276736E+02  0.50528859599E+02  0.29999999237E+02 0.  0.
         12    1    1    2    0    0 -0.87808643834E+01  0.33959606804E+02  0.20562276736E+02  0.40659140401E+02  0.00000000000E+00 0. -1.
         11    1    3    3    0    0  0.53685288732E+01 -0.10844892747E+02 -0.11980424532E+02  0.17028310932E+02  0.51100000000E-03 0. -1.
        -11    1    3    3    0    0  0.41122035582E+01 -0.13950968007E+02 -0.16049033832E+02  0.21658975359E+02  0.51100000000E-03 0.  1.
         12    1    3    3    0    0 -0.69986804800E+00 -0.91637460498E+01  0.74671816277E+01  0.11841573308E+02  0.00000000000E+00 0. -1.
</event>
<event>
 7    1  0.5479172E-013  0.5052886E+02  0.7816164E-02  0.1300439E+00
        -11   -1    0    0    0    0  0.00000000000E+00  0.00000000000E+00  0.45593999997E+02  0.45594000000E+02  0.51100000000E-03 0.  1.
         11   -1    0    0    0    0 -0.00000000000E+00 -0.00000000000E+00 -0.45593999997E+02  0.45594000000E+02  0.51100000000E-03 0. -1.
    9900012    2    1    2    0    0 -0.16844942487E+02  0.36854970467E+02 -0.33354233568E+01  0.50528856078E+02  0.29999988536E+02 0.  0.
         12    1    1    2    0    0  0.16844942487E+02 -0.36854970467E+02  0.33354233568E+01  0.40659143922E+02  0.00000000000E+00 0. -1.
         11    1    3    3    0    0 -0.86027652456E+00  0.25013908865E+02 -0.66233166355E+01  0.25890230511E+02  0.51100000000E-03 0.  1.
        -11    1    3    3    0    0 -0.63289993961E+01  0.10363852103E+02 -0.36236826889E+01  0.12672676917E+02  0.51100000000E-03 0. -1.
         12    1    3    3    0    0 -0.96556665661E+01  0.14772094992E+01  0.69115759676E+01  0.11965948650E+02  0.00000000000E+00 0. -1.
</event>
<event>
 7    1  0.5479172E-013  0.5052886E+02  0.7816164E-02  0.1300439E+00
        -11   -1    0    0    0    0  0.00000000000E+00  0.00000000000E+00  0.45593999997E+02  0.45594000000E+02  0.51100000000E-03 0.  1.
         11   -1    0    0    0    0 -0.00000000000E+00 -0.00000000000E+00 -0.45593999997E+02  0.45594000000E+02  0.51100000000E-03 0. -1.
    9900012    2    1    2    0    0  0.33767728344E+02 -0.18653331726E+02  0.12843654157E+02  0.50528859403E+02  0.29999998640E+02 0.  0.
         12    1    1    2    0    0 -0.33767728344E+02  0.18653331726E+02 -0.12843654157E+02  0.40659140597E+02  0.00000000000E+00 0. -1.
         11    1    3    3    0    0  0.32953039391E+00 -0.23320435108E+01 -0.49355873332E+01  0.54687329247E+01  0.51100000000E-03 0. -1.
        -11    1    3    3    0    0  0.26239776401E+02 -0.73147990873E+01  0.47315075054E+01  0.27648134020E+02  0.51100000000E-03 0.  1.
         12    1    3    3    0    0  0.71984215492E+01 -0.90064891283E+01  0.13047733985E+02  0.17411992458E+02  0.00000000000E+00 0. -1.
</event>
<event>
 7    1  0.5479172E-013  0.5052886E+02  0.7816164E-02  0.1300439E+00
        -11   -1    0    0    0    0  0.00000000000E+00  0.00000000000E+00  0.45593999997E+02  0.45594000000E+02  0.51100000000E-03 0. -1.
         11   -1    0    0    0    0 -0.00000000000E+00 -0.00000000000E+00 -0.45593999997E+02  0.45594000000E+02  0.51100000000E-03 0.  1.
    9900012    2    1    2    0    0 -0.10816089530E+02  0.10814726262E+02 -0.37672526706E+02  0.50528863693E+02  0.30000011682E+02 0.  0.
         12    1    1    2    0    0  0.10816089530E+02 -0.10814726262E+02  0.37672526706E+02  0.40659136307E+02  0.00000000000E+00 0. -1.
         11    1    3    3    0    0  0.63248063999E+01  0.32336601301E+01 -0.44188708101E+01  0.83657727277E+01  0.51100000000E-03 0. -1.
        -11    1    3    3    0    0 -0.51398214003E+01  0.11994934944E+02 -0.15092590067E+02  0.19952005000E+02  0.51100000000E-03 0.  1.
         12    1    3    3    0    0 -0.12001074529E+02 -0.44138688117E+01 -0.18161065828E+02  0.22211085965E+02  0.00000000000E+00 0. -1.
</event>
<event>
 7    1  0.5479172E-013  0.5052886E+02  0.7816164E-02  0.1300439E+00
        -11   -1    0    0    0    0  0.00000000000E+00  0.00000000000E+00  0.45593999997E+02  0.45594000000E+02  0.51100000000E-03 0.  1.
         11   -1    0    0    0    0 -0.00000000000E+00 -0.00000000000E+00 -0.45593999997E+02  0.45594000000E+02  0.51100000000E-03 0. -1.
    9900012    2    1    2    0    0  0.18848803550E+02  0.30844599234E+02  0.18614477449E+02  0.50528862431E+02  0.30000007844E+02 0.  0.
         12    1    1    2    0    0 -0.18848803550E+02 -0.30844599234E+02 -0.18614477449E+02  0.40659137569E+02  0.00000000000E+00 0. -1.
         11    1    3    3    0    0  0.29050297757E+01  0.20792290049E+02  0.96281423392E+01  0.23096745412E+02  0.51100000000E-03 0. -1.
        -11    1    3    3    0    0 -0.21807963779E+01 -0.14608950380E+01  0.49227069336E+01  0.55788108921E+01  0.51100000000E-03 0.  1.
         12    1    3    3    0    0  0.18124570152E+02  0.11513204223E+02  0.40636281762E+01  0.21853306126E+02  0.00000000000E+00 0. -1.
</event>
<event>
 7    1  0.5479172E-013  0.5052886E+02  0.7816164E-02  0.1300439E+00
        -11   -1    0    0    0    0  0.00000000000E+00  0.00000000000E+00  0.45593999997E+02  0.45594000000E+02  0.51100000000E-03 0.  1.
         11   -1    0    0    0    0 -0.00000000000E+00 -0.00000000000E+00 -0.45593999997E+02  0.45594000000E+02  0.51100000000E-03 0. -1.
    9900012    2    1    2    0    0 -0.12231550409E+02 -0.30266622471E+02  0.24238124118E+02  0.50528856847E+02  0.29999990873E+02 0.  0.
         12    1    1    2    0    0  0.12231550409E+02  0.30266622471E+02 -0.24238124118E+02  0.40659143153E+02  0.00000000000E+00 0. -1.
         11    1    3    3    0    0  0.44978642929E+01 -0.14796764597E+01  0.90525533892E+01  0.10216112213E+02  0.51100000000E-03 0. -1.
        -11    1    3    3    0    0  0.30457919830E+01 -0.67683781426E+01  0.98577499467E+00  0.74872921731E+01  0.51100000000E-03 0.  1.
        -12    1    3    3    0    0 -0.19775206685E+02 -0.22018567868E+02  0.14199795734E+02  0.32825452461E+02  0.00000000000E+00 0.  1.
</event>
<event>
 7    1  0.5479172E-013  0.5052886E+02  0.7816164E-02  0.1300439E+00
        -11   -1    0    0    0    0  0.00000000000E+00  0.00000000000E+00  0.45593999997E+02  0.45594000000E+02  0.51100000000E-03 0. -1.
         11   -1    0    0    0    0 -0.00000000000E+00 -0.00000000000E+00 -0.45593999997E+02  0.45594000000E+02  0.51100000000E-03 0.  1.
    9900012    2    1    2    0    0  0.20014960038E+02 -0.13656637717E+02 -0.32650624226E+02  0.50528860296E+02  0.30000001357E+02 0.  0.
         12    1    1    2    0    0 -0.20014960038E+02  0.13656637717E+02  0.32650624226E+02  0.40659139704E+02  0.00000000000E+00 0. -1.
         11    1    3    3    0    0  0.57170952622E+01 -0.57837513465E+01 -0.24286470386E+02  0.25611903520E+02  0.51100000000E-03 0. -1.
        -11    1    3    3    0    0  0.35480652575E+01 -0.11833427328E+01 -0.11314329359E+02  0.11916506040E+02  0.51100000000E-03 0.  1.
         12    1    3    3    0    0  0.10749799518E+02 -0.66895436376E+01  0.29501755180E+01  0.13000450736E+02  0.00000000000E+00 0. -1.
</event>
<event>
 7    1  0.5479172E-013  0.5052885E+02  0.7816164E-02  0.1300439E+00
        -11   -1    0    0    0    0  0.00000000000E+00  0.00000000000E+00  0.45593999997E+02  0.45594000000E+02  0.51100000000E-03 0. -1.
         11   -1    0    0    0    0 -0.00000000000E+00 -0.00000000000E+00 -0.45593999997E+02  0.45594000000E+02  0.51100000000E-03 0.  1.
    9900012    2    1    2    0    0  0.20716238481E+02 -0.25271456785E+02 -0.24194154071E+02  0.50528853968E+02  0.29999982121E+02 0.  0.
         12    1    1    2    0    0 -0.20716238481E+02  0.25271456785E+02  0.24194154071E+02  0.40659146032E+02  0.00000000000E+00 0. -1.
         11    1    3    3    0    0 -0.19366020179E+01  0.52261651530E+00 -0.51024243448E+01  0.54825441040E+01  0.51100000000E-03 0. -1.
        -11    1    3    3    0    0 -0.13712188619E+01 -0.88010017703E+01 -0.11701683199E+02  0.14706028127E+02  0.51100000000E-03 0.  1.
        -12    1    3    3    0    0  0.24024059361E+02 -0.16993071530E+02 -0.73900465271E+01  0.30340281737E+02  0.00000000000E+00 0.  1.
</event>
<event>
 7    1  0.5479172E-013  0.5052886E+02  0.7816164E-02  0.1300439E+00
        -11   -1    0    0    0    0  0.00000000000E+00  0.00000000000E+00  0.45593999997E+02  0.45594000000E+02  0.51100000000E-03 0.  1.
         11   -1    0    0    0    0 -0.00000000000E+00 -0.00000000000E+00 -0.45593999997E+02  0.45594000000E+02  0.51100000000E-03 0. -1.
    9900012    2    1    2    0    0 -0.15711265840E+02 -0.37483182055E+02  0.11546554614E+01  0.50528855389E+02  0.29999986441E+02 0.  0.
         12    1    1    2    0    0  0.15711265840E+02  0.37483182055E+02 -0.11546554614E+01  0.40659144611E+02  0.00000000000E+00 0. -1.
         11    1    3    3    0    0  0.51326383735E+00 -0.22355175456E+02 -0.67159117958E+01  0.23347821760E+02  0.51100000000E-03 0. -1.
        -11    1    3    3    0    0 -0.12072861683E+02 -0.16998697243E+02  0.40555097237E+01  0.21240453304E+02  0.51100000000E-03 0.  1.
        -12    1    3    3    0    0 -0.41516679942E+01  0.18706906440E+01  0.38150575335E+01  0.59405803254E+01  0.00000000000E+00 0.  1.
</event>
<event>
 7    1  0.5479172E-013  0.5052886E+02  0.7816164E-02  0.1300439E+00
        -11   -1    0    0    0    0  0.00000000000E+00  0.00000000000E+00  0.45593999997E+02  0.45594000000E+02  0.51100000000E-03 0.  1.
         11   -1    0    0    0    0 -0.00000000000E+00 -0.00000000000E+00 -0.45593999997E+02  0.45594000000E+02  0.51100000000E-03 0. -1.
    9900012    2    1    2    0    0 -0.21463553281E+02  0.34400314435E+02  0.30166043542E+01  0.50528860135E+02  0.30000000868E+02 0.  0.
         12    1    1    2    0    0  0.21463553281E+02 -0.34400314435E+02 -0.30166043542E+01  0.40659139865E+02  0.00000000000E+00 0. -1.
         11    1    3    3    0    0  0.26135480112E+01  0.33921147801E+01 -0.18412899322E+01  0.46612685788E+01  0.51100000000E-03 0. -1.
        -11    1    3    3    0    0 -0.11323782561E+02  0.18703405066E+01  0.78735787992E+01  0.13918314139E+02  0.51100000000E-03 0.  1.
        -12    1    3    3    0    0 -0.12753318731E+02  0.29137859148E+02 -0.30156845128E+01  0.31949277417E+02  0.00000000000E+00 0.  1.
</event>
<event>
 7    1  0.5479172E-013  0.5052886E+02  0.7816164E-02  0.1300439E+00
        -11   -1    0    0    0    0  0.00000000000E+00  0.00000000000E+00  0.45593999997E+02  0.45594000000E+02  0.51100000000E-03 0.  1.
         11   -1    0    0    0    0 -0.00000000000E+00 -0.00000000000E+00 -0.45593999997E+02  0.45594000000E+02  0.51100000000E-03 0. -1.
    9900012    2    1    2    0    0 -0.16248677313E+01 -0.28002354228E+02  0.29434569038E+02  0.50528857216E+02  0.29999991994E+02 0.  0.
         12    1    1    2    0    0  0.16248677313E+01  0.28002354228E+02 -0.29434569038E+02  0.40659142784E+02  0.00000000000E+00 0. -1.
         11    1    3    3    0    0  0.13078699400E+02 -0.87154481443E+01  0.98599161396E+01  0.18553419116E+02  0.51100000000E-03 0. -1.
        -11    1    3    3    0    0  0.43698330221E+00 -0.11547165590E+00 -0.24809713310E+00  0.51559728306E+00  0.51100000000E-03 0.  1.
        -12    1    3    3    0    0 -0.15140550433E+02 -0.19171434428E+02  0.19822750032E+02  0.31459840817E+02  0.00000000000E+00 0.  1.
</event>
<event>
 7    1  0.5479172E-013  0.5052886E+02  0.7816164E-02  0.1300439E+00
        -11   -1    0    0    0    0  0.00000000000E+00  0.00000000000E+00  0.45593999997E+02  0.45594000000E+02  0.51100000000E-03 0.  1.
         11   -1    0    0    0    0 -0.00000000000E+00 -0.00000000000E+00 -0.45593999997E+02  0.45594000000E+02  0.51100000000E-03 0. -1.
    9900012    2    1    2    0    0  0.10164297392E+02  0.12021174124E+02  0.37487917103E+02  0.50528862066E+02  0.30000006737E+02 0.  0.
         12    1    1    2    0    0 -0.10164297392E+02 -0.12021174124E+02 -0.37487917103E+02  0.40659137934E+02  0.00000000000E+00 0. -1.
         11    1    3    3    0    0  0.71174052147E+01  0.52359284240E+01  0.26919469074E+02  0.28332494047E+02  0.51100000000E-03 0.  1.
        -11    1    3    3    0    0 -0.59860197230E+00 -0.22695880683E+01  0.12091427898E+02  0.12317141843E+02  0.51100000000E-03 0. -1.
         12    1    3    3    0    0  0.36454941498E+01  0.90548337681E+01 -0.15229798685E+01  0.98792261764E+01  0.00000000000E+00 0. -1.
</event>
<event>
 7    1  0.5479172E-013  0.5052887E+02  0.7816164E-02  0.1300439E+00
        -11   -1    0    0    0    0  0.00000000000E+00  0.00000000000E+00  0.45593999997E+02  0.45594000000E+02  0.51100000000E-03 0.  1.
         11   -1    0    0    0    0 -0.00000000000E+00 -0.00000000000E+00 -0.45593999997E+02  0.45594000000E+02  0.51100000000E-03 0. -1.
    9900012    2    1    2    0    0 -0.10372340440E+02 -0.74628329432E+01  0.38599033826E+02  0.50528871455E+02  0.30000035275E+02 0.  0.
         12    1    1    2    0    0  0.10372340440E+02  0.74628329432E+01 -0.38599033826E+02  0.40659128545E+02  0.00000000000E+00 0. -1.
         11    1    3    3    0    0  0.79626351660E+00 -0.29274540137E+01 -0.22744153420E+01  0.37916998825E+01  0.51100000000E-03 0. -1.
        -11    1    3    3    0    0  0.43176431950E+01  0.28724604221E+01  0.64986694722E+01  0.83141912899E+01  0.51100000000E-03 0.  1.
         12    1    3    3    0    0 -0.15486247151E+02 -0.74078393516E+01  0.34374779696E+02  0.38422980283E+02  0.00000000000E+00 0. -1.
</event>
<event>
 7    1  0.5479172E-013  0.5052886E+02  0.7816164E-02  0.1300439E+00
        -11   -1    0    0    0    0  0.00000000000E+00  0.00000000000E+00  0.45593999997E+02  0.45594000000E+02  0.51100000000E-03 0. -1.
         11   -1    0    0    0    0 -0.00000000000E+00 -0.00000000000E+00 -0.45593999997E+02  0.45594000000E+02  0.51100000000E-03 0.  1.
    9900012    2    1    2    0    0  0.29430365482E+02 -0.24229794013E+02 -0.14139875051E+02  0.50528863305E+02  0.30000010502E+02 0.  0.
         12    1    1    2    0    0 -0.29430365482E+02  0.24229794013E+02  0.14139875051E+02  0.40659136695E+02  0.00000000000E+00 0. -1.
         11    1    3    3    0    0  0.32135313748E+01 -0.93061950294E+01 -0.14459646229E+02  0.17493239241E+02  0.51100000000E-03 0. -1.
        -11    1    3    3    0    0  0.48587702675E+01  0.11138975532E+01 -0.34495649172E+01  0.60620058273E+01  0.51100000000E-03 0.  1.
         12    1    3    3    0    0  0.21358063840E+02 -0.16037496537E+02  0.37693360952E+01  0.26973618236E+02  0.00000000000E+00 0. -1.
</event>
<event>
 7    1  0.5479172E-013  0.5052886E+02  0.7816164E-02  0.1300439E+00
        -11   -1    0    0    0    0  0.00000000000E+00  0.00000000000E+00  0.45593999997E+02  0.45594000000E+02  0.51100000000E-03 0.  1.
         11   -1    0    0    0    0 -0.00000000000E+00 -0.00000000000E+00 -0.45593999997E+02  0.45594000000E+02  0.51100000000E-03 0. -1.
    9900012    2    1    2    0    0 -0.97907781257E+01 -0.36444047873E+02  0.15137293113E+02  0.50528860751E+02  0.30000002738E+02 0.  0.
         12    1    1    2    0    0  0.97907781257E+01  0.36444047873E+02 -0.15137293113E+02  0.40659139249E+02  0.00000000000E+00 0. -1.
         11    1    3    3    0    0  0.96585899351E+00 -0.21341791666E+02  0.89599129447E+01  0.23166462729E+02  0.51100000000E-03 0. -1.
        -11    1    3    3    0    0 -0.40244049820E+01 -0.17593258190E+02  0.83171949343E+01  0.19871947591E+02  0.51100000000E-03 0.  1.
        -12    1    3    3    0    0 -0.67322321372E+01  0.24910019835E+01 -0.21398147658E+01  0.74904504312E+01  0.00000000000E+00 0.  1.
</event>
<event>
 7    1  0.5479172E-013  0.5052887E+02  0.7816164E-02  0.1300439E+00
        -11   -1    0    0    0    0  0.00000000000E+00  0.00000000000E+00  0.45593999997E+02  0.45594000000E+02  0.51100000000E-03 0.  1.
         11   -1    0    0    0    0 -0.00000000000E+00 -0.00000000000E+00 -0.45593999997E+02  0.45594000000E+02  0.51100000000E-03 0. -1.
    9900012    2    1    2    0    0  0.16268891761E+02  0.29373395212E+02  0.22927973060E+02  0.50528866536E+02  0.30000020322E+02 0.  0.
         12    1    1    2    0    0 -0.16268891761E+02 -0.29373395212E+02 -0.22927973060E+02  0.40659133464E+02  0.00000000000E+00 0. -1.
         11    1    3    3    0    0  0.67049143484E+01  0.81193159753E+01  0.69664694651E+01  0.12625801574E+02  0.51100000000E-03 0. -1.
        -11    1    3    3    0    0  0.12297762551E+02  0.25822306312E+02  0.15570913613E+02  0.32565009105E+02  0.51100000000E-03 0.  1.
         12    1    3    3    0    0 -0.27337851389E+01 -0.45682270744E+01  0.39058998136E+00  0.53380558561E+01  0.00000000000E+00 0. -1.
</event>
<event>
 7    1  0.5479172E-013  0.5052886E+02  0.7816164E-02  0.1300439E+00
        -11   -1    0    0    0    0  0.00000000000E+00  0.00000000000E+00  0.45593999997E+02  0.45594000000E+02  0.51100000000E-03 0.  1.
         11   -1    0    0    0    0 -0.00000000000E+00 -0.00000000000E+00 -0.45593999997E+02  0.45594000000E+02  0.51100000000E-03 0. -1.
    9900012    2    1    2    0    0 -0.11012261013E+02  0.38936532192E+02  0.39802049212E+01  0.50528862490E+02  0.30000008026E+02 0.  0.
         12    1    1    2    0    0  0.11012261013E+02 -0.38936532192E+02 -0.39802049212E+01  0.40659137510E+02  0.00000000000E+00 0. -1.
         11    1    3    3    0    0 -0.11162501752E+02  0.20892011098E+02  0.24607717539E+01  0.23814553764E+02  0.51100000000E-03 0.  1.
        -11    1    3    3    0    0 -0.84339925490E+00  0.17761375898E+02 -0.62716554265E+01  0.18855011486E+02  0.51100000000E-03 0. -1.
        -12    1    3    3    0    0  0.99363999382E+00  0.28314519671E+00  0.77910885939E+01  0.78592972407E+01  0.00000000000E+00 0.  1.
</event>
<event>
 7    1  0.5479172E-013  0.5052886E+02  0.7816164E-02  0.1300439E+00
        -11   -1    0    0    0    0  0.00000000000E+00  0.00000000000E+00  0.45593999997E+02  0.45594000000E+02  0.51100000000E-03 0. -1.
         11   -1    0    0    0    0 -0.00000000000E+00 -0.00000000000E+00 -0.45593999997E+02  0.45594000000E+02  0.51100000000E-03 0.  1.
    9900012    2    1    2    0    0 -0.35844059684E+02 -0.24031352634E+01 -0.19041900887E+02  0.50528860030E+02  0.30000000547E+02 0.  0.
         12    1    1    2    0    0  0.35844059684E+02  0.24031352634E+01  0.19041900887E+02  0.40659139970E+02  0.00000000000E+00 0. -1.
         11    1    3    3    0    0 -0.19466034242E+02 -0.22829120746E+01 -0.24817735287E+02  0.31623696205E+02  0.51100000000E-03 0. -1.
        -11    1    3    3    0    0 -0.38427209357E+01 -0.24154712077E+01 -0.72948672652E+00  0.45970813012E+01  0.51100000000E-03 0.  1.
         12    1    3    3    0    0 -0.12535304507E+02  0.22952480188E+01  0.65053211265E+01  0.14308082523E+02  0.00000000000E+00 0. -1.
</event>
<event>
 7    1  0.5479172E-013  0.5052886E+02  0.7816164E-02  0.1300439E+00
        -11   -1    0    0    0    0  0.00000000000E+00  0.00000000000E+00  0.45593999997E+02  0.45594000000E+02  0.51100000000E-03 0.  1.
         11   -1    0    0    0    0 -0.00000000000E+00 -0.00000000000E+00 -0.45593999997E+02  0.45594000000E+02  0.51100000000E-03 0. -1.
    9900012    2    1    2    0    0 -0.38503636072E+02  0.31935432608E+01  0.12666370376E+02  0.50528860218E+02  0.30000001118E+02 0.  0.
         12    1    1    2    0    0  0.38503636072E+02 -0.31935432608E+01 -0.12666370376E+02  0.40659139782E+02  0.00000000000E+00 0. -1.
         11    1    3    3    0    0 -0.10932279353E+02  0.32331783590E+01 -0.16079534412E+01  0.11513196284E+02  0.51100000000E-03 0. -1.
        -11    1    3    3    0    0 -0.31254168983E+02  0.22840233089E+01  0.99512535142E+01  0.32879587711E+02  0.51100000000E-03 0.  1.
        -12    1    3    3    0    0  0.36828122636E+01 -0.23236584071E+01  0.43230703029E+01  0.61360762223E+01  0.00000000000E+00 0.  1.
</event>
<event>
 7    1  0.5479172E-013  0.5052885E+02  0.7816164E-02  0.1300439E+00
        -11   -1    0    0    0    0  0.00000000000E+00  0.00000000000E+00  0.45593999997E+02  0.45594000000E+02  0.51100000000E-03 0.  1.
         11   -1    0    0    0    0 -0.00000000000E+00 -0.00000000000E+00 -0.45593999997E+02  0.45594000000E+02  0.51100000000E-03 0. -1.
    9900012    2    1    2    0    0  0.70757919065E+01  0.21753097523E+02  0.33614017266E+02  0.50528852939E+02  0.29999978993E+02 0.  0.
         12    1    1    2    0    0 -0.70757919065E+01 -0.21753097523E+02 -0.33614017266E+02  0.40659147061E+02  0.00000000000E+00 0. -1.
         11    1    3    3    0    0  0.39729691623E+01  0.29779478452E+00  0.19679130814E+01  0.44436300313E+01  0.51100000000E-03 0.  1.
        -11    1    3    3    0    0  0.12210520676E+02  0.20002304958E+02  0.17711567413E+02  0.29374966201E+02  0.51100000000E-03 0. -1.
         12    1    3    3    0    0 -0.91076979318E+01  0.14529977808E+01  0.13934536772E+02  0.16710256707E+02  0.00000000000E+00 0. -1.
</event>
<event>
 7    1  0.5479172E-013  0.5052887E+02  0.7816164E-02  0.1300439E+00
        -11   -1    0    0    0    0  0.00000000000E+00  0.00000000000E+00  0.45593999997E+02  0.45594000000E+02  0.51100000000E-03 0.  1.
         11   -1    0    0    0    0 -0.00000000000E+00 -0.00000000000E+00 -0.45593999997E+02  0.45594000000E+02  0.51100000000E-03 0. -1.
    9900012    2    1    2    0    0  0.14227841906E+02  0.27354698302E+01  0.37990142073E+02  0.50528866030E+02  0.30000018785E+02 0.  0.
         12    1    1    2    0    0 -0.14227841906E+02 -0.27354698302E+01 -0.37990142073E+02  0.40659133970E+02  0.00000000000E+00 0. -1.
         11    1    3    3    0    0 -0.60857565965E+01 -0.16179785996E+01  0.72644977774E+01  0.96139074428E+01  0.51100000000E-03 0. -1.
        -11    1    3    3    0    0  0.74482972301E+01  0.51539426325E+01  0.25402306206E+02  0.26968823058E+02  0.51100000000E-03 0.  1.
        -12    1    3    3    0    0  0.12865301272E+02 -0.80049420271E+00  0.53233380892E+01  0.13946135529E+02  0.00000000000E+00 0.  1.
</event>
<event>
 7    1  0.5479172E-013  0.5052885E+02  0.7816164E-02  0.1300439E+00
        -11   -1    0    0    0    0  0.00000000000E+00  0.00000000000E+00  0.45593999997E+02  0.45594000000E+02  0.51100000000E-03 0. -1.
         11   -1    0    0    0    0 -0.00000000000E+00 -0.00000000000E+00 -0.45593999997E+02  0.45594000000E+02  0.51100000000E-03 0.  1.
    9900012    2    1    2    0    0 -0.84792144433E+01 -0.18722612745E+02 -0.35081811033E+02  0.50528846406E+02  0.29999959137E+02 0.  0.
         12    1    1    2    0    0  0.84792144433E+01  0.18722612745E+02  0.35081811033E+02  0.40659153594E+02  0.00000000000E+00 0. -1.
         11    1    3    3    0    0 -0.88735914139E+01 -0.97147815821E+01 -0.20396657951E+02  0.24272232316E+02  0.51100000000E-03 0. -1.
        -11    1    3    3    0    0 -0.13807828017E+01 -0.30667670555E+01 -0.18614450557E+02  0.18915850262E+02  0.51100000000E-03 0.  1.
         12    1    3    3    0    0  0.17751597723E+01 -0.59410641076E+01  0.39292974748E+01  0.73407638290E+01  0.00000000000E+00 0. -1.
</event>
<event>
 7    1  0.5479172E-013  0.5052886E+02  0.7816164E-02  0.1300439E+00
        -11   -1    0    0    0    0  0.00000000000E+00  0.00000000000E+00  0.45593999997E+02  0.45594000000E+02  0.51100000000E-03 0.  1.
         11   -1    0    0    0    0 -0.00000000000E+00 -0.00000000000E+00 -0.45593999997E+02  0.45594000000E+02  0.51100000000E-03 0. -1.
    9900012    2    1    2    0    0  0.18789162702E+02 -0.48396552243E+01  0.35731089653E+02  0.50528860000E+02  0.30000000456E+02 0.  0.
         12    1    1    2    0    0 -0.18789162702E+02  0.48396552243E+01 -0.35731089653E+02  0.40659140000E+02  0.00000000000E+00 0. -1.
         11    1    3    3    0    0  0.11520780308E+02  0.23870600785E+00  0.68497699471E+01  0.13405398467E+02  0.51100000000E-03 0. -1.
        -11    1    3    3    0    0  0.14365083996E+02 -0.40548703359E+01  0.13385464365E+02  0.20049146320E+02  0.51100000000E-03 0.  1.
         12    1    3    3    0    0 -0.70967016019E+01 -0.10234908962E+01  0.15495855341E+02  0.17074315213E+02  0.00000000000E+00 0. -1.
</event>
<event>
 7    1  0.5479172E-013  0.5052879E+02  0.7816164E-02  0.1300439E+00
        -11   -1    0    0    0    0  0.00000000000E+00  0.00000000000E+00  0.45593999997E+02  0.45594000000E+02  0.51100000000E-03 0.  1.
         11   -1    0    0    0    0 -0.00000000000E+00 -0.00000000000E+00 -0.45593999997E+02  0.45594000000E+02  0.51100000000E-03 0. -1.
    9900012    2    1    2    0    0 -0.11851363663E+02  0.38842448302E+02  0.19952230742E+01  0.50528787934E+02  0.29999781403E+02 0.  0.
         12    1    1    2    0    0  0.11851363663E+02 -0.38842448302E+02 -0.19952230742E+01  0.40659212066E+02  0.00000000000E+00 0. -1.
         11    1    3    3    0    0 -0.22396432233E+01  0.22616657693E+02 -0.40393043853E+00  0.22730868154E+02  0.51100000000E-03 0. -1.
        -11    1    3    3    0    0 -0.18633988694E+01  0.19236705277E+02  0.87472067837E+00  0.19346529967E+02  0.51100000000E-03 0.  1.
         12    1    3    3    0    0 -0.77483215704E+01 -0.30109146682E+01  0.15244328343E+01  0.84513898126E+01  0.00000000000E+00 0. -1.
</event>
<event>
 7    1  0.5479172E-013  0.5052884E+02  0.7816164E-02  0.1300439E+00
        -11   -1    0    0    0    0  0.00000000000E+00  0.00000000000E+00  0.45593999997E+02  0.45594000000E+02  0.51100000000E-03 0. -1.
         11   -1    0    0    0    0 -0.00000000000E+00 -0.00000000000E+00 -0.45593999997E+02  0.45594000000E+02  0.51100000000E-03 0.  1.
    9900012    2    1    2    0    0 -0.29838707750E+02 -0.20117818004E+02 -0.18923322772E+02  0.50528840808E+02  0.29999942121E+02 0.  0.
         12    1    1    2    0    0  0.29838707750E+02  0.20117818004E+02  0.18923322772E+02  0.40659159192E+02  0.00000000000E+00 0. -1.
         11    1    3    3    0    0 -0.28110172591E+02 -0.24962474409E+02 -0.13449756368E+02  0.39927470222E+02  0.51100000000E-03 0.  1.
        -11    1    3    3    0    0  0.14717053159E+00  0.79959070049E+00 -0.60509718899E+01  0.61053472897E+01  0.51100000000E-03 0. -1.
        -12    1    3    3    0    0 -0.18757056905E+01  0.40450657044E+01  0.57740548572E+00  0.44960232968E+01  0.00000000000E+00 0.  1.
</event>
<event>
 7    1  0.5479172E-013  0.5052885E+02  0.7816164E-02  0.1300439E+00
        -11   -1    0    0    0    0  0.00000000000E+00  0.00000000000E+00  0.45593999997E+02  0.45594000000E+02  0.51100000000E-03 0.  1.
         11   -1    0    0    0    0 -0.00000000000E+00 -0.00000000000E+00 -0.45593999997E+02  0.45594000000E+02  0.51100000000E-03 0. -1.
    9900012    2    1    2    0    0  0.34660342720E+02  0.63838124575E+01  0.20274962104E+02  0.50528849649E+02  0.29999968992E+02 0.  0.
         12    1    1    2    0    0 -0.34660342720E+02 -0.63838124575E+01 -0.20274962104E+02  0.40659150351E+02  0.00000000000E+00 0. -1.
         11    1    3    3    0    0  0.79257486325E+00  0.10573715151E+00  0.12565795362E+01  0.14894118474E+01  0.51100000000E-03 0.  1.
        -11    1    3    3    0    0  0.32724180723E+02  0.32226360435E+01  0.33701449746E+01  0.33054731348E+02  0.51100000000E-03 0. -1.
         12    1    3    3    0    0  0.11435871339E+01  0.30554392625E+01  0.15648237593E+02  0.15984706453E+02  0.00000000000E+00 0. -1.
</event>
<event>
 7    1  0.5479172E-013  0.5052886E+02  0.7816164E-02  0.1300439E+00
        -11   -1    0    0    0    0  0.00000000000E+00  0.00000000000E+00  0.45593999997E+02  0.45594000000E+02  0.51100000000E-03 0.  1.
         11   -1    0    0    0    0 -0.00000000000E+00 -0.00000000000E+00 -0.45593999997E+02  0.45594000000E+02  0.51100000000E-03 0. -1.
    9900012    2    1    2    0    0  0.26391127982E+02 -0.65708516866E+01  0.30224126628E+02  0.50528861316E+02  0.30000004457E+02 0.  0.
         12    1    1    2    0    0 -0.26391127982E+02  0.65708516866E+01 -0.30224126628E+02  0.40659138684E+02  0.00000000000E+00 0. -1.
         11    1    3    3    0    0  0.10873692150E+01 -0.59690020559E+01  0.10953109695E+02  0.12521260703E+02  0.51100000000E-03 0. -1.
        -11    1    3    3    0    0  0.19508784454E+02  0.67825394656E+01  0.19792187430E+02  0.28606401312E+02  0.51100000000E-03 0.  1.
         12    1    3    3    0    0  0.57949743131E+01 -0.73843890962E+01 -0.52117049674E+00  0.94011993012E+01  0.00000000000E+00 0. -1.
</event>
<event>
 7    1  0.5479172E-013  0.5052887E+02  0.7816164E-02  0.1300439E+00
        -11   -1    0    0    0    0  0.00000000000E+00  0.00000000000E+00  0.45593999997E+02  0.45594000000E+02  0.51100000000E-03 0. -1.
         11   -1    0    0    0    0 -0.00000000000E+00 -0.00000000000E+00 -0.45593999997E+02  0.45594000000E+02  0.51100000000E-03 0.  1.
    9900012    2    1    2    0    0 -0.38320690586E+01 -0.38775087750E+02 -0.11617787489E+02  0.50528866101E+02  0.30000019000E+02 0.  0.
         12    1    1    2    0    0  0.38320690586E+01  0.38775087750E+02  0.11617787489E+02  0.40659133899E+02  0.00000000000E+00 0. -1.
         11    1    3    3    0    0  0.12740742893E+01 -0.19430162643E+02 -0.16738148389E+02  0.25677229161E+02  0.51100000000E-03 0. -1.
        -11    1    3    3    0    0  0.87795205689E+00 -0.48410462555E+01 -0.43142222996E+01  0.65436261334E+01  0.51100000000E-03 0.  1.
         12    1    3    3    0    0 -0.59840954047E+01 -0.14503878851E+02  0.94345831991E+01  0.18308010806E+02  0.00000000000E+00 0. -1.
</event>
<event>
 7    1  0.5479172E-013  0.5052884E+02  0.7816164E-02  0.1300439E+00
        -11   -1    0    0    0    0  0.00000000000E+00  0.00000000000E+00  0.45593999997E+02  0.45594000000E+02  0.51100000000E-03 0. -1.
         11   -1    0    0    0    0 -0.00000000000E+00 -0.00000000000E+00 -0.45593999997E+02  0.45594000000E+02  0.51100000000E-03 0.  1.
    9900012    2    1    2    0    0 -0.39463599383E+02  0.90484991617E+01  0.37304626360E+01  0.50528839103E+02  0.29999936937E+02 0.  0.
         12    1    1    2    0    0  0.39463599383E+02 -0.90484991617E+01 -0.37304626360E+01  0.40659160897E+02  0.00000000000E+00 0. -1.
         11    1    3    3    0    0 -0.23538129719E+02  0.92935204529E+01  0.23954844130E+01  0.25419508629E+02  0.51100000000E-03 0. -1.
        -11    1    3    3    0    0 -0.14022836980E+02  0.72719822847E+01 -0.32133008898E+01  0.16119770041E+02  0.51100000000E-03 0.  1.
         12    1    3    3    0    0 -0.19026326844E+01 -0.75170035759E+01  0.45482791128E+01  0.89895604330E+01  0.00000000000E+00 0. -1.
</event>
<event>
 7    1  0.5479172E-013  0.5052888E+02  0.7816164E-02  0.1300439E+00
        -11   -1    0    0    0    0  0.00000000000E+00  0.00000000000E+00  0.45593999997E+02  0.45594000000E+02  0.51100000000E-03 0.  1.
         11   -1    0    0    0    0 -0.00000000000E+00 -0.00000000000E+00 -0.45593999997E+02  0.45594000000E+02  0.51100000000E-03 0. -1.
    9900012    2    1    2    0    0 -0.25780158441E+01 -0.93863112404E+01  0.39476764558E+02  0.50528881166E+02  0.30000064792E+02 0.  0.
         12    1    1    2    0    0  0.25780158441E+01  0.93863112404E+01 -0.39476764558E+02  0.40659118834E+02  0.00000000000E+00 0. -1.
         11    1    3    3    0    0 -0.32322241883E+01 -0.19126275086E+01  0.84370469441E+00  0.38493187790E+01  0.51100000000E-03 0.  1.
        -11    1    3    3    0    0 -0.11825698115E+02 -0.39783873982E+01  0.13378500459E+02  0.18293686807E+02  0.51100000000E-03 0. -1.
        -12    1    3    3    0    0  0.12479906460E+02 -0.34952963336E+01  0.25254559405E+02  0.28385875580E+02  0.00000000000E+00 0.  1.
</event>
<event>
 7    1  0.5479172E-013  0.5052886E+02  0.7816164E-02  0.1300439E+00
        -11   -1    0    0    0    0  0.00000000000E+00  0.00000000000E+00  0.45593999997E+02  0.45594000000E+02  0.51100000000E-03 0.  1.
         11   -1    0    0    0    0 -0.00000000000E+00 -0.00000000000E+00 -0.45593999997E+02  0.45594000000E+02  0.51100000000E-03 0. -1.
    9900012    2    1    2    0    0  0.31191143106E+02  0.15242848553E+02  0.21164448519E+02  0.50528859314E+02  0.29999998370E+02 0.  0.
         12    1    1    2    0    0 -0.31191143106E+02 -0.15242848553E+02 -0.21164448519E+02  0.40659140686E+02  0.00000000000E+00 0. -1.
         11    1    3    3    0    0  0.16987481366E+02 -0.37871012636E+01  0.43025113670E+01  0.17928420552E+02  0.51100000000E-03 0. -1.
        -11    1    3    3    0    0  0.59836840216E+01  0.20328778777E+01 -0.12446566181E+01  0.64409810816E+01  0.51100000000E-03 0.  1.
        -12    1    3    3    0    0  0.82199777178E+01  0.16997071939E+02  0.18106593770E+02  0.26159457680E+02  0.00000000000E+00 0.  1.
</event>
<event>
 7    1  0.5479172E-013  0.5052886E+02  0.7816164E-02  0.1300439E+00
        -11   -1    0    0    0    0  0.00000000000E+00  0.00000000000E+00  0.45593999997E+02  0.45594000000E+02  0.51100000000E-03 0. -1.
         11   -1    0    0    0    0 -0.00000000000E+00 -0.00000000000E+00 -0.45593999997E+02  0.45594000000E+02  0.51100000000E-03 0.  1.
    9900012    2    1    2    0    0  0.29387655480E+02  0.27788963264E+02 -0.41599205911E+01  0.50528859414E+02  0.29999998674E+02 0.  0.
         12    1    1    2    0    0 -0.29387655480E+02 -0.27788963264E+02  0.41599205911E+01  0.40659140586E+02  0.00000000000E+00 0. -1.
         11    1    3    3    0    0  0.24968845673E+02  0.15561627644E+02  0.42385420524E+01  0.29724951609E+02  0.51100000000E-03 0. -1.
        -11    1    3    3    0    0  0.65455901032E+01  0.96869615987E+01  0.90358601890E-01  0.11691455844E+02  0.51100000000E-03 0.  1.
        -12    1    3    3    0    0 -0.21267802961E+01  0.25403740212E+01 -0.84888212454E+01  0.91124519604E+01  0.00000000000E+00 0.  1.
</event>
<event>
 7    1  0.5479172E-013  0.5052888E+02  0.7816164E-02  0.1300439E+00
        -11   -1    0    0    0    0  0.00000000000E+00  0.00000000000E+00  0.45593999997E+02  0.45594000000E+02  0.51100000000E-03 0. -1.
         11   -1    0    0    0    0 -0.00000000000E+00 -0.00000000000E+00 -0.45593999997E+02  0.45594000000E+02  0.51100000000E-03 0.  1.
    9900012    2    1    2    0    0  0.26198451373E+02 -0.29781149575E+02  0.89380368389E+01  0.50528877691E+02  0.30000054231E+02 0.  0.
         12    1    1    2    0    0 -0.26198451373E+02  0.29781149575E+02 -0.89380368389E+01  0.40659122309E+02  0.00000000000E+00 0. -1.
         11    1    3    3    0    0  0.96470949738E+01 -0.88172187162E+01  0.72283351801E+01  0.14935147038E+02  0.51100000000E-03 0. -1.
        -11    1    3    3    0    0  0.21479853961E+02 -0.19031242078E+02  0.53187383371E+01  0.29186662690E+02  0.51100000000E-03 0.  1.
        -12    1    3    3    0    0 -0.49284975617E+01 -0.19326887810E+01 -0.36090366783E+01  0.64070679632E+01  0.00000000000E+00 0.  1.
</event>
<event>
 7    1  0.5479172E-013  0.5052884E+02  0.7816164E-02  0.1300439E+00
        -11   -1    0    0    0    0  0.00000000000E+00  0.00000000000E+00  0.45593999997E+02  0.45594000000E+02  0.51100000000E-03 0. -1.
         11   -1    0    0    0    0 -0.00000000000E+00 -0.00000000000E+00 -0.45593999997E+02  0.45594000000E+02  0.51100000000E-03 0.  1.
    9900012    2    1    2    0    0 -0.30187256251E+02 -0.22770354708E+02 -0.14946832174E+02  0.50528840078E+02  0.29999939902E+02 0.  0.
         12    1    1    2    0    0  0.30187256251E+02  0.22770354708E+02  0.14946832174E+02  0.40659159922E+02  0.00000000000E+00 0. -1.
         11    1    3    3    0    0 -0.59865551016E+01 -0.63109540589E+01  0.18002821221E+01  0.88830174546E+01  0.51100000000E-03 0. -1.
        -11    1    3    3    0    0 -0.17428997887E+02 -0.18413015457E+02 -0.21419008456E+02  0.33190104385E+02  0.51100000000E-03 0.  1.
         12    1    3    3    0    0 -0.67717032623E+01  0.19536148078E+01  0.46718941601E+01  0.84557182388E+01  0.00000000000E+00 0. -1.
</event>
<event>
 7    1  0.5479172E-013  0.5052886E+02  0.7816164E-02  0.1300439E+00
        -11   -1    0    0    0    0  0.00000000000E+00  0.00000000000E+00  0.45593999997E+02  0.45594000000E+02  0.51100000000E-03 0.  1.
         11   -1    0    0    0    0 -0.00000000000E+00 -0.00000000000E+00 -0.45593999997E+02  0.45594000000E+02  0.51100000000E-03 0. -1.
    9900012    2    1    2    0    0  0.97212935028E+01 -0.31800895514E+02  0.23395839247E+02  0.50528858384E+02  0.29999995543E+02 0.  0.
         12    1    1    2    0    0 -0.97212935028E+01  0.31800895514E+02 -0.23395839247E+02  0.40659141616E+02  0.00000000000E+00 0. -1.
         11    1    3    3    0    0 -0.38361823027E+01 -0.12392459651E+02  0.99535882566E+01  0.16351246751E+02  0.51100000000E-03 0. -1.
        -11    1    3    3    0    0  0.12509910281E+02 -0.14297518968E+02  0.18780195906E+02  0.26713529576E+02  0.51100000000E-03 0.  1.
         12    1    3    3    0    0  0.10475655248E+01 -0.51109168946E+01 -0.53379449153E+01  0.74640820568E+01  0.00000000000E+00 0. -1.
</event>
<event>
 7    1  0.5479172E-013  0.5052884E+02  0.7816164E-02  0.1300439E+00
        -11   -1    0    0    0    0  0.00000000000E+00  0.00000000000E+00  0.45593999997E+02  0.45594000000E+02  0.51100000000E-03 0.  1.
         11   -1    0    0    0    0 -0.00000000000E+00 -0.00000000000E+00 -0.45593999997E+02  0.45594000000E+02  0.51100000000E-03 0. -1.
    9900012    2    1    2    0    0 -0.11509493821E+02  0.35277433984E+02  0.16619299244E+02  0.50528844771E+02  0.29999954167E+02 0.  0.
         12    1    1    2    0    0  0.11509493821E+02 -0.35277433984E+02 -0.16619299244E+02  0.40659155229E+02  0.00000000000E+00 0. -1.
         11    1    3    3    0    0 -0.27133638059E+01  0.53760721417E+01 -0.54746749754E+01  0.81385847150E+01  0.51100000000E-03 0. -1.
        -11    1    3    3    0    0 -0.96362763716E+01  0.78886296695E+01  0.20770705413E+01  0.12625471186E+02  0.51100000000E-03 0.  1.
        -12    1    3    3    0    0  0.84014635644E+00  0.22012732173E+02  0.20016903678E+02  0.29764788870E+02  0.00000000000E+00 0.  1.
</event>
<event>
 7    1  0.5479172E-013  0.5052886E+02  0.7816164E-02  0.1300439E+00
        -11   -1    0    0    0    0  0.00000000000E+00  0.00000000000E+00  0.45593999997E+02  0.45594000000E+02  0.51100000000E-03 0. -1.
         11   -1    0    0    0    0 -0.00000000000E+00 -0.00000000000E+00 -0.45593999997E+02  0.45594000000E+02  0.51100000000E-03 0.  1.
    9900012    2    1    2    0    0 -0.27673451791E+02 -0.20890595478E+02 -0.21235087740E+02  0.50528857550E+02  0.29999993009E+02 0.  0.
         12    1    1    2    0    0  0.27673451791E+02  0.20890595478E+02  0.21235087740E+02  0.40659142450E+02  0.00000000000E+00 0. -1.
         11    1    3    3    0    0 -0.10267739273E+02 -0.75541041218E+01 -0.73081819475E+01  0.14693552412E+02  0.51100000000E-03 0. -1.
        -11    1    3    3    0    0 -0.22397194774E+02 -0.14857128920E+02 -0.82274141087E+01  0.28107987417E+02  0.51100000000E-03 0.  1.
         12    1    3    3    0    0  0.49914822551E+01  0.15206375640E+01 -0.56994916834E+01  0.77273177205E+01  0.00000000000E+00 0. -1.
</event>
<event>
 7    1  0.5479172E-013  0.5052886E+02  0.7816164E-02  0.1300439E+00
        -11   -1    0    0    0    0  0.00000000000E+00  0.00000000000E+00  0.45593999997E+02  0.45594000000E+02  0.51100000000E-03 0.  1.
         11   -1    0    0    0    0 -0.00000000000E+00 -0.00000000000E+00 -0.45593999997E+02  0.45594000000E+02  0.51100000000E-03 0. -1.
    9900012    2    1    2    0    0  0.21616930876E+02 -0.15104219165E+02  0.30947322444E+02  0.50528857073E+02  0.29999991559E+02 0.  0.
         12    1    1    2    0    0 -0.21616930876E+02  0.15104219165E+02 -0.30947322444E+02  0.40659142927E+02  0.00000000000E+00 0. -1.
         11    1    3    3    0    0 -0.19424920144E+01  0.21088260570E+01  0.88405998661E+01  0.92939027765E+01  0.51100000000E-03 0. -1.
        -11    1    3    3    0    0 -0.35422162410E+00  0.80052683180E+00  0.81598762538E+01  0.82066982951E+01  0.51100000000E-03 0.  1.
        -12    1    3    3    0    0  0.23913644515E+02 -0.18013572054E+02  0.13946846324E+02  0.33028256002E+02  0.00000000000E+00 0.  1.
</event>
<event>
 7    1  0.5479172E-013  0.5052886E+02  0.7816164E-02  0.1300439E+00
        -11   -1    0    0    0    0  0.00000000000E+00  0.00000000000E+00  0.45593999997E+02  0.45594000000E+02  0.51100000000E-03 0.  1.
         11   -1    0    0    0    0 -0.00000000000E+00 -0.00000000000E+00 -0.45593999997E+02  0.45594000000E+02  0.51100000000E-03 0. -1.
    9900012    2    1    2    0    0 -0.32451686275E+02 -0.54736750056E+01  0.23876607617E+02  0.50528862633E+02  0.30000008459E+02 0.  0.
         12    1    1    2    0    0  0.32451686275E+02  0.54736750056E+01 -0.23876607617E+02  0.40659137367E+02  0.00000000000E+00 0. -1.
         11    1    3    3    0    0 -0.18934882723E+02 -0.19509191965E+01  0.49621174175E+01  0.19671260228E+02  0.51100000000E-03 0.  1.
        -11    1    3    3    0    0 -0.17252431019E+01  0.77634339814E+01  0.48760304109E+01  0.93286142473E+01  0.51100000000E-03 0. -1.
         12    1    3    3    0    0 -0.11791560450E+02 -0.11286189791E+02  0.14038459788E+02  0.21528988157E+02  0.00000000000E+00 0. -1.
</event>
<event>
 7    1  0.5479172E-013  0.5052887E+02  0.7816164E-02  0.1300439E+00
        -11   -1    0    0    0    0  0.00000000000E+00  0.00000000000E+00  0.45593999997E+02  0.45594000000E+02  0.51100000000E-03 0.  1.
         11   -1    0    0    0    0 -0.00000000000E+00 -0.00000000000E+00 -0.45593999997E+02  0.45594000000E+02  0.51100000000E-03 0. -1.
    9900012    2    1    2    0    0 -0.18351717768E+02 -0.24645873470E+02  0.26626311822E+02  0.50528866889E+02  0.30000021395E+02 0.  0.
         12    1    1    2    0    0  0.18351717768E+02  0.24645873470E+02 -0.26626311822E+02  0.40659133111E+02  0.00000000000E+00 0. -1.
         11    1    3    3    0    0  0.14380654489E+01  0.21705325363E+01  0.79178044318E+01  0.83349187763E+01  0.51100000000E-03 0. -1.
        -11    1    3    3    0    0 -0.14214226864E+02 -0.10246293176E+02  0.17349209752E+02  0.24658180153E+02  0.51100000000E-03 0.  1.
        -12    1    3    3    0    0 -0.55755563538E+01 -0.16570112830E+02  0.13592976375E+01  0.17535767959E+02  0.00000000000E+00 0.  1.
</event>
<event>
 7    1  0.5479172E-013  0.5052888E+02  0.7816164E-02  0.1300439E+00
        -11   -1    0    0    0    0  0.00000000000E+00  0.00000000000E+00  0.45593999997E+02  0.45594000000E+02  0.51100000000E-03 0.  1.
         11   -1    0    0    0    0 -0.00000000000E+00 -0.00000000000E+00 -0.45593999997E+02  0.45594000000E+02  0.51100000000E-03 0. -1.
    9900012    2    1    2    0    0 -0.14795087363E+01 -0.25004817314E+01  0.40555184190E+02  0.50528876551E+02  0.30000050764E+02 0.  0.
         12    1    1    2    0    0  0.14795087363E+01  0.25004817314E+01 -0.40555184190E+02  0.40659123449E+02  0.00000000000E+00 0. -1.
         11    1    3    3    0    0  0.11270567978E+01  0.99741987649E+00  0.18027379070E+01  0.23483968272E+01  0.51100000000E-03 0. -1.
        -11    1    3    3    0    0 -0.98891090594E+01  0.33429951745E+01  0.36465768842E+02  0.37930494226E+02  0.51100000000E-03 0.  1.
        -12    1    3    3    0    0  0.72825435253E+01 -0.68408967825E+01  0.22866774405E+01  0.10249985498E+02  0.00000000000E+00 0.  1.
</event>
<event>
 7    1  0.5479172E-013  0.5052887E+02  0.7816164E-02  0.1300439E+00
        -11   -1    0    0    0    0  0.00000000000E+00  0.00000000000E+00  0.45593999997E+02  0.45594000000E+02  0.51100000000E-03 0.  1.
         11   -1    0    0    0    0 -0.00000000000E+00 -0.00000000000E+00 -0.45593999997E+02  0.45594000000E+02  0.51100000000E-03 0. -1.
    9900012    2    1    2    0    0  0.70461260522E+01 -0.36613967692E+02  0.16215248393E+02  0.50528870608E+02  0.30000032700E+02 0.  0.
         12    1    1    2    0    0 -0.70461260522E+01  0.36613967692E+02 -0.16215248393E+02  0.40659129392E+02  0.00000000000E+00 0. -1.
         11    1    3    3    0    0  0.72588895339E+01 -0.18178841118E+02  0.94929211504E+01  0.21754937230E+02  0.51100000000E-03 0. -1.
        -11    1    3    3    0    0  0.54428776818E+01 -0.20860504929E+02  0.68434516178E+01  0.22618983480E+02  0.51100000000E-03 0.  1.
         12    1    3    3    0    0 -0.56556411636E+01  0.24253783551E+01 -0.12112437504E+00  0.61549498983E+01  0.00000000000E+00 0. -1.
</event>
<event>
 7    1  0.5479172E-013  0.5052886E+02  0.7816164E-02  0.1300439E+00
        -11   -1    0    0    0    0  0.00000000000E+00  0.00000000000E+00  0.45593999997E+02  0.45594000000E+02  0.51100000000E-03 0.  1.
         11   -1    0    0    0    0 -0.00000000000E+00 -0.00000000000E+00 -0.45593999997E+02  0.45594000000E+02  0.51100000000E-03 0. -1.
    9900012    2    1    2    0    0  0.48366033350E+01 -0.22761287310E+02  0.33342117158E+02  0.50528859473E+02  0.29999998855E+02 0.  0.
         12    1    1    2    0    0 -0.48366033350E+01  0.22761287310E+02 -0.33342117158E+02  0.40659140527E+02  0.00000000000E+00 0. -1.
         11    1    3    3    0    0  0.11657259733E+01 -0.49070868543E+01 -0.10474713389E+01  0.51512731346E+01  0.51100000000E-03 0.  1.
        -11    1    3    3    0    0 -0.14289765724E+01 -0.57779670462E+01 -0.23272050122E+01  0.63908341131E+01  0.51100000000E-03 0. -1.
         12    1    3    3    0    0  0.50998539341E+01 -0.12076233409E+02  0.36716793509E+02  0.38986752225E+02  0.00000000000E+00 0. -1.
</event>
<event>
 7    1  0.5479172E-013  0.5052887E+02  0.7816164E-02  0.1300439E+00
        -11   -1    0    0    0    0  0.00000000000E+00  0.00000000000E+00  0.45593999997E+02  0.45594000000E+02  0.51100000000E-03 0. -1.
         11   -1    0    0    0    0 -0.00000000000E+00 -0.00000000000E+00 -0.45593999997E+02  0.45594000000E+02  0.51100000000E-03 0.  1.
    9900012    2    1    2    0    0 -0.19374061235E+01 -0.35672944483E+02  0.19412694287E+02  0.50528865601E+02  0.30000017482E+02 0.  0.
         12    1    1    2    0    0  0.19374061235E+01  0.35672944483E+02 -0.19412694287E+02  0.40659134399E+02  0.00000000000E+00 0. -1.
         11    1    3    3    0    0  0.11945812675E+01 -0.63437834400E+01  0.70678624491E+01  0.95721101435E+01  0.51100000000E-03 0. -1.
        -11    1    3    3    0    0  0.11227098909E+02 -0.14535970220E+02  0.46019416363E+01  0.18934625616E+02  0.51100000000E-03 0.  1.
         12    1    3    3    0    0 -0.14359086300E+02 -0.14793190822E+02  0.77428902020E+01  0.22022129841E+02  0.00000000000E+00 0. -1.
</event>
<event>
 7    1  0.5479172E-013  0.5052886E+02  0.7816164E-02  0.1300439E+00
        -11   -1    0    0    0    0  0.00000000000E+00  0.00000000000E+00  0.45593999997E+02  0.45594000000E+02  0.51100000000E-03 0.  1.
         11   -1    0    0    0    0 -0.00000000000E+00 -0.00000000000E+00 -0.45593999997E+02  0.45594000000E+02  0.51100000000E-03 0. -1.
    9900012    2    1    2    0    0 -0.15003054176E+02  0.66133476765E+01  0.37206690597E+02  0.50528858011E+02  0.29999994412E+02 0.  0.
         12    1    1    2    0    0  0.15003054176E+02 -0.66133476765E+01 -0.37206690597E+02  0.40659141989E+02  0.00000000000E+00 0. -1.
         11    1    3    3    0    0 -0.44557500041E+01 -0.36752479708E+01  0.19379424825E+02  0.20221851116E+02  0.51100000000E-03 0. -1.
        -11    1    3    3    0    0 -0.82086318296E+01  0.97926234617E+01  0.22032481060E+02  0.25469733660E+02  0.51100000000E-03 0.  1.
         12    1    3    3    0    0 -0.23386723423E+01  0.49597218561E+00 -0.42052152886E+01  0.48372732357E+01  0.00000000000E+00 0. -1.
</event>
<event>
 7    1  0.5479172E-013  0.5052884E+02  0.7816164E-02  0.1300439E+00
        -11   -1    0    0    0    0  0.00000000000E+00  0.00000000000E+00  0.45593999997E+02  0.45594000000E+02  0.51100000000E-03 0. -1.
         11   -1    0    0    0    0 -0.00000000000E+00 -0.00000000000E+00 -0.45593999997E+02  0.45594000000E+02  0.51100000000E-03 0.  1.
    9900012    2    1    2    0    0  0.24082607727E+02 -0.79343110971E+01 -0.31784300496E+02  0.50528843030E+02  0.29999948873E+02 0.  0.
         12    1    1    2    0    0 -0.24082607727E+02  0.79343110971E+01  0.31784300496E+02  0.40659156970E+02  0.00000000000E+00 0. -1.
         11    1    3    3    0    0  0.12491527982E+02 -0.63257752250E+01 -0.11589185042E+02  0.18175888251E+02  0.51100000000E-03 0.  1.
        -11    1    3    3    0    0  0.66464034682E+01 -0.11852615651E+02 -0.84472101000E+01  0.16000454230E+02  0.51100000000E-03 0. -1.
        -12    1    3    3    0    0  0.49446762763E+01  0.10244079778E+02 -0.11747905354E+02  0.16352500549E+02  0.00000000000E+00 0.  1.
</event>
<event>
 7    1  0.5479172E-013  0.5052892E+02  0.7816164E-02  0.1300439E+00
        -11   -1    0    0    0    0  0.00000000000E+00  0.00000000000E+00  0.45593999997E+02  0.45594000000E+02  0.51100000000E-03 0.  1.
         11   -1    0    0    0    0 -0.00000000000E+00 -0.00000000000E+00 -0.45593999997E+02  0.45594000000E+02  0.51100000000E-03 0. -1.
    9900012    2    1    2    0    0 -0.29445969907E+02 -0.21478382900E+02 -0.18021508156E+02  0.50528919441E+02  0.30000181131E+02 0.  0.
         12    1    1    2    0    0  0.29445969907E+02  0.21478382900E+02  0.18021508156E+02  0.40659080559E+02  0.00000000000E+00 0. -1.
         11    1    3    3    0    0 -0.37165317451E+01 -0.13669065213E+02 -0.40142560347E+01  0.14723118005E+02  0.51100000000E-03 0. -1.
        -11    1    3    3    0    0 -0.24772192007E+02 -0.12295266422E+02 -0.14439915040E+02  0.31198497076E+02  0.51100000000E-03 0.  1.
        -12    1    3    3    0    0 -0.95724615466E+00  0.44859487354E+01  0.43266291883E+00  0.46073043592E+01  0.00000000000E+00 0.  1.
</event>
<event>
 7    1  0.5479172E-013  0.5052886E+02  0.7816164E-02  0.1300439E+00
        -11   -1    0    0    0    0  0.00000000000E+00  0.00000000000E+00  0.45593999997E+02  0.45594000000E+02  0.51100000000E-03 0.  1.
         11   -1    0    0    0    0 -0.00000000000E+00 -0.00000000000E+00 -0.45593999997E+02  0.45594000000E+02  0.51100000000E-03 0. -1.
    9900012    2    1    2    0    0  0.28666978507E+02 -0.22234619163E+02  0.18357330995E+02  0.50528861454E+02  0.30000004876E+02 0.  0.
         12    1    1    2    0    0 -0.28666978507E+02  0.22234619163E+02 -0.18357330995E+02  0.40659138546E+02  0.00000000000E+00 0. -1.
         11    1    3    3    0    0  0.14787928785E+01  0.67282233807E+00 -0.42904814870E+01  0.45877826809E+01  0.51100000000E-03 0. -1.
        -11    1    3    3    0    0  0.24317517191E+02 -0.97896339120E+01  0.12132353296E+02  0.28885507979E+02  0.51100000000E-03 0.  1.
        -12    1    3    3    0    0  0.28706684376E+01 -0.13117807589E+02  0.10515459187E+02  0.17055570794E+02  0.00000000000E+00 0.  1.
</event>
<event>
 7    1  0.5479172E-013  0.5052887E+02  0.7816164E-02  0.1300439E+00
        -11   -1    0    0    0    0  0.00000000000E+00  0.00000000000E+00  0.45593999997E+02  0.45594000000E+02  0.51100000000E-03 0.  1.
         11   -1    0    0    0    0 -0.00000000000E+00 -0.00000000000E+00 -0.45593999997E+02  0.45594000000E+02  0.51100000000E-03 0. -1.
    9900012    2    1    2    0    0  0.23620261879E+02 -0.15999632052E+02  0.28969978128E+02  0.50528872737E+02  0.30000039170E+02 0.  0.
         12    1    1    2    0    0 -0.23620261879E+02  0.15999632052E+02 -0.28969978128E+02  0.40659127263E+02  0.00000000000E+00 0. -1.
         11    1    3    3    0    0  0.16186663360E+02 -0.25809030940E+01  0.32334812119E+01  0.16707020457E+02  0.51100000000E-03 0. -1.
        -11    1    3    3    0    0  0.19160061108E+01 -0.15785596204E+01 -0.19839049962E+01  0.31778623612E+01  0.51100000000E-03 0.  1.
         12    1    3    3    0    0  0.55175924082E+01 -0.11840169338E+02  0.27720401913E+02  0.30643989919E+02  0.00000000000E+00 0. -1.
</event>
<event>
 7    1  0.5479172E-013  0.5052886E+02  0.7816164E-02  0.1300439E+00
        -11   -1    0    0    0    0  0.00000000000E+00  0.00000000000E+00  0.45593999997E+02  0.45594000000E+02  0.51100000000E-03 0.  1.
         11   -1    0    0    0    0 -0.00000000000E+00 -0.00000000000E+00 -0.45593999997E+02  0.45594000000E+02  0.51100000000E-03 0. -1.
    9900012    2    1    2    0    0  0.28297972217E+02  0.28751517782E+02 -0.50735415092E+01  0.50528857980E+02  0.29999994316E+02 0.  0.
         12    1    1    2    0    0 -0.28297972217E+02 -0.28751517782E+02  0.50735415092E+01  0.40659142020E+02  0.00000000000E+00 0. -1.
         11    1    3    3    0    0  0.29576792905E+01 -0.16185548382E+01  0.21018195831E+01  0.39730633484E+01  0.51100000000E-03 0. -1.
        -11    1    3    3    0    0  0.52796055062E+01  0.24492703701E+02 -0.29408354797E+01  0.25227272593E+02  0.51100000000E-03 0.  1.
         12    1    3    3    0    0  0.20060687421E+02  0.58773689192E+01 -0.42345256125E+01  0.21328522039E+02  0.00000000000E+00 0. -1.
</event>
<event>
 7    1  0.5479172E-013  0.5052887E+02  0.7816164E-02  0.1300439E+00
        -11   -1    0    0    0    0  0.00000000000E+00  0.00000000000E+00  0.45593999997E+02  0.45594000000E+02  0.51100000000E-03 0.  1.
         11   -1    0    0    0    0 -0.00000000000E+00 -0.00000000000E+00 -0.45593999997E+02  0.45594000000E+02  0.51100000000E-03 0. -1.
    9900012    2    1    2    0    0  0.29137498235E+02 -0.60978165090E+01  0.27694546774E+02  0.50528867070E+02  0.30000021947E+02 0.  0.
         12    1    1    2    0    0 -0.29137498235E+02  0.60978165090E+01 -0.27694546774E+02  0.40659132930E+02  0.00000000000E+00 0. -1.
         11    1    3    3    0    0  0.60017829616E+01 -0.12459112777E+02  0.92593938799E+01  0.16642934392E+02  0.51100000000E-03 0. -1.
        -11    1    3    3    0    0  0.21786356644E+02  0.53144807825E+00  0.11217831594E+02  0.24510559333E+02  0.51100000000E-03 0.  1.
        -12    1    3    3    0    0  0.13493586300E+01  0.58298481895E+01  0.72173212998E+01  0.93753733456E+01  0.00000000000E+00 0.  1.
</event>
<event>
 7    1  0.5479172E-013  0.5052886E+02  0.7816164E-02  0.1300439E+00
        -11   -1    0    0    0    0  0.00000000000E+00  0.00000000000E+00  0.45593999997E+02  0.45594000000E+02  0.51100000000E-03 0.  1.
         11   -1    0    0    0    0 -0.00000000000E+00 -0.00000000000E+00 -0.45593999997E+02  0.45594000000E+02  0.51100000000E-03 0. -1.
    9900012    2    1    2    0    0  0.27186063647E+02  0.30209932624E+02 -0.12015955449E+01  0.50528856900E+02  0.29999991033E+02 0.  0.
         12    1    1    2    0    0 -0.27186063647E+02 -0.30209932624E+02  0.12015955449E+01  0.40659143100E+02  0.00000000000E+00 0. -1.
         11    1    3    3    0    0 -0.27769044143E+01  0.29833136496E+01  0.13158406538E+00  0.40778270053E+01  0.51100000000E-03 0. -1.
        -11    1    3    3    0    0  0.31849158606E+01  0.14151538334E+02  0.61036944224E+01  0.15737369924E+02  0.51100000000E-03 0.  1.
         12    1    3    3    0    0  0.26778052201E+02  0.13075080640E+02 -0.74368740327E+01  0.30713659971E+02  0.00000000000E+00 0. -1.
</event>
<event>
 7    1  0.5479172E-013  0.5052886E+02  0.7816164E-02  0.1300439E+00
        -11   -1    0    0    0    0  0.00000000000E+00  0.00000000000E+00  0.45593999997E+02  0.45594000000E+02  0.51100000000E-03 0. -1.
         11   -1    0    0    0    0 -0.00000000000E+00 -0.00000000000E+00 -0.45593999997E+02  0.45594000000E+02  0.51100000000E-03 0.  1.
    9900012    2    1    2    0    0  0.29454900444E+02 -0.15230568494E+02 -0.23528799788E+02  0.50528858392E+02  0.29999995568E+02 0.  0.
         12    1    1    2    0    0 -0.29454900444E+02  0.15230568494E+02  0.23528799788E+02  0.40659141608E+02  0.00000000000E+00 0. -1.
         11    1    3    3    0    0 -0.84215517555E-01  0.19941023217E+01 -0.42566967638E+01  0.47013831925E+01  0.51100000000E-03 0. -1.
        -11    1    3    3    0    0  0.17382227791E+02  0.13927784050E+01 -0.15386013935E+02  0.23255345617E+02  0.51100000000E-03 0.  1.
        -12    1    3    3    0    0  0.12156888170E+02 -0.18617449221E+02 -0.38860890891E+01  0.22572129582E+02  0.00000000000E+00 0.  1.
</event>
<event>
 7    1  0.5479172E-013  0.5052886E+02  0.7816164E-02  0.1300439E+00
        -11   -1    0    0    0    0  0.00000000000E+00  0.00000000000E+00  0.45593999997E+02  0.45594000000E+02  0.51100000000E-03 0.  1.
         11   -1    0    0    0    0 -0.00000000000E+00 -0.00000000000E+00 -0.45593999997E+02  0.45594000000E+02  0.51100000000E-03 0. -1.
    9900012    2    1    2    0    0  0.98509822404E+01  0.18580417890E+02  0.34797872697E+02  0.50528859277E+02  0.29999998260E+02 0.  0.
         12    1    1    2    0    0 -0.98509822404E+01 -0.18580417890E+02 -0.34797872697E+02  0.40659140723E+02  0.00000000000E+00 0. -1.
         11    1    3    3    0    0 -0.37938405932E+01 -0.24572053921E+01  0.28610982988E+00  0.45291217561E+01  0.51100000000E-03 0. -1.
        -11    1    3    3    0    0  0.25384784275E+01  0.17279660475E+02  0.14042778808E+02  0.22410492537E+02  0.51100000000E-03 0.  1.
        -12    1    3    3    0    0  0.11106344406E+02  0.37579628078E+01  0.20468984058E+02  0.23589244984E+02  0.00000000000E+00 0.  1.
</event>
<event>
 7    1  0.5479172E-013  0.5052885E+02  0.7816164E-02  0.1300439E+00
        -11   -1    0    0    0    0  0.00000000000E+00  0.00000000000E+00  0.45593999997E+02  0.45594000000E+02  0.51100000000E-03 0. -1.
         11   -1    0    0    0    0 -0.00000000000E+00 -0.00000000000E+00 -0.45593999997E+02  0.45594000000E+02  0.51100000000E-03 0.  1.
    9900012    2    1    2    0    0 -0.31058696634E+01 -0.35506936721E+02 -0.19564694305E+02  0.50528852875E+02  0.29999978798E+02 0.  0.
         12    1    1    2    0    0  0.31058696634E+01  0.35506936721E+02  0.19564694305E+02  0.40659147125E+02  0.00000000000E+00 0. -1.
         11    1    3    3    0    0  0.27601411236E+01 -0.21814830763E+02 -0.13856288888E+02  0.25990420586E+02  0.51100000000E-03 0. -1.
        -11    1    3    3    0    0 -0.25625506499E+01 -0.14710179495E+02 -0.10768940581E+02  0.18409946445E+02  0.51100000000E-03 0.  1.
         12    1    3    3    0    0 -0.33034601370E+01  0.10180735366E+01  0.50605351629E+01  0.61284858438E+01  0.00000000000E+00 0. -1.
</event>
<event>
 7    1  0.5479172E-013  0.5052886E+02  0.7816164E-02  0.1300439E+00
        -11   -1    0    0    0    0  0.00000000000E+00  0.00000000000E+00  0.45593999997E+02  0.45594000000E+02  0.51100000000E-03 0.  1.
         11   -1    0    0    0    0 -0.00000000000E+00 -0.00000000000E+00 -0.45593999997E+02  0.45594000000E+02  0.51100000000E-03 0. -1.
    9900012    2    1    2    0    0 -0.10526179284E+02  0.17826640712E+02  0.34993940533E+02  0.50528862732E+02  0.30000008760E+02 0.  0.
         12    1    1    2    0    0  0.10526179284E+02 -0.17826640712E+02 -0.34993940533E+02  0.40659137268E+02  0.00000000000E+00 0. -1.
         11    1    3    3    0    0  0.77411892949E+01  0.15591051713E+01  0.15446970949E+02  0.17348363968E+02  0.51100000000E-03 0. -1.
        -11    1    3    3    0    0 -0.21675138617E+01 -0.11688995235E+01  0.43516957888E+01  0.50001698907E+01  0.51100000000E-03 0.  1.
         12    1    3    3    0    0 -0.16099854717E+02  0.17436435065E+02  0.15195273795E+02  0.28180328873E+02  0.00000000000E+00 0. -1.
</event>
<event>
 7    1  0.5479172E-013  0.5052885E+02  0.7816164E-02  0.1300439E+00
        -11   -1    0    0    0    0  0.00000000000E+00  0.00000000000E+00  0.45593999997E+02  0.45594000000E+02  0.51100000000E-03 0. -1.
         11   -1    0    0    0    0 -0.00000000000E+00 -0.00000000000E+00 -0.45593999997E+02  0.45594000000E+02  0.51100000000E-03 0.  1.
    9900012    2    1    2    0    0  0.39958531904E+02  0.24936104695E+01 -0.70896962711E+01  0.50528853940E+02  0.29999982035E+02 0.  0.
         12    1    1    2    0    0 -0.39958531904E+02 -0.24936104695E+01  0.70896962711E+01  0.40659146060E+02  0.00000000000E+00 0. -1.
         11    1    3    3    0    0  0.22100504091E+01 -0.54960960269E+00 -0.69967370803E+01  0.73580380237E+01  0.51100000000E-03 0. -1.
        -11    1    3    3    0    0  0.18433305219E+02  0.16126830770E+01  0.10313725632E+02  0.21183966217E+02  0.51100000000E-03 0.  1.
         12    1    3    3    0    0  0.19315176277E+02  0.14305369952E+01 -0.10406684823E+02  0.21986849699E+02  0.00000000000E+00 0. -1.
</event>
<event>
 7    1  0.5479172E-013  0.5052886E+02  0.7816164E-02  0.1300439E+00
        -11   -1    0    0    0    0  0.00000000000E+00  0.00000000000E+00  0.45593999997E+02  0.45594000000E+02  0.51100000000E-03 0.  1.
         11   -1    0    0    0    0 -0.00000000000E+00 -0.00000000000E+00 -0.45593999997E+02  0.45594000000E+02  0.51100000000E-03 0. -1.
    9900012    2    1    2    0    0 -0.10365144871E+02 -0.38216597111E+02  0.92315296628E+01  0.50528860033E+02  0.30000000556E+02 0.  0.
         12    1    1    2    0    0  0.10365144871E+02  0.38216597111E+02 -0.92315296628E+01  0.40659139967E+02  0.00000000000E+00 0. -1.
         11    1    3    3    0    0 -0.33557998695E+01 -0.23694996266E+02 -0.79956539526E-01  0.23931582357E+02  0.51100000000E-03 0. -1.
        -11    1    3    3    0    0 -0.31334219542E+01 -0.11173936884E+02 -0.40472371937E+01  0.12290456777E+02  0.51100000000E-03 0.  1.
         12    1    3    3    0    0 -0.38759230478E+01 -0.33476639618E+01  0.13358723396E+02  0.14306820899E+02  0.00000000000E+00 0. -1.
</event>
<event>
 7    1  0.6542882E-013  0.5052885E+02  0.7816164E-02  0.1300439E+00
        -11   -1    0    0    0    0  0.00000000000E+00  0.00000000000E+00  0.45593999997E+02  0.45594000000E+02  0.51100000000E-03 0. -1.
         11   -1    0    0    0    0 -0.00000000000E+00 -0.00000000000E+00 -0.45593999997E+02  0.45594000000E+02  0.51100000000E-03 0.  1.
    9900012    2    1    2    0    0  0.20141234750E+02 -0.34390765575E+02 -0.80481069758E+01  0.50528854411E+02  0.29999983469E+02 0.  0.
         12    1    1    2    0    0 -0.20141234750E+02  0.34390765575E+02  0.80481069758E+01  0.40659145589E+02  0.00000000000E+00 0. -1.
         11    1    3    3    0    0 -0.37074833101E+01 -0.76199270516E+01 -0.82718810167E+01  0.11841990398E+02  0.51100000000E-03 0. -1.
        -11    1    3    3    0    0  0.13161057206E+02 -0.71509803287E+01 -0.49101431227E+01  0.15762596620E+02  0.51100000000E-03 0.  1.
        -12    1    3    3    0    0  0.10687660854E+02 -0.19619858195E+02  0.51339171636E+01  0.22924267394E+02  0.00000000000E+00 0.  1.
</event>
<event>
 7    1  0.5479172E-013  0.5052890E+02  0.7816164E-02  0.1300439E+00
        -11   -1    0    0    0    0  0.00000000000E+00  0.00000000000E+00  0.45593999997E+02  0.45594000000E+02  0.51100000000E-03 0.  1.
         11   -1    0    0    0    0 -0.00000000000E+00 -0.00000000000E+00 -0.45593999997E+02  0.45594000000E+02  0.51100000000E-03 0. -1.
    9900012    2    1    2    0    0  0.22904210883E+02 -0.24682296077E+02  0.22789123841E+02  0.50528895469E+02  0.30000108269E+02 0.  0.
         12    1    1    2    0    0 -0.22904210883E+02  0.24682296077E+02 -0.22789123841E+02  0.40659104531E+02  0.00000000000E+00 0. -1.
         11    1    3    3    0    0  0.64177783200E+01 -0.11497696206E+01 -0.26926454496E+01  0.70540901981E+01  0.51100000000E-03 0. -1.
        -11    1    3    3    0    0  0.97298921032E+01 -0.61252273410E+01 -0.46603578457E+00  0.11506797988E+02  0.51100000000E-03 0.  1.
        -12    1    3    3    0    0  0.67565404594E+01 -0.17407299115E+02  0.25947805075E+02  0.31968007284E+02  0.00000000000E+00 0.  1.
</event>
<event>
 7    1  0.5479172E-013  0.5052886E+02  0.7816164E-02  0.1300439E+00
        -11   -1    0    0    0    0  0.00000000000E+00  0.00000000000E+00  0.45593999997E+02  0.45594000000E+02  0.51100000000E-03 0.  1.
         11   -1    0    0    0    0 -0.00000000000E+00 -0.00000000000E+00 -0.45593999997E+02  0.45594000000E+02  0.51100000000E-03 0. -1.
    9900012    2    1    2    0    0  0.18675466766E+02 -0.26064333302E+02  0.25000864544E+02  0.50528858872E+02  0.29999997026E+02 0.  0.
         12    1    1    2    0    0 -0.18675466766E+02  0.26064333302E+02 -0.25000864544E+02  0.40659141128E+02  0.00000000000E+00 0. -1.
         11    1    3    3    0    0  0.59350902093E+01 -0.18935525998E+02  0.23897930456E+02  0.31062686957E+02  0.51100000000E-03 0.  1.
        -11    1    3    3    0    0  0.10666814176E+02 -0.10593274352E+02  0.24037432121E+01  0.15224203357E+02  0.51100000000E-03 0. -1.
        -12    1    3    3    0    0  0.20735623804E+01  0.34644670478E+01 -0.13008091248E+01  0.42419685583E+01  0.00000000000E+00 0.  1.
</event>
<event>
 7    1  0.5479172E-013  0.5052890E+02  0.7816164E-02  0.1300439E+00
        -11   -1    0    0    0    0  0.00000000000E+00  0.00000000000E+00  0.45593999997E+02  0.45594000000E+02  0.51100000000E-03 0.  1.
         11   -1    0    0    0    0 -0.00000000000E+00 -0.00000000000E+00 -0.45593999997E+02  0.45594000000E+02  0.51100000000E-03 0. -1.
    9900012    2    1    2    0    0  0.62754384006E+01  0.33349488697E+02  0.22396269912E+02  0.50528899795E+02  0.30000121418E+02 0.  0.
         12    1    1    2    0    0 -0.62754384006E+01 -0.33349488697E+02 -0.22396269912E+02  0.40659100205E+02  0.00000000000E+00 0. -1.
         11    1    3    3    0    0 -0.55121262841E+01  0.30050771159E+01  0.91545909245E+01  0.11100475661E+02  0.51100000000E-03 0. -1.
        -11    1    3    3    0    0  0.15349992953E+01  0.12920168334E+02  0.14109708147E+02  0.19192989264E+02  0.51100000000E-03 0.  1.
        -12    1    3    3    0    0  0.10252565389E+02  0.17424243247E+02 -0.86802915926E+00  0.20235434871E+02  0.00000000000E+00 0.  1.
</event>
<event>
 7    1  0.5479172E-013  0.5052886E+02  0.7816164E-02  0.1300439E+00
        -11   -1    0    0    0    0  0.00000000000E+00  0.00000000000E+00  0.45593999997E+02  0.45594000000E+02  0.51100000000E-03 0.  1.
         11   -1    0    0    0    0 -0.00000000000E+00 -0.00000000000E+00 -0.45593999997E+02  0.45594000000E+02  0.51100000000E-03 0. -1.
    9900012    2    1    2    0    0 -0.13974915286E+02 -0.81210465925E+01  0.37308395689E+02  0.50528855347E+02  0.29999986313E+02 0.  0.
         12    1    1    2    0    0  0.13974915286E+02  0.81210465925E+01 -0.37308395689E+02  0.40659144653E+02  0.00000000000E+00 0. -1.
         11    1    3    3    0    0 -0.49359952896E+01  0.41933860820E+01  0.14525300448E+02  0.15903863986E+02  0.51100000000E-03 0. -1.
        -11    1    3    3    0    0 -0.13243461906E+02 -0.49290141357E+00  0.14197851913E+02  0.19421926636E+02  0.51100000000E-03 0.  1.
        -12    1    3    3    0    0  0.42045419091E+01 -0.11821531261E+02  0.85852433283E+01  0.15203064725E+02  0.00000000000E+00 0.  1.
</event>
<event>
 7    1  0.5479172E-013  0.5052889E+02  0.7816164E-02  0.1300439E+00
        -11   -1    0    0    0    0  0.00000000000E+00  0.00000000000E+00  0.45593999997E+02  0.45594000000E+02  0.51100000000E-03 0.  1.
         11   -1    0    0    0    0 -0.00000000000E+00 -0.00000000000E+00 -0.45593999997E+02  0.45594000000E+02  0.51100000000E-03 0. -1.
    9900012    2    1    2    0    0 -0.10682239297E+02 -0.22172564365E+02  0.32364026827E+02  0.50528891803E+02  0.30000097126E+02 0.  0.
         12    1    1    2    0    0  0.10682239297E+02  0.22172564365E+02 -0.32364026827E+02  0.40659108197E+02  0.00000000000E+00 0. -1.
         11    1    3    3    0    0  0.10097463021E+01 -0.17987765240E+02  0.14655575044E+02  0.23224236609E+02  0.51100000000E-03 0. -1.
        -11    1    3    3    0    0 -0.64533963237E+01 -0.10196716045E+02  0.69908095852E+01  0.13945994448E+02  0.51100000000E-03 0.  1.
         12    1    3    3    0    0 -0.52385892756E+01  0.60119169213E+01  0.10717642198E+02  0.13358660747E+02  0.00000000000E+00 0. -1.
</event>
<event>
 7    1  0.5479172E-013  0.5052880E+02  0.7816164E-02  0.1300439E+00
        -11   -1    0    0    0    0  0.00000000000E+00  0.00000000000E+00  0.45593999997E+02  0.45594000000E+02  0.51100000000E-03 0. -1.
         11   -1    0    0    0    0 -0.00000000000E+00 -0.00000000000E+00 -0.45593999997E+02  0.45594000000E+02  0.51100000000E-03 0.  1.
    9900012    2    1    2    0    0 -0.26004683537E+02  0.31074857725E+02 -0.33585906003E+01  0.50528800803E+02  0.29999820522E+02 0.  0.
         12    1    1    2    0    0  0.26004683537E+02 -0.31074857725E+02  0.33585906003E+01  0.40659199197E+02  0.00000000000E+00 0. -1.
         11    1    3    3    0    0  0.15987332282E+01  0.77606799070E+00 -0.63723079864E+00  0.18879334769E+01  0.51100000000E-03 0. -1.
        -11    1    3    3    0    0 -0.89581221533E+01  0.27947275623E+02  0.14755099137E+01  0.29384950179E+02  0.51100000000E-03 0.  1.
        -12    1    3    3    0    0 -0.18645294612E+02  0.23515141111E+01 -0.41968697153E+01  0.19255917148E+02  0.00000000000E+00 0.  1.
</event>
<event>
 7    1  0.5479172E-013  0.5052888E+02  0.7816164E-02  0.1300439E+00
        -11   -1    0    0    0    0  0.00000000000E+00  0.00000000000E+00  0.45593999997E+02  0.45594000000E+02  0.51100000000E-03 0.  1.
         11   -1    0    0    0    0 -0.00000000000E+00 -0.00000000000E+00 -0.45593999997E+02  0.45594000000E+02  0.51100000000E-03 0. -1.
    9900012    2    1    2    0    0  0.26288127094E+02 -0.89887615688E+01  0.29686711062E+02  0.50528877108E+02  0.30000052459E+02 0.  0.
         12    1    1    2    0    0 -0.26288127094E+02  0.89887615688E+01 -0.29686711062E+02  0.40659122892E+02  0.00000000000E+00 0. -1.
         11    1    3    3    0    0  0.10841960687E+00 -0.95986068228E+01  0.13036584764E+02  0.16189427115E+02  0.51100000000E-03 0. -1.
        -11    1    3    3    0    0  0.20123574331E+02 -0.58578720585E+01  0.13525427395E+02  0.24944139500E+02  0.51100000000E-03 0.  1.
        -12    1    3    3    0    0  0.60561331561E+01  0.64677173125E+01  0.31246989034E+01  0.93953104938E+01  0.00000000000E+00 0.  1.
</event>
<event>
 7    1  0.5479172E-013  0.5052886E+02  0.7816164E-02  0.1300439E+00
        -11   -1    0    0    0    0  0.00000000000E+00  0.00000000000E+00  0.45593999997E+02  0.45594000000E+02  0.51100000000E-03 0.  1.
         11   -1    0    0    0    0 -0.00000000000E+00 -0.00000000000E+00 -0.45593999997E+02  0.45594000000E+02  0.51100000000E-03 0. -1.
    9900012    2    1    2    0    0  0.10435601818E+02 -0.21264882714E+02  0.33046458563E+02  0.50528862704E+02  0.30000008674E+02 0.  0.
         12    1    1    2    0    0 -0.10435601818E+02  0.21264882714E+02 -0.33046458563E+02  0.40659137296E+02  0.00000000000E+00 0. -1.
         11    1    3    3    0    0  0.28671313802E+01 -0.33806204612E+01  0.81927244918E+01  0.93150293566E+01  0.51100000000E-03 0. -1.
        -11    1    3    3    0    0  0.13800828303E+02 -0.15979817827E+01  0.17357454470E+02  0.22232805346E+02  0.51100000000E-03 0.  1.
         12    1    3    3    0    0 -0.62323578653E+01 -0.16286280470E+02  0.74962796014E+01  0.18981028001E+02  0.00000000000E+00 0. -1.
</event>
<event>
 7    1  0.5479172E-013  0.5052887E+02  0.7816164E-02  0.1300439E+00
        -11   -1    0    0    0    0  0.00000000000E+00  0.00000000000E+00  0.45593999997E+02  0.45594000000E+02  0.51100000000E-03 0.  1.
         11   -1    0    0    0    0 -0.00000000000E+00 -0.00000000000E+00 -0.45593999997E+02  0.45594000000E+02  0.51100000000E-03 0. -1.
    9900012    2    1    2    0    0 -0.17544236716E+02  0.20844708216E+02  0.30180508227E+02  0.50528865978E+02  0.30000018627E+02 0.  0.
         12    1    1    2    0    0  0.17544236716E+02 -0.20844708216E+02 -0.30180508227E+02  0.40659134022E+02  0.00000000000E+00 0. -1.
         11    1    3    3    0    0 -0.42630646158E+01  0.85221752870E+01 -0.35646423255E+01  0.10173881595E+02  0.51100000000E-03 0. -1.
        -11    1    3    3    0    0 -0.22031989333E+01  0.98307563918E+01  0.10894933502E+02  0.14839050949E+02  0.51100000000E-03 0.  1.
         12    1    3    3    0    0 -0.11077973166E+02  0.24917765374E+01  0.22850217050E+02  0.25515933434E+02  0.00000000000E+00 0. -1.
</event>
<event>
 7    1  0.5479172E-013  0.5052886E+02  0.7816164E-02  0.1300439E+00
        -11   -1    0    0    0    0  0.00000000000E+00  0.00000000000E+00  0.45593999997E+02  0.45594000000E+02  0.51100000000E-03 0.  1.
         11   -1    0    0    0    0 -0.00000000000E+00 -0.00000000000E+00 -0.45593999997E+02  0.45594000000E+02  0.51100000000E-03 0. -1.
    9900012    2    1    2    0    0 -0.29019814386E+02 -0.26322403705E+02 -0.10869544437E+02  0.50528861297E+02  0.30000004398E+02 0.  0.
         12    1    1    2    0    0  0.29019814386E+02  0.26322403705E+02  0.10869544437E+02  0.40659138703E+02  0.00000000000E+00 0. -1.
         11    1    3    3    0    0 -0.12817682343E+02 -0.18644889121E+01 -0.91001541711E+01  0.15829785398E+02  0.51100000000E-03 0. -1.
        -11    1    3    3    0    0 -0.40134555022E+01  0.22369601000E+01  0.21852502575E+01  0.50879401044E+01  0.51100000000E-03 0.  1.
         12    1    3    3    0    0 -0.12188676541E+02 -0.26694874893E+02 -0.39546405238E+01  0.29611135794E+02  0.00000000000E+00 0. -1.
</event>
<event>
 7    1  0.5479172E-013  0.5052886E+02  0.7816164E-02  0.1300439E+00
        -11   -1    0    0    0    0  0.00000000000E+00  0.00000000000E+00  0.45593999997E+02  0.45594000000E+02  0.51100000000E-03 0.  1.
         11   -1    0    0    0    0 -0.00000000000E+00 -0.00000000000E+00 -0.45593999997E+02  0.45594000000E+02  0.51100000000E-03 0. -1.
    9900012    2    1    2    0    0  0.16841132286E+02 -0.26554312409E+02  0.25776157895E+02  0.50528861298E+02  0.30000004400E+02 0.  0.
         12    1    1    2    0    0 -0.16841132286E+02  0.26554312409E+02 -0.25776157895E+02  0.40659138702E+02  0.00000000000E+00 0. -1.
         11    1    3    3    0    0  0.79481109894E+01 -0.10140176790E+02  0.19631743408E+02  0.23481929289E+02  0.51100000000E-03 0. -1.
        -11    1    3    3    0    0  0.70111678414E+01 -0.97774443805E+01  0.12725671078E+02  0.17512783838E+02  0.51100000000E-03 0.  1.
         12    1    3    3    0    0  0.18818534556E+01 -0.66366912383E+01 -0.65812565909E+01  0.95341481704E+01  0.00000000000E+00 0. -1.
</event>
<event>
 7    1  0.5479172E-013  0.5052887E+02  0.7816164E-02  0.1300439E+00
        -11   -1    0    0    0    0  0.00000000000E+00  0.00000000000E+00  0.45593999997E+02  0.45594000000E+02  0.51100000000E-03 0.  1.
         11   -1    0    0    0    0 -0.00000000000E+00 -0.00000000000E+00 -0.45593999997E+02  0.45594000000E+02  0.51100000000E-03 0. -1.
    9900012    2    1    2    0    0 -0.12444997118E+02 -0.22675582371E+02  0.31370450425E+02  0.50528866352E+02  0.30000019764E+02 0.  0.
         12    1    1    2    0    0  0.12444997118E+02  0.22675582371E+02 -0.31370450425E+02  0.40659133648E+02  0.00000000000E+00 0. -1.
         11    1    3    3    0    0 -0.16386858287E+01 -0.24317868906E+01 -0.74975247125E+00  0.30267156714E+01  0.51100000000E-03 0. -1.
        -11    1    3    3    0    0  0.35454776737E+01 -0.12543312832E+02  0.19001572327E+01  0.13172536070E+02  0.51100000000E-03 0.  1.
        -12    1    3    3    0    0 -0.14351788963E+02 -0.77004826483E+01  0.30220045663E+02  0.34329614611E+02  0.00000000000E+00 0.  1.
</event>
<event>
 7    1  0.5479172E-013  0.5052886E+02  0.7816164E-02  0.1300439E+00
        -11   -1    0    0    0    0  0.00000000000E+00  0.00000000000E+00  0.45593999997E+02  0.45594000000E+02  0.51100000000E-03 0. -1.
         11   -1    0    0    0    0 -0.00000000000E+00 -0.00000000000E+00 -0.45593999997E+02  0.45594000000E+02  0.51100000000E-03 0.  1.
    9900012    2    1    2    0    0  0.31539849419E+02  0.22057592689E+02  0.13109771491E+02  0.50528860743E+02  0.30000002713E+02 0.  0.
         12    1    1    2    0    0 -0.31539849419E+02 -0.22057592689E+02 -0.13109771491E+02  0.40659139257E+02  0.00000000000E+00 0. -1.
         11    1    3    3    0    0  0.19103320693E+02  0.91510042276E+00  0.72301502195E+01  0.20446254981E+02  0.51100000000E-03 0. -1.
        -11    1    3    3    0    0  0.50451132529E+01  0.68592767988E+00 -0.37217702831E+01  0.63067613573E+01  0.51100000000E-03 0.  1.
        -12    1    3    3    0    0  0.73914154735E+01  0.20456564586E+02  0.96013915542E+01  0.23775844405E+02  0.00000000000E+00 0.  1.
</event>
<event>
 7    1  0.5479172E-013  0.5052886E+02  0.7816164E-02  0.1300439E+00
        -11   -1    0    0    0    0  0.00000000000E+00  0.00000000000E+00  0.45593999997E+02  0.45594000000E+02  0.51100000000E-03 0.  1.
         11   -1    0    0    0    0 -0.00000000000E+00 -0.00000000000E+00 -0.45593999997E+02  0.45594000000E+02  0.51100000000E-03 0. -1.
    9900012    2    1    2    0    0 -0.15555629074E+01  0.22223288695E+02  0.34012814425E+02  0.50528857344E+02  0.29999992383E+02 0.  0.
         12    1    1    2    0    0  0.15555629074E+01 -0.22223288695E+02 -0.34012814425E+02  0.40659142656E+02  0.00000000000E+00 0. -1.
         11    1    3    3    0    0  0.13784111266E+01  0.12343065000E+02  0.11243187927E+02  0.16752926486E+02  0.51100000000E-03 0. -1.
        -11    1    3    3    0    0 -0.49813292524E+01  0.13440379064E+02  0.25209049678E+02  0.28999200273E+02  0.51100000000E-03 0.  1.
         12    1    3    3    0    0  0.20473552184E+01 -0.35601553683E+01 -0.24394231802E+01  0.47767305857E+01  0.00000000000E+00 0. -1.
</event>
<event>
 7    1  0.5479172E-013  0.5052886E+02  0.7816164E-02  0.1300439E+00
        -11   -1    0    0    0    0  0.00000000000E+00  0.00000000000E+00  0.45593999997E+02  0.45594000000E+02  0.51100000000E-03 0. -1.
         11   -1    0    0    0    0 -0.00000000000E+00 -0.00000000000E+00 -0.45593999997E+02  0.45594000000E+02  0.51100000000E-03 0.  1.
    9900012    2    1    2    0    0 -0.37470360642E+02  0.53817078761E+01 -0.14838293692E+02  0.50528859995E+02  0.30000000440E+02 0.  0.
         12    1    1    2    0    0  0.37470360642E+02 -0.53817078761E+01  0.14838293692E+02  0.40659140005E+02  0.00000000000E+00 0. -1.
         11    1    3    3    0    0  0.12665268289E+01  0.15424794122E+01  0.42812369682E+01  0.47235921907E+01  0.51100000000E-03 0. -1.
        -11    1    3    3    0    0 -0.25564751439E+01 -0.15471985344E+01  0.19727196416E+01  0.35806440079E+01  0.51100000000E-03 0.  1.
        -12    1    3    3    0    0 -0.36180412327E+02  0.53864269984E+01 -0.21092250301E+02  0.42224623796E+02  0.00000000000E+00 0.  1.
</event>
<event>
 7    1  0.5479172E-013  0.5052886E+02  0.7816164E-02  0.1300439E+00
        -11   -1    0    0    0    0  0.00000000000E+00  0.00000000000E+00  0.45593999997E+02  0.45594000000E+02  0.51100000000E-03 0.  1.
         11   -1    0    0    0    0 -0.00000000000E+00 -0.00000000000E+00 -0.45593999997E+02  0.45594000000E+02  0.51100000000E-03 0. -1.
    9900012    2    1    2    0    0  0.30101088053E+01  0.10201088871E+02  0.39243375351E+02  0.50528862305E+02  0.30000007462E+02 0.  0.
         12    1    1    2    0    0 -0.30101088053E+01 -0.10201088871E+02 -0.39243375351E+02  0.40659137695E+02  0.00000000000E+00 0. -1.
         11    1    3    3    0    0  0.35647437789E+01 -0.69558408036E+01  0.20213338525E+01  0.80732218041E+01  0.51100000000E-03 0. -1.
        -11    1    3    3    0    0 -0.82643690488E+00  0.10875288521E+02  0.11000589970E+02  0.15490896628E+02  0.51100000000E-03 0.  1.
        -12    1    3    3    0    0  0.27180193135E+00  0.62816411531E+01  0.26221451528E+02  0.26964743873E+02  0.00000000000E+00 0.  1.
</event>
<event>
 7    1  0.5479172E-013  0.5052886E+02  0.7816164E-02  0.1300439E+00
        -11   -1    0    0    0    0  0.00000000000E+00  0.00000000000E+00  0.45593999997E+02  0.45594000000E+02  0.51100000000E-03 0. -1.
         11   -1    0    0    0    0 -0.00000000000E+00 -0.00000000000E+00 -0.45593999997E+02  0.45594000000E+02  0.51100000000E-03 0.  1.
    9900012    2    1    2    0    0  0.31707835720E+02  0.24949853121E+02 -0.50283204235E+01  0.50528855603E+02  0.29999987091E+02 0.  0.
         12    1    1    2    0    0 -0.31707835720E+02 -0.24949853121E+02  0.50283204235E+01  0.40659144397E+02  0.00000000000E+00 0. -1.
         11    1    3    3    0    0  0.36202978030E+01 -0.35353539447E+01 -0.53634776844E+01  0.73737491705E+01  0.51100000000E-03 0. -1.
        -11    1    3    3    0    0  0.92994973777E+01  0.24378879065E+01 -0.46073873899E+01  0.10660767690E+02  0.51100000000E-03 0.  1.
        -12    1    3    3    0    0  0.18788040540E+02  0.26047319159E+02  0.49425446509E+01  0.32494338742E+02  0.00000000000E+00 0.  1.
</event>
<event>
 7    1  0.5479172E-013  0.5052886E+02  0.7816164E-02  0.1300439E+00
        -11   -1    0    0    0    0  0.00000000000E+00  0.00000000000E+00  0.45593999997E+02  0.45594000000E+02  0.51100000000E-03 0.  1.
         11   -1    0    0    0    0 -0.00000000000E+00 -0.00000000000E+00 -0.45593999997E+02  0.45594000000E+02  0.51100000000E-03 0. -1.
    9900012    2    1    2    0    0  0.29227045032E+01  0.40128665489E+02  0.58577603494E+01  0.50528863857E+02  0.30000012181E+02 0.  0.
         12    1    1    2    0    0 -0.29227045032E+01 -0.40128665489E+02 -0.58577603494E+01  0.40659136143E+02  0.00000000000E+00 0. -1.
         11    1    3    3    0    0 -0.71191965759E+01  0.58145011433E+01  0.48466038399E+01  0.10391388380E+02  0.51100000000E-03 0. -1.
        -11    1    3    3    0    0 -0.36418843574E+01  0.15431835271E+01 -0.21180385402E+01  0.44867387477E+01  0.51100000000E-03 0.  1.
        -12    1    3    3    0    0  0.13683785437E+02  0.32770980819E+02  0.31291950497E+01  0.35650736729E+02  0.00000000000E+00 0.  1.
</event>
<event>
 7    1  0.5479172E-013  0.5052886E+02  0.7816164E-02  0.1300439E+00
        -11   -1    0    0    0    0  0.00000000000E+00  0.00000000000E+00  0.45593999997E+02  0.45594000000E+02  0.51100000000E-03 0. -1.
         11   -1    0    0    0    0 -0.00000000000E+00 -0.00000000000E+00 -0.45593999997E+02  0.45594000000E+02  0.51100000000E-03 0.  1.
    9900012    2    1    2    0    0 -0.58285104837E+01  0.10939172825E+02 -0.38723747836E+02  0.50528859785E+02  0.29999999801E+02 0.  0.
         12    1    1    2    0    0  0.58285104837E+01 -0.10939172825E+02  0.38723747836E+02  0.40659140215E+02  0.00000000000E+00 0. -1.
         11    1    3    3    0    0 -0.56037339903E+01  0.73173434733E+01 -0.31804015431E+01  0.97498874033E+01  0.51100000000E-03 0. -1.
        -11    1    3    3    0    0  0.77615003831E+01  0.77400336925E+01 -0.18193184551E+02  0.21240079428E+02  0.51100000000E-03 0.  1.
        -12    1    3    3    0    0 -0.79862768765E+01 -0.41182043406E+01 -0.17350161743E+02  0.19538892953E+02  0.00000000000E+00 0.  1.
</event>
<event>
 7    1  0.5479172E-013  0.5052887E+02  0.7816164E-02  0.1300439E+00
        -11   -1    0    0    0    0  0.00000000000E+00  0.00000000000E+00  0.45593999997E+02  0.45594000000E+02  0.51100000000E-03 0.  1.
         11   -1    0    0    0    0 -0.00000000000E+00 -0.00000000000E+00 -0.45593999997E+02  0.45594000000E+02  0.51100000000E-03 0. -1.
    9900012    2    1    2    0    0 -0.12378806422E+02 -0.33667883078E+02  0.19141676188E+02  0.50528868594E+02  0.30000026580E+02 0.  0.
         12    1    1    2    0    0  0.12378806422E+02  0.33667883078E+02 -0.19141676188E+02  0.40659131406E+02  0.00000000000E+00 0. -1.
         11    1    3    3    0    0 -0.25133796390E+01 -0.28411507993E+01  0.28948662869E+01  0.47717361782E+01  0.51100000000E-03 0.  1.
        -11    1    3    3    0    0  0.32780098156E+01 -0.22156430675E+02 -0.97944416545E+00  0.22419011569E+02  0.51100000000E-03 0. -1.
         12    1    3    3    0    0 -0.13143436598E+02 -0.86703016037E+01  0.17226254066E+02  0.23338120847E+02  0.00000000000E+00 0. -1.
</event>
<event>
 7    1  0.5479172E-013  0.5052887E+02  0.7816164E-02  0.1300439E+00
        -11   -1    0    0    0    0  0.00000000000E+00  0.00000000000E+00  0.45593999997E+02  0.45594000000E+02  0.51100000000E-03 0.  1.
         11   -1    0    0    0    0 -0.00000000000E+00 -0.00000000000E+00 -0.45593999997E+02  0.45594000000E+02  0.51100000000E-03 0. -1.
    9900012    2    1    2    0    0  0.89422049741E+01  0.38480489555E+02 -0.96152975757E+01  0.50528867524E+02  0.30000023326E+02 0.  0.
         12    1    1    2    0    0 -0.89422049741E+01 -0.38480489555E+02  0.96152975757E+01  0.40659132476E+02  0.00000000000E+00 0. -1.
         11    1    3    3    0    0  0.73653730242E+01  0.38103616455E+01  0.35260456232E+01  0.90111360912E+01  0.51100000000E-03 0. -1.
        -11    1    3    3    0    0  0.90812825910E+01  0.15103169679E+02 -0.18696041685E+01  0.17722044122E+02  0.51100000000E-03 0.  1.
         12    1    3    3    0    0 -0.75044506411E+01  0.19566958230E+02 -0.11271739030E+02  0.23795687311E+02  0.00000000000E+00 0. -1.
</event>
<event>
 7    1  0.5479172E-013  0.5052886E+02  0.7816164E-02  0.1300439E+00
        -11   -1    0    0    0    0  0.00000000000E+00  0.00000000000E+00  0.45593999997E+02  0.45594000000E+02  0.51100000000E-03 0. -1.
         11   -1    0    0    0    0 -0.00000000000E+00 -0.00000000000E+00 -0.45593999997E+02  0.45594000000E+02  0.51100000000E-03 0.  1.
    9900012    2    1    2    0    0  0.26277974168E+01  0.35974519102E+02  0.18764180090E+02  0.50528858367E+02  0.29999995493E+02 0.  0.
         12    1    1    2    0    0 -0.26277974168E+01 -0.35974519102E+02 -0.18764180090E+02  0.40659141633E+02  0.00000000000E+00 0. -1.
         11    1    3    3    0    0 -0.16129464587E+01  0.11978827705E+01 -0.70901296269E+00  0.21305443091E+01  0.51100000000E-03 0. -1.
        -11    1    3    3    0    0  0.70485475494E+01  0.30408090309E+02  0.32721920167E+01  0.31385366330E+02  0.51100000000E-03 0.  1.
        -12    1    3    3    0    0 -0.28078036739E+01  0.43685460217E+01  0.16201001036E+02  0.17012947728E+02  0.00000000000E+00 0.  1.
</event>
<event>
 7    1  0.5479172E-013  0.5052885E+02  0.7816164E-02  0.1300439E+00
        -11   -1    0    0    0    0  0.00000000000E+00  0.00000000000E+00  0.45593999997E+02  0.45594000000E+02  0.51100000000E-03 0.  1.
         11   -1    0    0    0    0 -0.00000000000E+00 -0.00000000000E+00 -0.45593999997E+02  0.45594000000E+02  0.51100000000E-03 0. -1.
    9900012    2    1    2    0    0  0.37400811537E+02  0.93567299777E+01 -0.12914991693E+02  0.50528854536E+02  0.29999983846E+02 0.  0.
         12    1    1    2    0    0 -0.37400811537E+02 -0.93567299777E+01  0.12914991693E+02  0.40659145464E+02  0.00000000000E+00 0. -1.
         11    1    3    3    0    0  0.37537832760E+01 -0.19638580132E+01 -0.72613602269E+01  0.84068412490E+01  0.51100000000E-03 0. -1.
        -11    1    3    3    0    0  0.24936829219E+01  0.16520297952E+01 -0.88545312302E+01  0.93461425479E+01  0.51100000000E-03 0.  1.
        -12    1    3    3    0    0  0.31153345339E+02  0.96685581956E+01  0.32008997641E+01  0.32775870739E+02  0.00000000000E+00 0.  1.
</event>
<event>
 7    1  0.5479172E-013  0.5052886E+02  0.7816164E-02  0.1300439E+00
        -11   -1    0    0    0    0  0.00000000000E+00  0.00000000000E+00  0.45593999997E+02  0.45594000000E+02  0.51100000000E-03 0.  1.
         11   -1    0    0    0    0 -0.00000000000E+00 -0.00000000000E+00 -0.45593999997E+02  0.45594000000E+02  0.51100000000E-03 0. -1.
    9900012    2    1    2    0    0  0.16745322681E+02 -0.17411264247E+02  0.32704862375E+02  0.50528856165E+02  0.29999988801E+02 0.  0.
         12    1    1    2    0    0 -0.16745322681E+02  0.17411264247E+02 -0.32704862375E+02  0.40659143835E+02  0.00000000000E+00 0. -1.
         11    1    3    3    0    0 -0.46179339034E+01  0.99865440325E+00  0.28384146686E+01  0.55117349578E+01  0.51100000000E-03 0. -1.
        -11    1    3    3    0    0  0.13759754185E+02 -0.17075804060E+00  0.14452282182E+02  0.19955662206E+02  0.51100000000E-03 0.  1.
         12    1    3    3    0    0  0.76035023994E+01 -0.18239160609E+02  0.15414165524E+02  0.25061459002E+02  0.00000000000E+00 0. -1.
</event>
<event>
 7    1  0.5479172E-013  0.5052887E+02  0.7816164E-02  0.1300439E+00
        -11   -1    0    0    0    0  0.00000000000E+00  0.00000000000E+00  0.45593999997E+02  0.45594000000E+02  0.51100000000E-03 0.  1.
         11   -1    0    0    0    0 -0.00000000000E+00 -0.00000000000E+00 -0.45593999997E+02  0.45594000000E+02  0.51100000000E-03 0. -1.
    9900012    2    1    2    0    0 -0.75192633698E+01  0.37743012761E+01  0.39779146937E+02  0.50528865691E+02  0.30000017753E+02 0.  0.
         12    1    1    2    0    0  0.75192633698E+01 -0.37743012761E+01 -0.39779146937E+02  0.40659134309E+02  0.00000000000E+00 0. -1.
         11    1    3    3    0    0  0.47630032758E+01  0.10276345980E+01  0.61927525733E+01  0.78798742228E+01  0.51100000000E-03 0. -1.
        -11    1    3    3    0    0 -0.12457630288E+02 -0.76352787351E+01  0.25874486586E+02  0.29714964077E+02  0.51100000000E-03 0.  1.
         12    1    3    3    0    0  0.17536364219E+00  0.10381945413E+02  0.77119077780E+01  0.12934027391E+02  0.00000000000E+00 0. -1.
</event>
<event>
 7    1  0.5479172E-013  0.5052885E+02  0.7816164E-02  0.1300439E+00
        -11   -1    0    0    0    0  0.00000000000E+00  0.00000000000E+00  0.45593999997E+02  0.45594000000E+02  0.51100000000E-03 0.  1.
         11   -1    0    0    0    0 -0.00000000000E+00 -0.00000000000E+00 -0.45593999997E+02  0.45594000000E+02  0.51100000000E-03 0. -1.
    9900012    2    1    2    0    0  0.16266675806E+02 -0.35864086618E+02  0.10115788438E+02  0.50528848184E+02  0.29999964539E+02 0.  0.
         12    1    1    2    0    0 -0.16266675806E+02  0.35864086618E+02 -0.10115788438E+02  0.40659151816E+02  0.00000000000E+00 0. -1.
         11    1    3    3    0    0 -0.23188848373E+01 -0.11174355263E+01 -0.22946534973E+01  0.34483799062E+01  0.51100000000E-03 0. -1.
        -11    1    3    3    0    0  0.14222144440E+02 -0.31603724825E+02  0.12348181320E+01  0.34678373540E+02  0.51100000000E-03 0.  1.
         12    1    3    3    0    0  0.43634162028E+01 -0.31429262660E+01  0.11175623804E+02  0.12402094737E+02  0.00000000000E+00 0. -1.
</event>
<event>
 7    1  0.5479172E-013  0.5052897E+02  0.7816164E-02  0.1300438E+00
        -11   -1    0    0    0    0  0.00000000000E+00  0.00000000000E+00  0.45593999997E+02  0.45594000000E+02  0.51100000000E-03 0.  1.
         11   -1    0    0    0    0 -0.00000000000E+00 -0.00000000000E+00 -0.45593999997E+02  0.45594000000E+02  0.51100000000E-03 0. -1.
    9900012    2    1    2    0    0  0.30363424983E+02 -0.24091022886E+02 -0.12281766162E+02  0.50528969755E+02  0.30000334066E+02 0.  0.
         12    1    1    2    0    0 -0.30363424983E+02  0.24091022886E+02  0.12281766162E+02  0.40659030245E+02  0.00000000000E+00 0. -1.
         11    1    3    3    0    0 -0.21961059346E+01 -0.93133522228E+00 -0.16114945847E+00  0.23908651115E+01  0.51100000000E-03 0. -1.
        -11    1    3    3    0    0 -0.22059804605E+00  0.15777369028E+00  0.45754976097E+01  0.45835286268E+01  0.51100000000E-03 0.  1.
         12    1    3    3    0    0  0.32780128963E+02 -0.23317461354E+02 -0.16696114313E+02  0.43554576017E+02  0.00000000000E+00 0. -1.
</event>
<event>
 7    1  0.5479172E-013  0.5052885E+02  0.7816164E-02  0.1300439E+00
        -11   -1    0    0    0    0  0.00000000000E+00  0.00000000000E+00  0.45593999997E+02  0.45594000000E+02  0.51100000000E-03 0. -1.
         11   -1    0    0    0    0 -0.00000000000E+00 -0.00000000000E+00 -0.45593999997E+02  0.45594000000E+02  0.51100000000E-03 0.  1.
    9900012    2    1    2    0    0  0.33321177521E+02 -0.15018150081E+02 -0.17813493485E+02  0.50528852771E+02  0.29999978483E+02 0.  0.
         12    1    1    2    0    0 -0.33321177521E+02  0.15018150081E+02  0.17813493485E+02  0.40659147229E+02  0.00000000000E+00 0. -1.
         11    1    3    3    0    0  0.36122428451E-01 -0.10760908336E+02 -0.11696609121E+02  0.15893681708E+02  0.51100000000E-03 0. -1.
        -11    1    3    3    0    0  0.14293553178E+01 -0.10193740212E+01  0.71326902950E+00  0.18949757226E+01  0.51100000000E-03 0.  1.
         12    1    3    3    0    0  0.31855699775E+02 -0.32378677230E+01 -0.68301533937E+01  0.32740195340E+02  0.00000000000E+00 0. -1.
</event>
<event>
 7    1  0.7097008E-013  0.5052885E+02  0.7816164E-02  0.1300439E+00
        -11   -1    0    0    0    0  0.00000000000E+00  0.00000000000E+00  0.45593999997E+02  0.45594000000E+02  0.51100000000E-03 0.  1.
         11   -1    0    0    0    0 -0.00000000000E+00 -0.00000000000E+00 -0.45593999997E+02  0.45594000000E+02  0.51100000000E-03 0. -1.
    9900012    2    1    2    0    0 -0.35669110537E+02  0.18759908708E+02  0.53801929366E+01  0.50528854691E+02  0.29999984318E+02 0.  0.
         12    1    1    2    0    0  0.35669110537E+02 -0.18759908708E+02 -0.53801929366E+01  0.40659145309E+02  0.00000000000E+00 0. -1.
         11    1    3    3    0    0 -0.42595558043E+01  0.27761777309E+01  0.10841957170E+02  0.11974932734E+02  0.51100000000E-03 0.  1.
        -11    1    3    3    0    0 -0.47533905715E+01  0.60476683371E-01 -0.58036672191E+01  0.75020619036E+01  0.51100000000E-03 0. -1.
        -12    1    3    3    0    0 -0.26656164161E+02  0.15923254294E+02  0.34190298529E+00  0.31051860053E+02  0.00000000000E+00 0.  1.
</event>
<event>
 7    1  0.5479172E-013  0.5052885E+02  0.7816164E-02  0.1300439E+00
        -11   -1    0    0    0    0  0.00000000000E+00  0.00000000000E+00  0.45593999997E+02  0.45594000000E+02  0.51100000000E-03 0.  1.
         11   -1    0    0    0    0 -0.00000000000E+00 -0.00000000000E+00 -0.45593999997E+02  0.45594000000E+02  0.51100000000E-03 0. -1.
    9900012    2    1    2    0    0  0.88753967084E+01 -0.39825097701E+01  0.39478262463E+02  0.50528852716E+02  0.29999978315E+02 0.  0.
         12    1    1    2    0    0 -0.88753967084E+01  0.39825097701E+01 -0.39478262463E+02  0.40659147284E+02  0.00000000000E+00 0. -1.
         11    1    3    3    0    0 -0.34422720153E+01  0.39377625498E+01  0.26668786982E+02  0.27176817508E+02  0.51100000000E-03 0. -1.
        -11    1    3    3    0    0 -0.27607421130E+01 -0.10690661169E+01  0.18018956834E+01  0.34657506679E+01  0.51100000000E-03 0.  1.
        -12    1    3    3    0    0  0.15078410837E+02 -0.68512062030E+01  0.11007579798E+02  0.19886284540E+02  0.00000000000E+00 0.  1.
</event>
<event>
 7    1  0.5479172E-013  0.5052886E+02  0.7816164E-02  0.1300439E+00
        -11   -1    0    0    0    0  0.00000000000E+00  0.00000000000E+00  0.45593999997E+02  0.45594000000E+02  0.51100000000E-03 0.  1.
         11   -1    0    0    0    0 -0.00000000000E+00 -0.00000000000E+00 -0.45593999997E+02  0.45594000000E+02  0.51100000000E-03 0. -1.
    9900012    2    1    2    0    0  0.23826508288E+02 -0.30716796255E+02  0.11913924463E+02  0.50528860001E+02  0.30000000459E+02 0.  0.
         12    1    1    2    0    0 -0.23826508288E+02  0.30716796255E+02 -0.11913924463E+02  0.40659139999E+02  0.00000000000E+00 0. -1.
         11    1    3    3    0    0 -0.10025244551E+01  0.18514904101E+01 -0.37606327396E+01  0.43099223757E+01  0.51100000000E-03 0. -1.
        -11    1    3    3    0    0  0.28666436280E+01  0.12420675646E+01  0.16419017482E+01  0.35293369259E+01  0.51100000000E-03 0.  1.
         12    1    3    3    0    0  0.21962389115E+02 -0.33810354230E+02  0.14032655454E+02  0.42689600699E+02  0.00000000000E+00 0. -1.
</event>
<event>
 7    1  0.5479172E-013  0.5052886E+02  0.7816164E-02  0.1300439E+00
        -11   -1    0    0    0    0  0.00000000000E+00  0.00000000000E+00  0.45593999997E+02  0.45594000000E+02  0.51100000000E-03 0.  1.
         11   -1    0    0    0    0 -0.00000000000E+00 -0.00000000000E+00 -0.45593999997E+02  0.45594000000E+02  0.51100000000E-03 0. -1.
    9900012    2    1    2    0    0 -0.53640845064E+01  0.39345157056E+02  0.87378954402E+01  0.50528860768E+02  0.30000002790E+02 0.  0.
         12    1    1    2    0    0  0.53640845064E+01 -0.39345157056E+02 -0.87378954402E+01  0.40659139232E+02  0.00000000000E+00 0. -1.
         11    1    3    3    0    0 -0.83836801118E+01  0.12899871809E+02  0.23169556684E+01  0.15558311886E+02  0.51100000000E-03 0. -1.
        -11    1    3    3    0    0 -0.84340587119E+01  0.76672240002E+01 -0.16989107017E+01  0.11524147173E+02  0.51100000000E-03 0.  1.
         12    1    3    3    0    0  0.11453654317E+02  0.18778061247E+02  0.81198504734E+01  0.23446401709E+02  0.00000000000E+00 0. -1.
</event>
<event>
 7    1  0.5479172E-013  0.5052886E+02  0.7816164E-02  0.1300439E+00
        -11   -1    0    0    0    0  0.00000000000E+00  0.00000000000E+00  0.45593999997E+02  0.45594000000E+02  0.51100000000E-03 0.  1.
         11   -1    0    0    0    0 -0.00000000000E+00 -0.00000000000E+00 -0.45593999997E+02  0.45594000000E+02  0.51100000000E-03 0. -1.
    9900012    2    1    2    0    0  0.24405270100E+02 -0.32213108703E+02  0.44569251977E+01  0.50528858799E+02  0.29999996806E+02 0.  0.
         12    1    1    2    0    0 -0.24405270100E+02  0.32213108703E+02 -0.44569251977E+01  0.40659141201E+02  0.00000000000E+00 0. -1.
         11    1    3    3    0    0  0.18667091153E+01 -0.43538034386E+01  0.37662363630E+00  0.47520577572E+01  0.51100000000E-03 0.  1.
        -11    1    3    3    0    0 -0.28744672962E+00 -0.18131660867E+02  0.93627571444E+01  0.20408355471E+02  0.51100000000E-03 0. -1.
         12    1    3    3    0    0  0.22826007715E+02 -0.97276443972E+01 -0.52824555830E+01  0.25368445571E+02  0.00000000000E+00 0. -1.
</event>
<event>
 7    1  0.5479172E-013  0.5052884E+02  0.7816164E-02  0.1300439E+00
        -11   -1    0    0    0    0  0.00000000000E+00  0.00000000000E+00  0.45593999997E+02  0.45594000000E+02  0.51100000000E-03 0. -1.
         11   -1    0    0    0    0 -0.00000000000E+00 -0.00000000000E+00 -0.45593999997E+02  0.45594000000E+02  0.51100000000E-03 0.  1.
    9900012    2    1    2    0    0 -0.12609528203E+02 -0.36217397088E+02 -0.13508041857E+02  0.50528840538E+02  0.29999941301E+02 0.  0.
         12    1    1    2    0    0  0.12609528203E+02  0.36217397088E+02  0.13508041857E+02  0.40659159462E+02  0.00000000000E+00 0. -1.
         11    1    3    3    0    0 -0.13869375204E+02 -0.65125528406E+01 -0.79060866761E+01  0.17241784126E+02  0.51100000000E-03 0. -1.
        -11    1    3    3    0    0 -0.18769955396E+01 -0.95031540244E+01  0.42681320305E+01  0.10585367257E+02  0.51100000000E-03 0.  1.
         12    1    3    3    0    0  0.31368425406E+01 -0.20201690223E+02 -0.98700872113E+01  0.22701689156E+02  0.00000000000E+00 0. -1.
</event>
<event>
 7    1  0.5479172E-013  0.5052886E+02  0.7816164E-02  0.1300439E+00
        -11   -1    0    0    0    0  0.00000000000E+00  0.00000000000E+00  0.45593999997E+02  0.45594000000E+02  0.51100000000E-03 0.  1.
         11   -1    0    0    0    0 -0.00000000000E+00 -0.00000000000E+00 -0.45593999997E+02  0.45594000000E+02  0.51100000000E-03 0. -1.
    9900012    2    1    2    0    0  0.31672264165E+02 -0.18060400831E+02  0.17995987113E+02  0.50528856531E+02  0.29999989911E+02 0.  0.
         12    1    1    2    0    0 -0.31672264165E+02  0.18060400831E+02 -0.17995987113E+02  0.40659143469E+02  0.00000000000E+00 0. -1.
         11    1    3    3    0    0  0.29665984449E+01 -0.42206352299E+01  0.88475127193E+01  0.10241725912E+02  0.51100000000E-03 0. -1.
        -11    1    3    3    0    0  0.76028557395E+01 -0.79495344738E+01  0.14042356097E+02  0.17837776732E+02  0.51100000000E-03 0.  1.
        -12    1    3    3    0    0  0.21102809980E+02 -0.58902311272E+01 -0.48938817033E+01  0.22449353887E+02  0.00000000000E+00 0.  1.
</event>
<event>
 7    1  0.5479172E-013  0.5052886E+02  0.7816164E-02  0.1300439E+00
        -11   -1    0    0    0    0  0.00000000000E+00  0.00000000000E+00  0.45593999997E+02  0.45594000000E+02  0.51100000000E-03 0.  1.
         11   -1    0    0    0    0 -0.00000000000E+00 -0.00000000000E+00 -0.45593999997E+02  0.45594000000E+02  0.51100000000E-03 0. -1.
    9900012    2    1    2    0    0 -0.19367787216E+02 -0.20114065522E+02  0.29554672754E+02  0.50528862096E+02  0.30000006828E+02 0.  0.
         12    1    1    2    0    0  0.19367787216E+02  0.20114065522E+02 -0.29554672754E+02  0.40659137904E+02  0.00000000000E+00 0. -1.
         11    1    3    3    0    0 -0.36195741804E+01  0.42761780188E+01  0.12213772822E+01  0.57340019552E+01  0.51100000000E-03 0. -1.
        -11    1    3    3    0    0 -0.62388558040E+01 -0.26064688660E+01 -0.12184854752E+01  0.68703499770E+01  0.51100000000E-03 0.  1.
         12    1    3    3    0    0 -0.95093572315E+01 -0.21783774675E+02  0.29551780947E+02  0.37924510164E+02  0.00000000000E+00 0. -1.
</event>
<event>
 7    1  0.5479172E-013  0.5052886E+02  0.7816164E-02  0.1300439E+00
        -11   -1    0    0    0    0  0.00000000000E+00  0.00000000000E+00  0.45593999997E+02  0.45594000000E+02  0.51100000000E-03 0.  1.
         11   -1    0    0    0    0 -0.00000000000E+00 -0.00000000000E+00 -0.45593999997E+02  0.45594000000E+02  0.51100000000E-03 0. -1.
    9900012    2    1    2    0    0 -0.30049477458E+02 -0.21870036623E+02  0.16489278080E+02  0.50528857252E+02  0.29999992104E+02 0.  0.
         12    1    1    2    0    0  0.30049477458E+02  0.21870036623E+02 -0.16489278080E+02  0.40659142748E+02  0.00000000000E+00 0. -1.
         11    1    3    3    0    0 -0.24339026802E+01  0.29017027833E+01  0.33636814075E+01  0.50653839116E+01  0.51100000000E-03 0. -1.
        -11    1    3    3    0    0 -0.87048313702E+00 -0.10712204831E+02 -0.30752287255E+01  0.11178823963E+02  0.51100000000E-03 0.  1.
        -12    1    3    3    0    0 -0.26745091641E+02 -0.14059534576E+02  0.16200825398E+02  0.34284649377E+02  0.00000000000E+00 0.  1.
</event>
<event>
 7    1  0.5479172E-013  0.5052886E+02  0.7816164E-02  0.1300439E+00
        -11   -1    0    0    0    0  0.00000000000E+00  0.00000000000E+00  0.45593999997E+02  0.45594000000E+02  0.51100000000E-03 0. -1.
         11   -1    0    0    0    0 -0.00000000000E+00 -0.00000000000E+00 -0.45593999997E+02  0.45594000000E+02  0.51100000000E-03 0.  1.
    9900012    2    1    2    0    0  0.31900256851E+02  0.34128573276E+01 -0.24977830451E+02  0.50528855932E+02  0.29999988092E+02 0.  0.
         12    1    1    2    0    0 -0.31900256851E+02 -0.34128573276E+01  0.24977830451E+02  0.40659144068E+02  0.00000000000E+00 0. -1.
         11    1    3    3    0    0 -0.26913810018E+01  0.47619658305E+00 -0.12302348859E+01  0.29972942829E+01  0.51100000000E-03 0. -1.
        -11    1    3    3    0    0 -0.27782688586E+01 -0.32692476740E+00 -0.46778419650E+01  0.54504920296E+01  0.51100000000E-03 0.  1.
        -12    1    3    3    0    0  0.37369906711E+02  0.32635855120E+01 -0.19069753600E+02  0.42081069620E+02  0.00000000000E+00 0.  1.
</event>
<event>
 7    1  0.5479172E-013  0.5052886E+02  0.7816164E-02  0.1300439E+00
        -11   -1    0    0    0    0  0.00000000000E+00  0.00000000000E+00  0.45593999997E+02  0.45594000000E+02  0.51100000000E-03 0.  1.
         11   -1    0    0    0    0 -0.00000000000E+00 -0.00000000000E+00 -0.45593999997E+02  0.45594000000E+02  0.51100000000E-03 0. -1.
    9900012    2    1    2    0    0  0.15923883998E+02  0.29896512682E+02  0.22489859081E+02  0.50528864328E+02  0.30000013611E+02 0.  0.
         12    1    1    2    0    0 -0.15923883998E+02 -0.29896512682E+02 -0.22489859081E+02  0.40659135672E+02  0.00000000000E+00 0. -1.
         11    1    3    3    0    0  0.74583962667E+01  0.67587855705E+01 -0.17044960423E+01  0.10208533895E+02  0.51100000000E-03 0. -1.
        -11    1    3    3    0    0  0.15684315342E+01 -0.26782345897E+01 -0.13213691484E+01  0.33732676565E+01  0.51100000000E-03 0.  1.
        -12    1    3    3    0    0  0.68970561974E+01  0.25815961701E+02  0.25515724272E+02  0.36947062777E+02  0.00000000000E+00 0.  1.
</event>
<event>
 7    1  0.5479172E-013  0.5052886E+02  0.7816164E-02  0.1300439E+00
        -11   -1    0    0    0    0  0.00000000000E+00  0.00000000000E+00  0.45593999997E+02  0.45594000000E+02  0.51100000000E-03 0. -1.
         11   -1    0    0    0    0 -0.00000000000E+00 -0.00000000000E+00 -0.45593999997E+02  0.45594000000E+02  0.51100000000E-03 0.  1.
    9900012    2    1    2    0    0 -0.39232367062E+02 -0.10396045989E+02 -0.24308221502E+01  0.50528864571E+02  0.30000014351E+02 0.  0.
         12    1    1    2    0    0  0.39232367062E+02  0.10396045989E+02  0.24308221502E+01  0.40659135429E+02  0.00000000000E+00 0. -1.
         11    1    3    3    0    0 -0.10849701090E+02 -0.26584920717E+01  0.86003519125E+01  0.14097859665E+02  0.51100000000E-03 0. -1.
        -11    1    3    3    0    0 -0.10080379652E+02  0.58823151598E+01 -0.17507114033E+01  0.11801723444E+02  0.51100000000E-03 0.  1.
        -12    1    3    3    0    0 -0.18302286319E+02 -0.13619869077E+02 -0.92804626594E+01  0.24629281462E+02  0.00000000000E+00 0.  1.
</event>
<event>
 7    1  0.5479172E-013  0.5052887E+02  0.7816164E-02  0.1300439E+00
        -11   -1    0    0    0    0  0.00000000000E+00  0.00000000000E+00  0.45593999997E+02  0.45594000000E+02  0.51100000000E-03 0.  1.
         11   -1    0    0    0    0 -0.00000000000E+00 -0.00000000000E+00 -0.45593999997E+02  0.45594000000E+02  0.51100000000E-03 0. -1.
    9900012    2    1    2    0    0  0.35208408106E+02  0.84662232869E+01 -0.18489342712E+02  0.50528871479E+02  0.30000035349E+02 0.  0.
         12    1    1    2    0    0 -0.35208408106E+02 -0.84662232869E+01  0.18489342712E+02  0.40659128521E+02  0.00000000000E+00 0. -1.
         11    1    3    3    0    0 -0.17645516455E+01  0.19669415375E+01 -0.76490243323E+01  0.80925938375E+01  0.51100000000E-03 0. -1.
        -11    1    3    3    0    0  0.32590694120E+01 -0.32491177574E+01 -0.51095673484E+01  0.68764800867E+01  0.51100000000E-03 0.  1.
        -12    1    3    3    0    0  0.33713890340E+02  0.97483995067E+01 -0.57307510312E+01  0.35559797555E+02  0.00000000000E+00 0.  1.
</event>
<event>
 7    1  0.5479172E-013  0.5052886E+02  0.7816164E-02  0.1300439E+00
        -11   -1    0    0    0    0  0.00000000000E+00  0.00000000000E+00  0.45593999997E+02  0.45594000000E+02  0.51100000000E-03 0. -1.
         11   -1    0    0    0    0 -0.00000000000E+00 -0.00000000000E+00 -0.45593999997E+02  0.45594000000E+02  0.51100000000E-03 0.  1.
    9900012    2    1    2    0    0  0.32234565719E+02  0.87346913669E+01 -0.23190600806E+02  0.50528855566E+02  0.29999986979E+02 0.  0.
         12    1    1    2    0    0 -0.32234565719E+02 -0.87346913669E+01  0.23190600806E+02  0.40659144434E+02  0.00000000000E+00 0. -1.
         11    1    3    3    0    0  0.21931680371E+02  0.13114984227E+00 -0.10324223014E+02  0.24240573122E+02  0.51100000000E-03 0. -1.
        -11    1    3    3    0    0  0.15488725179E+02  0.40181996624E+01 -0.90742781317E+01  0.18395354307E+02  0.51100000000E-03 0.  1.
         12    1    3    3    0    0 -0.51858398312E+01  0.45853418622E+01 -0.37920996605E+01  0.78929281375E+01  0.00000000000E+00 0. -1.
</event>
<event>
 7    1  0.5479172E-013  0.5052886E+02  0.7816164E-02  0.1300439E+00
        -11   -1    0    0    0    0  0.00000000000E+00  0.00000000000E+00  0.45593999997E+02  0.45594000000E+02  0.51100000000E-03 0.  1.
         11   -1    0    0    0    0 -0.00000000000E+00 -0.00000000000E+00 -0.45593999997E+02  0.45594000000E+02  0.51100000000E-03 0. -1.
    9900012    2    1    2    0    0 -0.11537623278E+02 -0.16682725493E+02  0.35238267586E+02  0.50528861012E+02  0.30000003532E+02 0.  0.
         12    1    1    2    0    0  0.11537623278E+02  0.16682725493E+02 -0.35238267586E+02  0.40659138988E+02  0.00000000000E+00 0. -1.
         11    1    3    3    0    0 -0.30296937203E+01 -0.11668315167E+02  0.17717716119E+00  0.12056534116E+02  0.51100000000E-03 0. -1.
        -11    1    3    3    0    0  0.18227638497E+01 -0.26348627031E+01  0.20569162742E+01  0.38073447882E+01  0.51100000000E-03 0.  1.
        -12    1    3    3    0    0 -0.10330693407E+02 -0.23795476223E+01  0.33004174151E+02  0.34664982108E+02  0.00000000000E+00 0.  1.
</event>
<event>
 7    1  0.5479172E-013  0.5052886E+02  0.7816164E-02  0.1300439E+00
        -11   -1    0    0    0    0  0.00000000000E+00  0.00000000000E+00  0.45593999997E+02  0.45594000000E+02  0.51100000000E-03 0. -1.
         11   -1    0    0    0    0 -0.00000000000E+00 -0.00000000000E+00 -0.45593999997E+02  0.45594000000E+02  0.51100000000E-03 0.  1.
    9900012    2    1    2    0    0  0.35857301552E+02 -0.43681763771E+01 -0.18663828987E+02  0.50528861397E+02  0.30000004702E+02 0.  0.
         12    1    1    2    0    0 -0.35857301552E+02  0.43681763771E+01  0.18663828987E+02  0.40659138603E+02  0.00000000000E+00 0. -1.
         11    1    3    3    0    0  0.68539940108E+01  0.37170255826E+01 -0.26376441680E+01  0.82310801296E+01  0.51100000000E-03 0. -1.
        -11    1    3    3    0    0  0.72789455645E+01 -0.31404735690E+01 -0.18259478858E+02  0.19906134512E+02  0.51100000000E-03 0.  1.
         12    1    3    3    0    0  0.21724361977E+02 -0.49447283907E+01  0.22332940384E+01  0.22391646756E+02  0.00000000000E+00 0. -1.
</event>
<event>
 7    1  0.5479172E-013  0.5052886E+02  0.7816164E-02  0.1300439E+00
        -11   -1    0    0    0    0  0.00000000000E+00  0.00000000000E+00  0.45593999997E+02  0.45594000000E+02  0.51100000000E-03 0.  1.
         11   -1    0    0    0    0 -0.00000000000E+00 -0.00000000000E+00 -0.45593999997E+02  0.45594000000E+02  0.51100000000E-03 0. -1.
    9900012    2    1    2    0    0 -0.34765433723E+02 -0.12298329730E+02  0.17125450825E+02  0.50528863732E+02  0.30000011800E+02 0.  0.
         12    1    1    2    0    0  0.34765433723E+02  0.12298329730E+02 -0.17125450825E+02  0.40659136268E+02  0.00000000000E+00 0. -1.
         11    1    3    3    0    0 -0.44508665446E+01  0.22819671687E+01  0.82675002395E+01  0.96627712188E+01  0.51100000000E-03 0. -1.
        -11    1    3    3    0    0 -0.29271021326E+01 -0.11333648021E+02  0.59586683760E+01  0.13134886122E+02  0.51100000000E-03 0.  1.
        -12    1    3    3    0    0 -0.27387465046E+02 -0.32466488773E+01  0.28992822099E+01  0.27731206391E+02  0.00000000000E+00 0.  1.
</event>
<event>
 7    1  0.5479172E-013  0.5052886E+02  0.7816164E-02  0.1300439E+00
        -11   -1    0    0    0    0  0.00000000000E+00  0.00000000000E+00  0.45593999997E+02  0.45594000000E+02  0.51100000000E-03 0.  1.
         11   -1    0    0    0    0 -0.00000000000E+00 -0.00000000000E+00 -0.45593999997E+02  0.45594000000E+02  0.51100000000E-03 0. -1.
    9900012    2    1    2    0    0  0.11306942123E+02  0.38348289413E+02  0.73977736464E+01  0.50528864544E+02  0.30000014269E+02 0.  0.
         12    1    1    2    0    0 -0.11306942123E+02 -0.38348289413E+02 -0.73977736464E+01  0.40659135456E+02  0.00000000000E+00 0. -1.
         11    1    3    3    0    0 -0.57826224006E+01  0.25286877919E+01  0.74145329544E+01  0.97369545018E+01  0.51100000000E-03 0. -1.
        -11    1    3    3    0    0  0.28967647219E+01  0.80175125466E+00  0.90537661738E-01  0.30070331322E+01  0.51100000000E-03 0.  1.
        -12    1    3    3    0    0  0.14192799802E+02  0.35017850366E+02 -0.10729696980E+00  0.37784876910E+02  0.00000000000E+00 0.  1.
</event>
<event>
 7    1  0.5479172E-013  0.5052893E+02  0.7816164E-02  0.1300439E+00
        -11   -1    0    0    0    0  0.00000000000E+00  0.00000000000E+00  0.45593999997E+02  0.45594000000E+02  0.51100000000E-03 0.  1.
         11   -1    0    0    0    0 -0.00000000000E+00 -0.00000000000E+00 -0.45593999997E+02  0.45594000000E+02  0.51100000000E-03 0. -1.
    9900012    2    1    2    0    0  0.40876824340E+01  0.24771801546E+02  0.31981385127E+02  0.50528926054E+02  0.30000201233E+02 0.  0.
         12    1    1    2    0    0 -0.40876824340E+01 -0.24771801546E+02 -0.31981385127E+02  0.40659073946E+02  0.00000000000E+00 0. -1.
         11    1    3    3    0    0 -0.43799585266E+00  0.31001761542E+01 -0.49202166701E+01  0.58319349187E+01  0.51100000000E-03 0. -1.
        -11    1    3    3    0    0  0.50001076184E+01  0.49222386420E+01  0.18620161259E+02  0.19898238993E+02  0.51100000000E-03 0.  1.
        -12    1    3    3    0    0 -0.47442933168E+00  0.16749386749E+02  0.18281440538E+02  0.24798752142E+02  0.00000000000E+00 0.  1.
</event>
<event>
 7    1  0.5479172E-013  0.5052886E+02  0.7816164E-02  0.1300439E+00
        -11   -1    0    0    0    0  0.00000000000E+00  0.00000000000E+00  0.45593999997E+02  0.45594000000E+02  0.51100000000E-03 0. -1.
         11   -1    0    0    0    0 -0.00000000000E+00 -0.00000000000E+00 -0.45593999997E+02  0.45594000000E+02  0.51100000000E-03 0.  1.
    9900012    2    1    2    0    0 -0.36958874464E+01 -0.31345080313E+02 -0.25631852997E+02  0.50528861643E+02  0.30000005451E+02 0.  0.
         12    1    1    2    0    0  0.36958874464E+01  0.31345080313E+02  0.25631852997E+02  0.40659138357E+02  0.00000000000E+00 0. -1.
         11    1    3    3    0    0  0.27742329836E+01 -0.10902127429E+02 -0.88954556717E+01  0.14341613682E+02  0.51100000000E-03 0. -1.
        -11    1    3    3    0    0 -0.68215129587E+00 -0.24809112893E+02 -0.13423627259E+02  0.28216151084E+02  0.51100000000E-03 0.  1.
         12    1    3    3    0    0 -0.57879691342E+01  0.43661600090E+01 -0.33127700657E+01  0.79710968775E+01  0.00000000000E+00 0. -1.
</event>
<event>
 7    1  0.5479172E-013  0.5052879E+02  0.7816164E-02  0.1300439E+00
        -11   -1    0    0    0    0  0.00000000000E+00  0.00000000000E+00  0.45593999997E+02  0.45594000000E+02  0.51100000000E-03 0.  1.
         11   -1    0    0    0    0 -0.00000000000E+00 -0.00000000000E+00 -0.45593999997E+02  0.45594000000E+02  0.51100000000E-03 0. -1.
    9900012    2    1    2    0    0  0.79971503202E+01 -0.20630219537E+02  0.34111746938E+02  0.50528786401E+02  0.29999776743E+02 0.  0.
         12    1    1    2    0    0 -0.79971503202E+01  0.20630219537E+02 -0.34111746938E+02  0.40659213599E+02  0.00000000000E+00 0. -1.
         11    1    3    3    0    0  0.44429436298E+01 -0.33130043826E+01  0.11483515158E+02  0.12750955524E+02  0.51100000000E-03 0. -1.
        -11    1    3    3    0    0 -0.73098473821E+00 -0.18538306051E+02  0.26174692810E+02  0.32082981063E+02  0.51100000000E-03 0.  1.
         12    1    3    3    0    0  0.42851914286E+01  0.12210908971E+01 -0.35464610303E+01  0.56948498135E+01  0.00000000000E+00 0. -1.
</event>
<event>
 7    1  0.5479172E-013  0.5052886E+02  0.7816164E-02  0.1300439E+00
        -11   -1    0    0    0    0  0.00000000000E+00  0.00000000000E+00  0.45593999997E+02  0.45594000000E+02  0.51100000000E-03 0. -1.
         11   -1    0    0    0    0 -0.00000000000E+00 -0.00000000000E+00 -0.45593999997E+02  0.45594000000E+02  0.51100000000E-03 0.  1.
    9900012    2    1    2    0    0 -0.34530716967E+02 -0.16184813312E+01 -0.21405034016E+02  0.50528863544E+02  0.30000011229E+02 0.  0.
         12    1    1    2    0    0  0.34530716967E+02  0.16184813312E+01  0.21405034016E+02  0.40659136456E+02  0.00000000000E+00 0. -1.
         11    1    3    3    0    0 -0.64362402787E+01  0.45581562031E+01 -0.13926908334E+02  0.16005022740E+02  0.51100000000E-03 0. -1.
        -11    1    3    3    0    0 -0.25123899853E+01  0.95798566135E+00 -0.74979377004E+01  0.79654824076E+01  0.51100000000E-03 0.  1.
         12    1    3    3    0    0 -0.25582086703E+02 -0.71346231956E+01  0.19812017984E-01  0.26558358397E+02  0.00000000000E+00 0. -1.
</event>
<event>
 7    1  0.5479172E-013  0.5052886E+02  0.7816164E-02  0.1300439E+00
        -11   -1    0    0    0    0  0.00000000000E+00  0.00000000000E+00  0.45593999997E+02  0.45594000000E+02  0.51100000000E-03 0. -1.
         11   -1    0    0    0    0 -0.00000000000E+00 -0.00000000000E+00 -0.45593999997E+02  0.45594000000E+02  0.51100000000E-03 0.  1.
    9900012    2    1    2    0    0  0.39924672004E+02 -0.76876902094E+01 -0.29240412742E+00  0.50528861844E+02  0.30000006062E+02 0.  0.
         12    1    1    2    0    0 -0.39924672004E+02  0.76876902094E+01  0.29240412742E+00  0.40659138156E+02  0.00000000000E+00 0. -1.
         11    1    3    3    0    0  0.21593637056E+00  0.62976555278E+00  0.13412217729E+01  0.14973674475E+01  0.51100000000E-03 0. -1.
        -11    1    3    3    0    0  0.24363087388E+01  0.42730578934E+01 -0.77882359620E+01  0.92114734811E+01  0.51100000000E-03 0.  1.
         12    1    3    3    0    0  0.37272426895E+02 -0.12590513656E+02  0.61546100617E+01  0.39820020916E+02  0.00000000000E+00 0. -1.
</event>
<event>
 7    1  0.5479172E-013  0.5052886E+02  0.7816164E-02  0.1300439E+00
        -11   -1    0    0    0    0  0.00000000000E+00  0.00000000000E+00  0.45593999997E+02  0.45594000000E+02  0.51100000000E-03 0.  1.
         11   -1    0    0    0    0 -0.00000000000E+00 -0.00000000000E+00 -0.45593999997E+02  0.45594000000E+02  0.51100000000E-03 0. -1.
    9900012    2    1    2    0    0 -0.34820090032E+02 -0.16594085655E+02  0.12859368705E+02  0.50528859428E+02  0.29999998716E+02 0.  0.
         12    1    1    2    0    0  0.34820090032E+02  0.16594085655E+02 -0.12859368705E+02  0.40659140572E+02  0.00000000000E+00 0. -1.
         11    1    3    3    0    0 -0.75134458271E+01 -0.17437565410E+01  0.11266610205E+02  0.13653902770E+02  0.51100000000E-03 0. -1.
        -11    1    3    3    0    0 -0.17736031581E+02 -0.22331769462E+01  0.82602504065E+01  0.19692273423E+02  0.51100000000E-03 0.  1.
         12    1    3    3    0    0 -0.95706126243E+01 -0.12617152168E+02 -0.66674919064E+01  0.17182683235E+02  0.00000000000E+00 0. -1.
</event>
<event>
 7    1  0.5479172E-013  0.5052886E+02  0.7816164E-02  0.1300439E+00
        -11   -1    0    0    0    0  0.00000000000E+00  0.00000000000E+00  0.45593999997E+02  0.45594000000E+02  0.51100000000E-03 0.  1.
         11   -1    0    0    0    0 -0.00000000000E+00 -0.00000000000E+00 -0.45593999997E+02  0.45594000000E+02  0.51100000000E-03 0. -1.
    9900012    2    1    2    0    0 -0.93735627012E+01 -0.24738303221E+02  0.30875856334E+02  0.50528857998E+02  0.29999994370E+02 0.  0.
         12    1    1    2    0    0  0.93735627012E+01  0.24738303221E+02 -0.30875856334E+02  0.40659142002E+02  0.00000000000E+00 0. -1.
         11    1    3    3    0    0 -0.65836915542E+01 -0.98152011033E+01  0.16304561118E+01  0.11930697992E+02  0.51100000000E-03 0. -1.
        -11    1    3    3    0    0  0.22464858010E+01 -0.10673365328E+02  0.26854787950E+01  0.11232952528E+02  0.51100000000E-03 0.  1.
        -12    1    3    3    0    0 -0.50363569480E+01 -0.42497367903E+01  0.26559921427E+02  0.27365207478E+02  0.00000000000E+00 0.  1.
</event>
<event>
 7    1  0.5479172E-013  0.5052886E+02  0.7816164E-02  0.1300439E+00
        -11   -1    0    0    0    0  0.00000000000E+00  0.00000000000E+00  0.45593999997E+02  0.45594000000E+02  0.51100000000E-03 0. -1.
         11   -1    0    0    0    0 -0.00000000000E+00 -0.00000000000E+00 -0.45593999997E+02  0.45594000000E+02  0.51100000000E-03 0.  1.
    9900012    2    1    2    0    0 -0.23937666739E+02 -0.28593833304E+01 -0.32741070047E+02  0.50528860440E+02  0.30000001793E+02 0.  0.
         12    1    1    2    0    0  0.23937666739E+02  0.28593833304E+01  0.32741070047E+02  0.40659139560E+02  0.00000000000E+00 0. -1.
         11    1    3    3    0    0 -0.14433161324E+02 -0.89949368675E+01 -0.10623819430E+02  0.20052196253E+02  0.51100000000E-03 0. -1.
        -11    1    3    3    0    0 -0.14583435325E+02  0.62261097701E+01 -0.17448097409E+02  0.23577046723E+02  0.51100000000E-03 0.  1.
         12    1    3    3    0    0  0.50789299095E+01 -0.90556233057E-01 -0.46691532084E+01  0.68996174633E+01  0.00000000000E+00 0. -1.
</event>
<event>
 7    1  0.5479172E-013  0.5052886E+02  0.7816164E-02  0.1300439E+00
        -11   -1    0    0    0    0  0.00000000000E+00  0.00000000000E+00  0.45593999997E+02  0.45594000000E+02  0.51100000000E-03 0. -1.
         11   -1    0    0    0    0 -0.00000000000E+00 -0.00000000000E+00 -0.45593999997E+02  0.45594000000E+02  0.51100000000E-03 0.  1.
    9900012    2    1    2    0    0 -0.12824142383E+02 -0.35737481719E+02 -0.14544382309E+02  0.50528864689E+02  0.30000014710E+02 0.  0.
         12    1    1    2    0    0  0.12824142383E+02  0.35737481719E+02  0.14544382309E+02  0.40659135311E+02  0.00000000000E+00 0. -1.
         11    1    3    3    0    0  0.21086400492E+01 -0.82921027688E+00 -0.38882754158E+01  0.45002931583E+01  0.51100000000E-03 0. -1.
        -11    1    3    3    0    0  0.21781531407E+00 -0.39142285687E+01  0.64296906410E+01  0.75305744004E+01  0.51100000000E-03 0.  1.
        -12    1    3    3    0    0 -0.15150597746E+02 -0.30994042873E+02 -0.17085797534E+02  0.38497997131E+02  0.00000000000E+00 0.  1.
</event>
<event>
 7    1  0.5479172E-013  0.5052885E+02  0.7816164E-02  0.1300439E+00
        -11   -1    0    0    0    0  0.00000000000E+00  0.00000000000E+00  0.45593999997E+02  0.45594000000E+02  0.51100000000E-03 0.  1.
         11   -1    0    0    0    0 -0.00000000000E+00 -0.00000000000E+00 -0.45593999997E+02  0.45594000000E+02  0.51100000000E-03 0. -1.
    9900012    2    1    2    0    0 -0.32780593004E+01  0.17564896928E+01  0.40488707074E+02  0.50528851837E+02  0.29999975643E+02 0.  0.
         12    1    1    2    0    0  0.32780593004E+01 -0.17564896928E+01 -0.40488707074E+02  0.40659148163E+02  0.00000000000E+00 0. -1.
         11    1    3    3    0    0  0.39327964721E+01  0.86254705547E+01  0.12170624064E+01  0.95575557306E+01  0.51100000000E-03 0. -1.
        -11    1    3    3    0    0  0.40444595339E+00 -0.17211782397E+01  0.13381785446E+02  0.13498081829E+02  0.51100000000E-03 0.  1.
        -12    1    3    3    0    0 -0.76153017259E+01 -0.51478026222E+01  0.25889859222E+02  0.27473214277E+02  0.00000000000E+00 0.  1.
</event>
<event>
 7    1  0.5479172E-013  0.5052886E+02  0.7816164E-02  0.1300439E+00
        -11   -1    0    0    0    0  0.00000000000E+00  0.00000000000E+00  0.45593999997E+02  0.45594000000E+02  0.51100000000E-03 0. -1.
         11   -1    0    0    0    0 -0.00000000000E+00 -0.00000000000E+00 -0.45593999997E+02  0.45594000000E+02  0.51100000000E-03 0.  1.
    9900012    2    1    2    0    0 -0.21655696925E+02 -0.32933982130E+02 -0.99774232642E+01  0.50528863717E+02  0.30000011755E+02 0.  0.
         12    1    1    2    0    0  0.21655696925E+02  0.32933982130E+02  0.99774232642E+01  0.40659136283E+02  0.00000000000E+00 0. -1.
         11    1    3    3    0    0 -0.19038679482E+01 -0.12432898698E+01  0.25506046701E+01  0.34170260913E+01  0.51100000000E-03 0. -1.
        -11    1    3    3    0    0 -0.15113405575E+02 -0.72194761199E+01  0.39995292473E+01  0.17220107374E+02  0.51100000000E-03 0.  1.
        -12    1    3    3    0    0 -0.46384234020E+01 -0.24471216140E+02 -0.16527557182E+02  0.29891730252E+02  0.00000000000E+00 0.  1.
</event>
<event>
 7    1  0.5479172E-013  0.5052886E+02  0.7816164E-02  0.1300439E+00
        -11   -1    0    0    0    0  0.00000000000E+00  0.00000000000E+00  0.45593999997E+02  0.45594000000E+02  0.51100000000E-03 0.  1.
         11   -1    0    0    0    0 -0.00000000000E+00 -0.00000000000E+00 -0.45593999997E+02  0.45594000000E+02  0.51100000000E-03 0. -1.
    9900012    2    1    2    0    0 -0.22967293260E+02 -0.24928284357E+02  0.22455497571E+02  0.50528864595E+02  0.30000014424E+02 0.  0.
         12    1    1    2    0    0  0.22967293260E+02  0.24928284357E+02 -0.22455497571E+02  0.40659135405E+02  0.00000000000E+00 0. -1.
         11    1    3    3    0    0 -0.19071281235E+00 -0.18678957253E+01 -0.24047146297E+01  0.30509110982E+01  0.51100000000E-03 0. -1.
        -11    1    3    3    0    0 -0.78748600426E+01  0.33573007644E+01  0.49898342101E+00  0.85751894340E+01  0.51100000000E-03 0.  1.
         12    1    3    3    0    0 -0.14901720405E+02 -0.26417689396E+02  0.24361228780E+02  0.38902764063E+02  0.00000000000E+00 0. -1.
</event>
<event>
 7    1  0.5479172E-013  0.5052884E+02  0.7816164E-02  0.1300439E+00
        -11   -1    0    0    0    0  0.00000000000E+00  0.00000000000E+00  0.45593999997E+02  0.45594000000E+02  0.51100000000E-03 0.  1.
         11   -1    0    0    0    0 -0.00000000000E+00 -0.00000000000E+00 -0.45593999997E+02  0.45594000000E+02  0.51100000000E-03 0. -1.
    9900012    2    1    2    0    0 -0.91706711278E+01 -0.39238655872E+02  0.54215986455E+01  0.50528842908E+02  0.29999948503E+02 0.  0.
         12    1    1    2    0    0  0.91706711278E+01  0.39238655872E+02 -0.54215986455E+01  0.40659157092E+02  0.00000000000E+00 0. -1.
         11    1    3    3    0    0  0.89384995701E+00  0.31856956243E+01  0.25280360769E+01  0.41639633793E+01  0.51100000000E-03 0. -1.
        -11    1    3    3    0    0 -0.92137219960E+01 -0.21700236431E+02  0.81907105442E+01  0.24957577480E+02  0.51100000000E-03 0.  1.
         12    1    3    3    0    0 -0.85079908874E+00 -0.20724115066E+02 -0.52971479757E+01  0.21407302049E+02  0.00000000000E+00 0. -1.
</event>
<event>
 7    1  0.5479172E-013  0.5052882E+02  0.7816164E-02  0.1300439E+00
        -11   -1    0    0    0    0  0.00000000000E+00  0.00000000000E+00  0.45593999997E+02  0.45594000000E+02  0.51100000000E-03 0. -1.
         11   -1    0    0    0    0 -0.00000000000E+00 -0.00000000000E+00 -0.45593999997E+02  0.45594000000E+02  0.51100000000E-03 0.  1.
    9900012    2    1    2    0    0  0.25929081958E+02 -0.30426366226E+02 -0.74221438035E+01  0.50528815655E+02  0.29999865666E+02 0.  0.
         12    1    1    2    0    0 -0.25929081958E+02  0.30426366226E+02  0.74221438035E+01  0.40659184345E+02  0.00000000000E+00 0. -1.
         11    1    3    3    0    0  0.14902953387E+02 -0.14732977571E+02  0.58396411694E+01  0.21754541067E+02  0.51100000000E-03 0. -1.
        -11    1    3    3    0    0 -0.40809921886E+01 -0.69753188330E+01 -0.46170307594E+01  0.93073381458E+01  0.51100000000E-03 0.  1.
         12    1    3    3    0    0  0.15107120759E+02 -0.87180698224E+01 -0.86447542136E+01  0.19466936443E+02  0.00000000000E+00 0. -1.
</event>
<event>
 7    1  0.5479172E-013  0.5052886E+02  0.7816164E-02  0.1300439E+00
        -11   -1    0    0    0    0  0.00000000000E+00  0.00000000000E+00  0.45593999997E+02  0.45594000000E+02  0.51100000000E-03 0.  1.
         11   -1    0    0    0    0 -0.00000000000E+00 -0.00000000000E+00 -0.45593999997E+02  0.45594000000E+02  0.51100000000E-03 0. -1.
    9900012    2    1    2    0    0 -0.14737081285E+02  0.26291733434E+01  0.37803061688E+02  0.50528860926E+02  0.30000003270E+02 0.  0.
         12    1    1    2    0    0  0.14737081285E+02 -0.26291733434E+01 -0.37803061688E+02  0.40659139074E+02  0.00000000000E+00 0. -1.
         11    1    3    3    0    0 -0.26026943283E+01  0.67927162132E+01  0.70068583768E+01  0.10100053262E+02  0.51100000000E-03 0. -1.
        -11    1    3    3    0    0 -0.39402635238E+01  0.93860655120E+01  0.14399704104E+02  0.17634494066E+02  0.51100000000E-03 0.  1.
         12    1    3    3    0    0 -0.81941234326E+01 -0.13549608382E+02  0.16396499207E+02  0.22794313598E+02  0.00000000000E+00 0. -1.
</event>
<event>
 7    1  0.5479172E-013  0.5052886E+02  0.7816164E-02  0.1300439E+00
        -11   -1    0    0    0    0  0.00000000000E+00  0.00000000000E+00  0.45593999997E+02  0.45594000000E+02  0.51100000000E-03 0. -1.
         11   -1    0    0    0    0 -0.00000000000E+00 -0.00000000000E+00 -0.45593999997E+02  0.45594000000E+02  0.51100000000E-03 0.  1.
    9900012    2    1    2    0    0  0.29534788710E+02 -0.12584033130E+02 -0.24950030105E+02  0.50528860361E+02  0.30000001554E+02 0.  0.
         12    1    1    2    0    0 -0.29534788710E+02  0.12584033130E+02  0.24950030105E+02  0.40659139639E+02  0.00000000000E+00 0. -1.
         11    1    3    3    0    0 -0.19936871340E+01 -0.39880343780E+01 -0.80377078776E+01  0.91915153688E+01  0.51100000000E-03 0. -1.
        -11    1    3    3    0    0  0.12045203275E+02  0.59097729773E+01 -0.65237014590E+01  0.14918814281E+02  0.51100000000E-03 0.  1.
        -12    1    3    3    0    0  0.19483272569E+02 -0.14505771729E+02 -0.10388620768E+02  0.26418530711E+02  0.00000000000E+00 0.  1.
</event>
<event>
 7    1  0.5479172E-013  0.5052886E+02  0.7816164E-02  0.1300439E+00
        -11   -1    0    0    0    0  0.00000000000E+00  0.00000000000E+00  0.45593999997E+02  0.45594000000E+02  0.51100000000E-03 0.  1.
         11   -1    0    0    0    0 -0.00000000000E+00 -0.00000000000E+00 -0.45593999997E+02  0.45594000000E+02  0.51100000000E-03 0. -1.
    9900012    2    1    2    0    0 -0.35931626585E+02 -0.18855001972E+02 -0.25636866325E+01  0.50528863541E+02  0.30000011220E+02 0.  0.
         12    1    1    2    0    0  0.35931626585E+02  0.18855001972E+02  0.25636866325E+01  0.40659136459E+02  0.00000000000E+00 0. -1.
         11    1    3    3    0    0  0.43428480169E+01 -0.34954787818E+01  0.99462496811E+00  0.56628596928E+01  0.51100000000E-03 0. -1.
        -11    1    3    3    0    0  0.38273045778E+00 -0.48633538403E+00  0.11626414099E+01  0.13170952958E+01  0.51100000000E-03 0.  1.
        -12    1    3    3    0    0 -0.40657205060E+02 -0.14873187807E+02 -0.47209530105E+01  0.43548908553E+02  0.00000000000E+00 0.  1.
</event>
<event>
 7    1  0.5479172E-013  0.5052886E+02  0.7816164E-02  0.1300439E+00
        -11   -1    0    0    0    0  0.00000000000E+00  0.00000000000E+00  0.45593999997E+02  0.45594000000E+02  0.51100000000E-03 0.  1.
         11   -1    0    0    0    0 -0.00000000000E+00 -0.00000000000E+00 -0.45593999997E+02  0.45594000000E+02  0.51100000000E-03 0. -1.
    9900012    2    1    2    0    0 -0.28565713432E+02 -0.98466274727E+01  0.27206790082E+02  0.50528862245E+02  0.30000007279E+02 0.  0.
         12    1    1    2    0    0  0.28565713432E+02  0.98466274727E+01 -0.27206790082E+02  0.40659137755E+02  0.00000000000E+00 0. -1.
         11    1    3    3    0    0 -0.90385343598E+01 -0.10273421398E+02  0.19776152303E+02  0.24048586045E+02  0.51100000000E-03 0. -1.
        -11    1    3    3    0    0 -0.11579698470E+02 -0.72685739627E+01  0.71165805879E+01  0.15413218471E+02  0.51100000000E-03 0.  1.
         12    1    3    3    0    0 -0.79474806017E+01  0.76953678882E+01  0.31405719111E+00  0.11067057729E+02  0.00000000000E+00 0. -1.
</event>
<event>
 7    1  0.5479172E-013  0.5052886E+02  0.7816164E-02  0.1300439E+00
        -11   -1    0    0    0    0  0.00000000000E+00  0.00000000000E+00  0.45593999997E+02  0.45594000000E+02  0.51100000000E-03 0.  1.
         11   -1    0    0    0    0 -0.00000000000E+00 -0.00000000000E+00 -0.45593999997E+02  0.45594000000E+02  0.51100000000E-03 0. -1.
    9900012    2    1    2    0    0 -0.50025070721E+01 -0.14366750614E+02  0.37705928848E+02  0.50528859939E+02  0.30000000270E+02 0.  0.
         12    1    1    2    0    0  0.50025070721E+01  0.14366750614E+02 -0.37705928848E+02  0.40659140061E+02  0.00000000000E+00 0. -1.
         11    1    3    3    0    0  0.33664948529E+01 -0.46096804740E+01 -0.74432662221E+00  0.57564280634E+01  0.51100000000E-03 0. -1.
        -11    1    3    3    0    0 -0.31834317069E+00 -0.12089545280E+02  0.12044578962E+02  0.17068401509E+02  0.51100000000E-03 0.  1.
        -12    1    3    3    0    0 -0.80506587543E+01  0.23324751402E+01  0.26405676509E+02  0.27704030366E+02  0.00000000000E+00 0.  1.
</event>
<event>
 7    1  0.5479172E-013  0.5052886E+02  0.7816164E-02  0.1300439E+00
        -11   -1    0    0    0    0  0.00000000000E+00  0.00000000000E+00  0.45593999997E+02  0.45594000000E+02  0.51100000000E-03 0.  1.
         11   -1    0    0    0    0 -0.00000000000E+00 -0.00000000000E+00 -0.45593999997E+02  0.45594000000E+02  0.51100000000E-03 0. -1.
    9900012    2    1    2    0    0  0.13929110237E+02 -0.30869422905E+02  0.22499421310E+02  0.50528863981E+02  0.30000012558E+02 0.  0.
         12    1    1    2    0    0 -0.13929110237E+02  0.30869422905E+02 -0.22499421310E+02  0.40659136019E+02  0.00000000000E+00 0. -1.
         11    1    3    3    0    0 -0.47006645806E+01 -0.84406872019E+01 -0.25419391509E+01  0.99901402817E+01  0.51100000000E-03 0. -1.
        -11    1    3    3    0    0 -0.15100438046E+01 -0.30470053440E+01  0.53818364387E+01  0.63662106133E+01  0.51100000000E-03 0.  1.
        -12    1    3    3    0    0  0.20139818622E+02 -0.19381730360E+02  0.19659524022E+02  0.34172513086E+02  0.00000000000E+00 0.  1.
</event>
<event>
 7    1  0.5479172E-013  0.5052888E+02  0.7816164E-02  0.1300439E+00
        -11   -1    0    0    0    0  0.00000000000E+00  0.00000000000E+00  0.45593999997E+02  0.45594000000E+02  0.51100000000E-03 0.  1.
         11   -1    0    0    0    0 -0.00000000000E+00 -0.00000000000E+00 -0.45593999997E+02  0.45594000000E+02  0.51100000000E-03 0. -1.
    9900012    2    1    2    0    0  0.10637934560E+02  0.40523209212E+01  0.39033023731E+02  0.50528881735E+02  0.30000066520E+02 0.  0.
         12    1    1    2    0    0 -0.10637934560E+02 -0.40523209212E+01 -0.39033023731E+02  0.40659118265E+02  0.00000000000E+00 0. -1.
         11    1    3    3    0    0  0.21003307166E+01 -0.28061498607E+01  0.43800364154E+00  0.35323807285E+01  0.51100000000E-03 0. -1.
        -11    1    3    3    0    0 -0.62590857325E+01 -0.48733747537E+01  0.11472927685E+02  0.13948261742E+02  0.51100000000E-03 0.  1.
        -12    1    3    3    0    0  0.14796689576E+02  0.11731845536E+02  0.27122092404E+02  0.33048239264E+02  0.00000000000E+00 0.  1.
</event>
<event>
 7    1  0.5479172E-013  0.5052896E+02  0.7816164E-02  0.1300438E+00
        -11   -1    0    0    0    0  0.00000000000E+00  0.00000000000E+00  0.45593999997E+02  0.45594000000E+02  0.51100000000E-03 0. -1.
         11   -1    0    0    0    0 -0.00000000000E+00 -0.00000000000E+00 -0.45593999997E+02  0.45594000000E+02  0.51100000000E-03 0.  1.
    9900012    2    1    2    0    0 -0.31982315629E+02  0.21023591412E+02 -0.13722150300E+02  0.50528962656E+02  0.30000312488E+02 0.  0.
         12    1    1    2    0    0  0.31982315629E+02 -0.21023591412E+02  0.13722150300E+02  0.40659037344E+02  0.00000000000E+00 0. -1.
         11    1    3    3    0    0 -0.28802081141E+00  0.72454895397E+01 -0.25656658432E+01  0.76917303735E+01  0.51100000000E-03 0. -1.
        -11    1    3    3    0    0 -0.24412201840E+02  0.14316459522E+02 -0.17407074294E+02  0.33225334426E+02  0.51100000000E-03 0.  1.
         12    1    3    3    0    0 -0.72820929778E+01 -0.53835764998E+00  0.62505898376E+01  0.96118978570E+01  0.00000000000E+00 0. -1.
</event>
<event>
 7    1  0.5479172E-013  0.5052887E+02  0.7816164E-02  0.1300439E+00
        -11   -1    0    0    0    0  0.00000000000E+00  0.00000000000E+00  0.45593999997E+02  0.45594000000E+02  0.51100000000E-03 0.  1.
         11   -1    0    0    0    0 -0.00000000000E+00 -0.00000000000E+00 -0.45593999997E+02  0.45594000000E+02  0.51100000000E-03 0. -1.
    9900012    2    1    2    0    0 -0.25868092635E+02 -0.16185926108E+02  0.26870480737E+02  0.50528866271E+02  0.30000019517E+02 0.  0.
         12    1    1    2    0    0  0.25868092635E+02  0.16185926108E+02 -0.26870480737E+02  0.40659133729E+02  0.00000000000E+00 0. -1.
         11    1    3    3    0    0 -0.24161886046E+02 -0.91924677371E+01  0.14343717474E+02  0.29564174801E+02  0.51100000000E-03 0. -1.
        -11    1    3    3    0    0 -0.71145448949E+01 -0.61323448740E+01  0.12309740326E+02  0.15483930698E+02  0.51100000000E-03 0.  1.
         12    1    3    3    0    0  0.54083383060E+01 -0.86111349709E+00  0.21702293697E+00  0.54807607722E+01  0.00000000000E+00 0. -1.
</event>
<event>
 7    1  0.5479172E-013  0.5052885E+02  0.7816164E-02  0.1300439E+00
        -11   -1    0    0    0    0  0.00000000000E+00  0.00000000000E+00  0.45593999997E+02  0.45594000000E+02  0.51100000000E-03 0. -1.
         11   -1    0    0    0    0 -0.00000000000E+00 -0.00000000000E+00 -0.45593999997E+02  0.45594000000E+02  0.51100000000E-03 0.  1.
    9900012    2    1    2    0    0  0.28576910610E+02 -0.22449261892E+02  0.18236145151E+02  0.50528853803E+02  0.29999981620E+02 0.  0.
         12    1    1    2    0    0 -0.28576910610E+02  0.22449261892E+02 -0.18236145151E+02  0.40659146197E+02  0.00000000000E+00 0. -1.
         11    1    3    3    0    0 -0.91946587639E+00 -0.45761516717E+00  0.35290207510E+01  0.36754342412E+01  0.51100000000E-03 0. -1.
        -11    1    3    3    0    0  0.52492707439E+01  0.18642358841E+01 -0.50482798127E+01  0.75176690605E+01  0.51100000000E-03 0.  1.
        -12    1    3    3    0    0  0.24247105742E+02 -0.23855882609E+02  0.19755404212E+02  0.39335750502E+02  0.00000000000E+00 0.  1.
</event>
<event>
 7    1  0.5479172E-013  0.5052890E+02  0.7816164E-02  0.1300439E+00
        -11   -1    0    0    0    0  0.00000000000E+00  0.00000000000E+00  0.45593999997E+02  0.45594000000E+02  0.51100000000E-03 0. -1.
         11   -1    0    0    0    0 -0.00000000000E+00 -0.00000000000E+00 -0.45593999997E+02  0.45594000000E+02  0.51100000000E-03 0.  1.
    9900012    2    1    2    0    0 -0.10181360945E+02  0.28314480489E+02 -0.27345791143E+02  0.50528902503E+02  0.30000129647E+02 0.  0.
         12    1    1    2    0    0  0.10181360945E+02 -0.28314480489E+02  0.27345791143E+02  0.40659097497E+02  0.00000000000E+00 0. -1.
         11    1    3    3    0    0  0.18086338951E+01  0.22667163589E+02 -0.11674718370E+02  0.25561113258E+02  0.51100000000E-03 0. -1.
        -11    1    3    3    0    0 -0.10593204587E+02  0.57901591627E+01 -0.32972265098E+01  0.12514536726E+02  0.51100000000E-03 0.  1.
        -12    1    3    3    0    0 -0.13967902525E+01 -0.14284226262E+00 -0.12373846264E+02  0.12453252518E+02  0.00000000000E+00 0.  1.
</event>
<event>
 7    1  0.5479172E-013  0.5052886E+02  0.7816164E-02  0.1300439E+00
        -11   -1    0    0    0    0  0.00000000000E+00  0.00000000000E+00  0.45593999997E+02  0.45594000000E+02  0.51100000000E-03 0.  1.
         11   -1    0    0    0    0 -0.00000000000E+00 -0.00000000000E+00 -0.45593999997E+02  0.45594000000E+02  0.51100000000E-03 0. -1.
    9900012    2    1    2    0    0  0.16004077460E+02 -0.30534018997E+02  0.21557103366E+02  0.50528861826E+02  0.30000006007E+02 0.  0.
         12    1    1    2    0    0 -0.16004077460E+02  0.30534018997E+02 -0.21557103366E+02  0.40659138174E+02  0.00000000000E+00 0. -1.
         11    1    3    3    0    0  0.35791403596E+01 -0.14548981356E+01  0.15139708659E+02  0.15624908090E+02  0.51100000000E-03 0. -1.
        -11    1    3    3    0    0  0.20010770703E+01 -0.19592268061E+02  0.67112740290E+01  0.20806308576E+02  0.51100000000E-03 0.  1.
        -12    1    3    3    0    0  0.10423860030E+02 -0.94868528010E+01 -0.29387932112E+00  0.14097645160E+02  0.00000000000E+00 0.  1.
</event>
<event>
 7    1  0.5479172E-013  0.5052886E+02  0.7816164E-02  0.1300439E+00
        -11   -1    0    0    0    0  0.00000000000E+00  0.00000000000E+00  0.45593999997E+02  0.45594000000E+02  0.51100000000E-03 0.  1.
         11   -1    0    0    0    0 -0.00000000000E+00 -0.00000000000E+00 -0.45593999997E+02  0.45594000000E+02  0.51100000000E-03 0. -1.
    9900012    2    1    2    0    0 -0.36975520774E+01  0.22027383684E+02  0.33974813487E+02  0.50528862346E+02  0.30000007586E+02 0.  0.
         12    1    1    2    0    0  0.36975520774E+01 -0.22027383684E+02 -0.33974813487E+02  0.40659137654E+02  0.00000000000E+00 0. -1.
         11    1    3    3    0    0  0.29755677407E+01  0.22373425412E+01 -0.21749929393E+01  0.43116469676E+01  0.51100000000E-03 0. -1.
        -11    1    3    3    0    0  0.12007321297E+01  0.10622831174E+02  0.32582825916E+01  0.11175987899E+02  0.51100000000E-03 0.  1.
         12    1    3    3    0    0 -0.78738519478E+01  0.91672099688E+01  0.32891523834E+02  0.35041227479E+02  0.00000000000E+00 0. -1.
</event>
<event>
 7    1  0.5479172E-013  0.5052886E+02  0.7816164E-02  0.1300439E+00
        -11   -1    0    0    0    0  0.00000000000E+00  0.00000000000E+00  0.45593999997E+02  0.45594000000E+02  0.51100000000E-03 0.  1.
         11   -1    0    0    0    0 -0.00000000000E+00 -0.00000000000E+00 -0.45593999997E+02  0.45594000000E+02  0.51100000000E-03 0. -1.
    9900012    2    1    2    0    0 -0.31284533521E+02 -0.11702376811E+02  0.23184009273E+02  0.50528856544E+02  0.29999989950E+02 0.  0.
         12    1    1    2    0    0  0.31284533521E+02  0.11702376811E+02 -0.23184009273E+02  0.40659143456E+02  0.00000000000E+00 0. -1.
         11    1    3    3    0    0 -0.15692776724E+02 -0.66054761972E+01  0.52233080548E+01  0.17809506012E+02  0.51100000000E-03 0. -1.
        -11    1    3    3    0    0 -0.19960681294E+02  0.73324815676E+00  0.11962321313E+02  0.23282258955E+02  0.51100000000E-03 0.  1.
         12    1    3    3    0    0  0.43689244968E+01 -0.58301487708E+01  0.59983799051E+01  0.94370915771E+01  0.00000000000E+00 0. -1.
</event>
<event>
 7    1  0.5479172E-013  0.5052886E+02  0.7816164E-02  0.1300439E+00
        -11   -1    0    0    0    0  0.00000000000E+00  0.00000000000E+00  0.45593999997E+02  0.45594000000E+02  0.51100000000E-03 0.  1.
         11   -1    0    0    0    0 -0.00000000000E+00 -0.00000000000E+00 -0.45593999997E+02  0.45594000000E+02  0.51100000000E-03 0. -1.
    9900012    2    1    2    0    0 -0.22101364593E+02  0.12854419706E+02  0.31614228640E+02  0.50528857420E+02  0.29999992614E+02 0.  0.
         12    1    1    2    0    0  0.22101364593E+02 -0.12854419706E+02 -0.31614228640E+02  0.40659142580E+02  0.00000000000E+00 0. -1.
         11    1    3    3    0    0 -0.32933788827E+01  0.10612694850E+02  0.10314945615E+02  0.15161587639E+02  0.51100000000E-03 0. -1.
        -11    1    3    3    0    0  0.37950967799E+01 -0.25007151646E+01  0.10791635489E+01  0.46712878449E+01  0.51100000000E-03 0.  1.
        -12    1    3    3    0    0 -0.22603082490E+02  0.47424400210E+01  0.20220119476E+02  0.30695981936E+02  0.00000000000E+00 0.  1.
</event>
<event>
 7    1  0.5479172E-013  0.5052886E+02  0.7816164E-02  0.1300439E+00
        -11   -1    0    0    0    0  0.00000000000E+00  0.00000000000E+00  0.45593999997E+02  0.45594000000E+02  0.51100000000E-03 0. -1.
         11   -1    0    0    0    0 -0.00000000000E+00 -0.00000000000E+00 -0.45593999997E+02  0.45594000000E+02  0.51100000000E-03 0.  1.
    9900012    2    1    2    0    0 -0.38836578347E+01 -0.32030576355E+02 -0.24741159053E+02  0.50528861161E+02  0.30000003986E+02 0.  0.
         12    1    1    2    0    0  0.38836578347E+01  0.32030576355E+02  0.24741159053E+02  0.40659138839E+02  0.00000000000E+00 0. -1.
         11    1    3    3    0    0 -0.67185873623E+01 -0.16249091649E+01 -0.66055618561E+00  0.69437799990E+01  0.51100000000E-03 0. -1.
        -11    1    3    3    0    0 -0.38911963476E+01  0.92236110017E+00 -0.10792144783E+01  0.41420843987E+01  0.51100000000E-03 0.  1.
        -12    1    3    3    0    0  0.67261258752E+01 -0.31328028291E+02 -0.23001388389E+02  0.39442996764E+02  0.00000000000E+00 0.  1.
</event>
<event>
 7    1  0.5479172E-013  0.5052887E+02  0.7816164E-02  0.1300439E+00
        -11   -1    0    0    0    0  0.00000000000E+00  0.00000000000E+00  0.45593999997E+02  0.45594000000E+02  0.51100000000E-03 0.  1.
         11   -1    0    0    0    0 -0.00000000000E+00 -0.00000000000E+00 -0.45593999997E+02  0.45594000000E+02  0.51100000000E-03 0. -1.
    9900012    2    1    2    0    0 -0.30702373209E+02 -0.24118202396E+02 -0.11350850675E+02  0.50528865497E+02  0.30000017164E+02 0.  0.
         12    1    1    2    0    0  0.30702373209E+02  0.24118202396E+02  0.11350850675E+02  0.40659134503E+02  0.00000000000E+00 0. -1.
         11    1    3    3    0    0 -0.10458901924E+02 -0.36117586952E+01 -0.85689504586E+01  0.13995011345E+02  0.51100000000E-03 0. -1.
        -11    1    3    3    0    0 -0.22684216941E+02 -0.22644142084E+02  0.30788094935E+00  0.32053481245E+02  0.51100000000E-03 0.  1.
         12    1    3    3    0    0  0.24407456555E+01  0.21376983836E+01 -0.30897811661E+01  0.44803729073E+01  0.00000000000E+00 0. -1.
</event>
<event>
 7    1  0.5479172E-013  0.5052887E+02  0.7816164E-02  0.1300439E+00
        -11   -1    0    0    0    0  0.00000000000E+00  0.00000000000E+00  0.45593999997E+02  0.45594000000E+02  0.51100000000E-03 0.  1.
         11   -1    0    0    0    0 -0.00000000000E+00 -0.00000000000E+00 -0.45593999997E+02  0.45594000000E+02  0.51100000000E-03 0. -1.
    9900012    2    1    2    0    0 -0.19241844444E+02  0.17420297059E+02  0.31296164678E+02  0.50528865100E+02  0.30000015959E+02 0.  0.
         12    1    1    2    0    0  0.19241844444E+02 -0.17420297059E+02 -0.31296164678E+02  0.40659134900E+02  0.00000000000E+00 0. -1.
         11    1    3    3    0    0 -0.12820080711E+02  0.28104841200E+00  0.45089935414E+01  0.13592809888E+02  0.51100000000E-03 0. -1.
        -11    1    3    3    0    0 -0.10823794469E+02  0.17175570510E+02  0.24949514330E+02  0.32165711785E+02  0.51100000000E-03 0.  1.
        -12    1    3    3    0    0  0.44020307357E+01 -0.36321862938E-01  0.18376568068E+01  0.47703434274E+01  0.00000000000E+00 0.  1.
</event>
<event>
 7    1  0.5479172E-013  0.5052886E+02  0.7816164E-02  0.1300439E+00
        -11   -1    0    0    0    0  0.00000000000E+00  0.00000000000E+00  0.45593999997E+02  0.45594000000E+02  0.51100000000E-03 0.  1.
         11   -1    0    0    0    0 -0.00000000000E+00 -0.00000000000E+00 -0.45593999997E+02  0.45594000000E+02  0.51100000000E-03 0. -1.
    9900012    2    1    2    0    0  0.41635048346E+01 -0.29921544482E+02  0.27212719780E+02  0.50528859398E+02  0.29999998625E+02 0.  0.
         12    1    1    2    0    0 -0.41635048346E+01  0.29921544482E+02 -0.27212719780E+02  0.40659140602E+02  0.00000000000E+00 0. -1.
         11    1    3    3    0    0 -0.62716595681E+01 -0.10126837595E+01  0.84431364303E+01  0.10566257387E+02  0.51100000000E-03 0. -1.
        -11    1    3    3    0    0  0.41315532842E+00 -0.40781870315E+01  0.11511372602E+02  0.12219411042E+02  0.51100000000E-03 0.  1.
         12    1    3    3    0    0  0.10022009074E+02 -0.24830673691E+02  0.72582107486E+01  0.27743190968E+02  0.00000000000E+00 0. -1.
</event>
<event>
 7    1  0.5479172E-013  0.5052891E+02  0.7816164E-02  0.1300439E+00
        -11   -1    0    0    0    0  0.00000000000E+00  0.00000000000E+00  0.45593999997E+02  0.45594000000E+02  0.51100000000E-03 0.  1.
         11   -1    0    0    0    0 -0.00000000000E+00 -0.00000000000E+00 -0.45593999997E+02  0.45594000000E+02  0.51100000000E-03 0. -1.
    9900012    2    1    2    0    0 -0.29726577505E+02 -0.23611009371E+02  0.14560655493E+02  0.50528906773E+02  0.30000142626E+02 0.  0.
         12    1    1    2    0    0  0.29726577505E+02  0.23611009371E+02 -0.14560655493E+02  0.40659093227E+02  0.00000000000E+00 0. -1.
         11    1    3    3    0    0 -0.10763871303E+02 -0.14364032734E+02 -0.20059829439E+00  0.17950671346E+02  0.51100000000E-03 0. -1.
        -11    1    3    3    0    0 -0.12477525704E+02 -0.14319649394E+02  0.46785609864E+01  0.19560928905E+02  0.51100000000E-03 0.  1.
         12    1    3    3    0    0 -0.64851804983E+01  0.50726727568E+01  0.10082692801E+02  0.13017306523E+02  0.00000000000E+00 0. -1.
</event>
<event>
 7    1  0.5479172E-013  0.5052886E+02  0.7816164E-02  0.1300439E+00
        -11   -1    0    0    0    0  0.00000000000E+00  0.00000000000E+00  0.45593999997E+02  0.45594000000E+02  0.51100000000E-03 0. -1.
         11   -1    0    0    0    0 -0.00000000000E+00 -0.00000000000E+00 -0.45593999997E+02  0.45594000000E+02  0.51100000000E-03 0.  1.
    9900012    2    1    2    0    0 -0.22534751567E+02 -0.18457150356E+02 -0.28366956596E+02  0.50528860142E+02  0.30000000887E+02 0.  0.
         12    1    1    2    0    0  0.22534751567E+02  0.18457150356E+02  0.28366956596E+02  0.40659139858E+02  0.00000000000E+00 0. -1.
         11    1    3    3    0    0 -0.47803911320E+01 -0.55557048966E+01  0.43561932754E+01  0.85261020628E+01  0.51100000000E-03 0. -1.
        -11    1    3    3    0    0 -0.73346070709E+01  0.24867153887E+01 -0.92831579160E+01  0.12089550673E+02  0.51100000000E-03 0.  1.
         12    1    3    3    0    0 -0.10419753364E+02 -0.15388160848E+02 -0.23439991956E+02  0.29913207407E+02  0.00000000000E+00 0. -1.
</event>
<event>
 7    1  0.5479172E-013  0.5052885E+02  0.7816164E-02  0.1300439E+00
        -11   -1    0    0    0    0  0.00000000000E+00  0.00000000000E+00  0.45593999997E+02  0.45594000000E+02  0.51100000000E-03 0.  1.
         11   -1    0    0    0    0 -0.00000000000E+00 -0.00000000000E+00 -0.45593999997E+02  0.45594000000E+02  0.51100000000E-03 0. -1.
    9900012    2    1    2    0    0 -0.14609200588E+02 -0.76865151555E+01  0.37157170624E+02  0.50528848682E+02  0.29999966055E+02 0.  0.
         12    1    1    2    0    0  0.14609200588E+02  0.76865151555E+01 -0.37157170624E+02  0.40659151318E+02  0.00000000000E+00 0. -1.
         11    1    3    3    0    0 -0.99272534022E+01 -0.23300440370E+01  0.19149642486E+01  0.10375285715E+02  0.51100000000E-03 0. -1.
        -11    1    3    3    0    0  0.16611397796E+01  0.57073174060E+01  0.71223146348E+01  0.92768649532E+01  0.51100000000E-03 0.  1.
         12    1    3    3    0    0 -0.63430869656E+01 -0.11063788525E+02  0.28119891741E+02  0.30876698015E+02  0.00000000000E+00 0. -1.
</event>
<event>
 7    1  0.5479172E-013  0.5052886E+02  0.7816164E-02  0.1300439E+00
        -11   -1    0    0    0    0  0.00000000000E+00  0.00000000000E+00  0.45593999997E+02  0.45594000000E+02  0.51100000000E-03 0.  1.
         11   -1    0    0    0    0 -0.00000000000E+00 -0.00000000000E+00 -0.45593999997E+02  0.45594000000E+02  0.51100000000E-03 0. -1.
    9900012    2    1    2    0    0 -0.35487926242E+02  0.12129699083E+02  0.15704864728E+02  0.50528864680E+02  0.30000014682E+02 0.  0.
         12    1    1    2    0    0  0.35487926242E+02 -0.12129699083E+02 -0.15704864728E+02  0.40659135320E+02  0.00000000000E+00 0. -1.
         11    1    3    3    0    0 -0.10133875207E+01  0.25509985000E+01  0.36868483276E+00  0.27695624891E+01  0.51100000000E-03 0. -1.
        -11    1    3    3    0    0 -0.24844669198E+02  0.13502322487E+02 -0.11134466649E+01  0.28298587665E+02  0.51100000000E-03 0.  1.
         12    1    3    3    0    0 -0.96298695235E+01 -0.39236219035E+01  0.16449626561E+02  0.19460714526E+02  0.00000000000E+00 0. -1.
</event>
<event>
 7    1  0.5479172E-013  0.5052886E+02  0.7816164E-02  0.1300439E+00
        -11   -1    0    0    0    0  0.00000000000E+00  0.00000000000E+00  0.45593999997E+02  0.45594000000E+02  0.51100000000E-03 0.  1.
         11   -1    0    0    0    0 -0.00000000000E+00 -0.00000000000E+00 -0.45593999997E+02  0.45594000000E+02  0.51100000000E-03 0. -1.
    9900012    2    1    2    0    0 -0.19139490125E+01  0.34252916832E+02  0.21822930891E+02  0.50528858039E+02  0.29999994496E+02 0.  0.
         12    1    1    2    0    0  0.19139490125E+01 -0.34252916832E+02 -0.21822930891E+02  0.40659141961E+02  0.00000000000E+00 0. -1.
         11    1    3    3    0    0 -0.58807243537E+01 -0.27374709023E+00 -0.14310376554E+01  0.60585250207E+01  0.51100000000E-03 0. -1.
        -11    1    3    3    0    0  0.29908968204E+01  0.64834593193E+01  0.12547905619E+02  0.14437127284E+02  0.51100000000E-03 0.  1.
        -12    1    3    3    0    0  0.97587852078E+00  0.28043204603E+02  0.10706062928E+02  0.30033205734E+02  0.00000000000E+00 0.  1.
</event>
<event>
 7    1  0.5479172E-013  0.5052884E+02  0.7816164E-02  0.1300439E+00
        -11   -1    0    0    0    0  0.00000000000E+00  0.00000000000E+00  0.45593999997E+02  0.45594000000E+02  0.51100000000E-03 0.  1.
         11   -1    0    0    0    0 -0.00000000000E+00 -0.00000000000E+00 -0.45593999997E+02  0.45594000000E+02  0.51100000000E-03 0. -1.
    9900012    2    1    2    0    0  0.20089414724E+02  0.98905222701E+01  0.33937588191E+02  0.50528844734E+02  0.29999954053E+02 0.  0.
         12    1    1    2    0    0 -0.20089414724E+02 -0.98905222701E+01 -0.33937588191E+02  0.40659155266E+02  0.00000000000E+00 0. -1.
         11    1    3    3    0    0  0.11700201924E+02  0.14054026593E+02  0.16387309776E+02  0.24555127988E+02  0.51100000000E-03 0. -1.
        -11    1    3    3    0    0  0.10640994901E+02  0.27448997613E+01  0.65592468734E+01  0.12798006368E+02  0.51100000000E-03 0.  1.
         12    1    3    3    0    0 -0.22517821006E+01 -0.69084040845E+01  0.10991031542E+02  0.13175710378E+02  0.00000000000E+00 0. -1.
</event>
<event>
 7    1  0.5479172E-013  0.5052885E+02  0.7816164E-02  0.1300439E+00
        -11   -1    0    0    0    0  0.00000000000E+00  0.00000000000E+00  0.45593999997E+02  0.45594000000E+02  0.51100000000E-03 0.  1.
         11   -1    0    0    0    0 -0.00000000000E+00 -0.00000000000E+00 -0.45593999997E+02  0.45594000000E+02  0.51100000000E-03 0. -1.
    9900012    2    1    2    0    0 -0.29214327016E+02 -0.21968649447E+02  0.17806405107E+02  0.50528849439E+02  0.29999968354E+02 0.  0.
         12    1    1    2    0    0  0.29214327016E+02  0.21968649447E+02 -0.17806405107E+02  0.40659150561E+02  0.00000000000E+00 0. -1.
         11    1    3    3    0    0 -0.19257729807E+01 -0.12252241162E+02  0.10625330529E+01  0.12448091895E+02  0.51100000000E-03 0. -1.
        -11    1    3    3    0    0 -0.75830929690E+01  0.52328074234E+01  0.66671583694E+01  0.11372623861E+02  0.51100000000E-03 0.  1.
         12    1    3    3    0    0 -0.19705461066E+02 -0.14949215708E+02  0.10076713685E+02  0.26708133683E+02  0.00000000000E+00 0. -1.
</event>
<event>
 7    1  0.5479172E-013  0.5052887E+02  0.7816164E-02  0.1300439E+00
        -11   -1    0    0    0    0  0.00000000000E+00  0.00000000000E+00  0.45593999997E+02  0.45594000000E+02  0.51100000000E-03 0.  1.
         11   -1    0    0    0    0 -0.00000000000E+00 -0.00000000000E+00 -0.45593999997E+02  0.45594000000E+02  0.51100000000E-03 0. -1.
    9900012    2    1    2    0    0 -0.43666839324E+01  0.21171136585E+02  0.34436601686E+02  0.50528874474E+02  0.30000044451E+02 0.  0.
         12    1    1    2    0    0  0.43666839324E+01 -0.21171136585E+02 -0.34436601686E+02  0.40659125526E+02  0.00000000000E+00 0. -1.
         11    1    3    3    0    0  0.65659814815E+01  0.57374573536E+01  0.76915953632E+01  0.11627173740E+02  0.51100000000E-03 0.  1.
        -11    1    3    3    0    0 -0.13124959852E+02  0.18579403966E+02  0.16906213128E+02  0.28342174677E+02  0.51100000000E-03 0. -1.
         12    1    3    3    0    0  0.21922944378E+01 -0.31457247343E+01  0.98387931950E+01  0.10559526057E+02  0.00000000000E+00 0. -1.
</event>
<event>
 7    1  0.5479172E-013  0.5052886E+02  0.7816164E-02  0.1300439E+00
        -11   -1    0    0    0    0  0.00000000000E+00  0.00000000000E+00  0.45593999997E+02  0.45594000000E+02  0.51100000000E-03 0. -1.
         11   -1    0    0    0    0 -0.00000000000E+00 -0.00000000000E+00 -0.45593999997E+02  0.45594000000E+02  0.51100000000E-03 0.  1.
    9900012    2    1    2    0    0  0.27189231071E+01 -0.17754028805E+02 -0.36476945144E+02  0.50528860699E+02  0.30000002580E+02 0.  0.
         12    1    1    2    0    0 -0.27189231071E+01  0.17754028805E+02  0.36476945144E+02  0.40659139301E+02  0.00000000000E+00 0. -1.
         11    1    3    3    0    0  0.23600780544E+01  0.58126277479E+00 -0.30779795166E+01  0.39219629016E+01  0.51100000000E-03 0. -1.
        -11    1    3    3    0    0  0.83123824909E+01 -0.99906413414E+01 -0.32548954600E+02  0.35047725503E+02  0.51100000000E-03 0.  1.
        -12    1    3    3    0    0 -0.79535374382E+01 -0.83446502380E+01 -0.85001102738E+00  0.11559172294E+02  0.00000000000E+00 0.  1.
</event>
<event>
 7    1  0.5479172E-013  0.5052883E+02  0.7816164E-02  0.1300439E+00
        -11   -1    0    0    0    0  0.00000000000E+00  0.00000000000E+00  0.45593999997E+02  0.45594000000E+02  0.51100000000E-03 0.  1.
         11   -1    0    0    0    0 -0.00000000000E+00 -0.00000000000E+00 -0.45593999997E+02  0.45594000000E+02  0.51100000000E-03 0. -1.
    9900012    2    1    2    0    0  0.39407064000E+02 -0.19546172303E+01 -0.98199072088E+01  0.50528833761E+02  0.29999920701E+02 0.  0.
         12    1    1    2    0    0 -0.39407064000E+02  0.19546172303E+01  0.98199072088E+01  0.40659166239E+02  0.00000000000E+00 0. -1.
         11    1    3    3    0    0  0.21475097267E+02  0.73593864427E+01 -0.93823021145E+01  0.24563549513E+02  0.51100000000E-03 0. -1.
        -11    1    3    3    0    0  0.14968198787E+02  0.12207016134E+01 -0.23266163402E+00  0.15019694372E+02  0.51100000000E-03 0.  1.
         12    1    3    3    0    0  0.29637679461E+01 -0.10534705286E+02 -0.20494346032E+00  0.10945589876E+02  0.00000000000E+00 0. -1.
</event>
<event>
 7    1  0.5479172E-013  0.5052885E+02  0.7816164E-02  0.1300439E+00
        -11   -1    0    0    0    0  0.00000000000E+00  0.00000000000E+00  0.45593999997E+02  0.45594000000E+02  0.51100000000E-03 0.  1.
         11   -1    0    0    0    0 -0.00000000000E+00 -0.00000000000E+00 -0.45593999997E+02  0.45594000000E+02  0.51100000000E-03 0. -1.
    9900012    2    1    2    0    0  0.14349898971E+02 -0.62990541561E+01  0.37517577804E+02  0.50528851854E+02  0.29999975695E+02 0.  0.
         12    1    1    2    0    0 -0.14349898971E+02  0.62990541561E+01 -0.37517577804E+02  0.40659148146E+02  0.00000000000E+00 0. -1.
         11    1    3    3    0    0  0.10902266881E+01 -0.52530619893E+01  0.98993246575E+00  0.54555678937E+01  0.51100000000E-03 0. -1.
        -11    1    3    3    0    0  0.11668537171E+02  0.88120227252E+01  0.29301632306E+02  0.32747399291E+02  0.51100000000E-03 0.  1.
         12    1    3    3    0    0  0.15911351112E+01 -0.98580148919E+01  0.72260130316E+01  0.12325884669E+02  0.00000000000E+00 0. -1.
</event>
<event>
 7    1  0.5479172E-013  0.5052887E+02  0.7816164E-02  0.1300439E+00
        -11   -1    0    0    0    0  0.00000000000E+00  0.00000000000E+00  0.45593999997E+02  0.45594000000E+02  0.51100000000E-03 0.  1.
         11   -1    0    0    0    0 -0.00000000000E+00 -0.00000000000E+00 -0.45593999997E+02  0.45594000000E+02  0.51100000000E-03 0. -1.
    9900012    2    1    2    0    0  0.16518204485E+02 -0.14091327463E+02 -0.34376563687E+02  0.50528871628E+02  0.30000035801E+02 0.  0.
         12    1    1    2    0    0 -0.16518204485E+02  0.14091327463E+02  0.34376563687E+02  0.40659128372E+02  0.00000000000E+00 0. -1.
         11    1    3    3    0    0 -0.28275169347E+01  0.46175706226E+01 -0.12326172202E+02  0.13462961483E+02  0.51100000000E-03 0. -1.
        -11    1    3    3    0    0 -0.17843444082E+01 -0.20618965008E+01 -0.98452142269E+00  0.28990662014E+01  0.51100000000E-03 0.  1.
         12    1    3    3    0    0  0.21130065828E+02 -0.16647001584E+02 -0.21065870062E+02  0.34166843944E+02  0.00000000000E+00 0. -1.
</event>
<event>
 7    1  0.5479172E-013  0.5052886E+02  0.7816164E-02  0.1300439E+00
        -11   -1    0    0    0    0  0.00000000000E+00  0.00000000000E+00  0.45593999997E+02  0.45594000000E+02  0.51100000000E-03 0. -1.
         11   -1    0    0    0    0 -0.00000000000E+00 -0.00000000000E+00 -0.45593999997E+02  0.45594000000E+02  0.51100000000E-03 0.  1.
    9900012    2    1    2    0    0  0.35125785864E+01 -0.67507383489E+01 -0.39940645478E+02  0.50528857882E+02  0.29999994017E+02 0.  0.
         12    1    1    2    0    0 -0.35125785864E+01  0.67507383489E+01  0.39940645478E+02  0.40659142118E+02  0.00000000000E+00 0. -1.
         11    1    3    3    0    0 -0.32072279851E+01 -0.10508836812E+02 -0.84326478973E+01  0.13850325386E+02  0.51100000000E-03 0. -1.
        -11    1    3    3    0    0  0.44478189123E+01 -0.60842918987E+01 -0.75023736530E+01  0.10634251815E+02  0.51100000000E-03 0.  1.
        -12    1    3    3    0    0  0.22719876592E+01  0.98423903618E+01 -0.24005623928E+02  0.26044280680E+02  0.00000000000E+00 0.  1.
</event>
<event>
 7    1  0.5479172E-013  0.5052889E+02  0.7816164E-02  0.1300439E+00
        -11   -1    0    0    0    0  0.00000000000E+00  0.00000000000E+00  0.45593999997E+02  0.45594000000E+02  0.51100000000E-03 0.  1.
         11   -1    0    0    0    0 -0.00000000000E+00 -0.00000000000E+00 -0.45593999997E+02  0.45594000000E+02  0.51100000000E-03 0. -1.
    9900012    2    1    2    0    0 -0.23897134266E+02  0.16544935822E+02  0.28431593357E+02  0.50528887512E+02  0.30000084081E+02 0.  0.
         12    1    1    2    0    0  0.23897134266E+02 -0.16544935822E+02 -0.28431593357E+02  0.40659112488E+02  0.00000000000E+00 0. -1.
         11    1    3    3    0    0  0.13019695738E+01 -0.72042167831E+00  0.82661388683E+00  0.17021818189E+01  0.51100000000E-03 0.  1.
        -11    1    3    3    0    0 -0.20115476083E+01  0.74572771042E-01  0.18428630196E+02  0.18538238753E+02  0.51100000000E-03 0. -1.
         12    1    3    3    0    0 -0.23187556231E+02  0.17190784729E+02  0.91763492741E+01  0.30288466940E+02  0.00000000000E+00 0. -1.
</event>
<event>
 7    1  0.5479172E-013  0.5052885E+02  0.7816164E-02  0.1300439E+00
        -11   -1    0    0    0    0  0.00000000000E+00  0.00000000000E+00  0.45593999997E+02  0.45594000000E+02  0.51100000000E-03 0. -1.
         11   -1    0    0    0    0 -0.00000000000E+00 -0.00000000000E+00 -0.45593999997E+02  0.45594000000E+02  0.51100000000E-03 0.  1.
    9900012    2    1    2    0    0  0.21718239820E+02 -0.25892985228E+02  0.22606139300E+02  0.50528853932E+02  0.29999982013E+02 0.  0.
         12    1    1    2    0    0 -0.21718239820E+02  0.25892985228E+02 -0.22606139300E+02  0.40659146068E+02  0.00000000000E+00 0. -1.
         11    1    3    3    0    0  0.16813963549E+02 -0.59739231678E+01  0.17755705375E+02  0.25172647892E+02  0.51100000000E-03 0. -1.
        -11    1    3    3    0    0  0.51484194161E+00 -0.15980624215E+02  0.88075710337E+01  0.18254279507E+02  0.51100000000E-03 0.  1.
        -12    1    3    3    0    0  0.43894343295E+01 -0.39384378449E+01 -0.39571371093E+01  0.71019265339E+01  0.00000000000E+00 0.  1.
</event>
<event>
 7    1  0.5479172E-013  0.5052885E+02  0.7816164E-02  0.1300439E+00
        -11   -1    0    0    0    0  0.00000000000E+00  0.00000000000E+00  0.45593999997E+02  0.45594000000E+02  0.51100000000E-03 0. -1.
         11   -1    0    0    0    0 -0.00000000000E+00 -0.00000000000E+00 -0.45593999997E+02  0.45594000000E+02  0.51100000000E-03 0.  1.
    9900012    2    1    2    0    0  0.13016340742E+02 -0.53949086156E+01 -0.38139696808E+02  0.50528848042E+02  0.29999964110E+02 0.  0.
         12    1    1    2    0    0 -0.13016340742E+02  0.53949086156E+01  0.38139696808E+02  0.40659151958E+02  0.00000000000E+00 0. -1.
         11    1    3    3    0    0  0.45388332212E+01 -0.69185164280E+01 -0.32392814315E+02  0.33432937294E+02  0.51100000000E-03 0. -1.
        -11    1    3    3    0    0  0.58851167843E+01 -0.10604469861E+01 -0.98963556433E+01  0.11562742004E+02  0.51100000000E-03 0.  1.
         12    1    3    3    0    0  0.25923907366E+01  0.25840547985E+01  0.41494731500E+01  0.55331687446E+01  0.00000000000E+00 0. -1.
</event>
<event>
 7    1  0.5479172E-013  0.5052886E+02  0.7816164E-02  0.1300439E+00
        -11   -1    0    0    0    0  0.00000000000E+00  0.00000000000E+00  0.45593999997E+02  0.45594000000E+02  0.51100000000E-03 0. -1.
         11   -1    0    0    0    0 -0.00000000000E+00 -0.00000000000E+00 -0.45593999997E+02  0.45594000000E+02  0.51100000000E-03 0.  1.
    9900012    2    1    2    0    0  0.10639386868E+02 -0.33922498269E+02 -0.19728991321E+02  0.50528861541E+02  0.30000005139E+02 0.  0.
         12    1    1    2    0    0 -0.10639386868E+02  0.33922498269E+02  0.19728991321E+02  0.40659138459E+02  0.00000000000E+00 0. -1.
         11    1    3    3    0    0 -0.73281055430E+01 -0.47344155062E+01 -0.60471619289E+01  0.10615271484E+02  0.51100000000E-03 0. -1.
        -11    1    3    3    0    0  0.11079690214E+02 -0.28147113628E+02 -0.12965468658E+02  0.32910832846E+02  0.51100000000E-03 0.  1.
         12    1    3    3    0    0  0.68878021969E+01 -0.10409691341E+01 -0.71636073401E+00  0.70027572101E+01  0.00000000000E+00 0. -1.
</event>
<event>
 7    1  0.5479172E-013  0.5052886E+02  0.7816164E-02  0.1300439E+00
        -11   -1    0    0    0    0  0.00000000000E+00  0.00000000000E+00  0.45593999997E+02  0.45594000000E+02  0.51100000000E-03 0. -1.
         11   -1    0    0    0    0 -0.00000000000E+00 -0.00000000000E+00 -0.45593999997E+02  0.45594000000E+02  0.51100000000E-03 0.  1.
    9900012    2    1    2    0    0 -0.37299107379E+02  0.16131331050E+02  0.13123704916E+01  0.50528861187E+02  0.30000004064E+02 0.  0.
         12    1    1    2    0    0  0.37299107379E+02 -0.16131331050E+02 -0.13123704916E+01  0.40659138813E+02  0.00000000000E+00 0. -1.
         11    1    3    3    0    0 -0.12427670073E+02  0.45235237989E+00  0.15258170845E+01  0.12529154966E+02  0.51100000000E-03 0. -1.
        -11    1    3    3    0    0 -0.18023621055E+02 -0.54403956200E+00  0.64808507724E+01  0.19161114842E+02  0.51100000000E-03 0.  1.
         12    1    3    3    0    0 -0.68478162508E+01  0.16223018232E+02 -0.66942973653E+01  0.18838591380E+02  0.00000000000E+00 0. -1.
</event>
<event>
 7    1  0.5479172E-013  0.5052889E+02  0.7816164E-02  0.1300439E+00
        -11   -1    0    0    0    0  0.00000000000E+00  0.00000000000E+00  0.45593999997E+02  0.45594000000E+02  0.51100000000E-03 0.  1.
         11   -1    0    0    0    0 -0.00000000000E+00 -0.00000000000E+00 -0.45593999997E+02  0.45594000000E+02  0.51100000000E-03 0. -1.
    9900012    2    1    2    0    0  0.27859405123E+02 -0.18184609631E+01  0.29558583765E+02  0.50528891202E+02  0.30000095297E+02 0.  0.
         12    1    1    2    0    0 -0.27859405123E+02  0.18184609631E+01 -0.29558583765E+02  0.40659108798E+02  0.00000000000E+00 0. -1.
         11    1    3    3    0    0 -0.13287566888E+01 -0.22855543831E+01  0.27309828019E+01  0.38010025653E+01  0.51100000000E-03 0. -1.
        -11    1    3    3    0    0 -0.36539500194E+01 -0.21546503101E+01  0.26167845711E-02  0.42419188832E+01  0.51100000000E-03 0.  1.
        -12    1    3    3    0    0  0.32842111831E+02  0.26217437301E+01  0.26824984178E+02  0.42485969753E+02  0.00000000000E+00 0.  1.
</event>
<event>
 7    1  0.5479172E-013  0.5052887E+02  0.7816164E-02  0.1300439E+00
        -11   -1    0    0    0    0  0.00000000000E+00  0.00000000000E+00  0.45593999997E+02  0.45594000000E+02  0.51100000000E-03 0.  1.
         11   -1    0    0    0    0 -0.00000000000E+00 -0.00000000000E+00 -0.45593999997E+02  0.45594000000E+02  0.51100000000E-03 0. -1.
    9900012    2    1    2    0    0  0.16564160290E+02  0.33799811290E+02  0.15374205228E+02  0.50528870204E+02  0.30000031472E+02 0.  0.
         12    1    1    2    0    0 -0.16564160290E+02 -0.33799811290E+02 -0.15374205228E+02  0.40659129796E+02  0.00000000000E+00 0. -1.
         11    1    3    3    0    0  0.85170125201E+01  0.11709995984E+02  0.21336715513E+02  0.25786022131E+02  0.51100000000E-03 0.  1.
        -11    1    3    3    0    0  0.30731918107E+00  0.55249375803E+01 -0.27490674485E+01  0.61787338867E+01  0.51100000000E-03 0. -1.
        -12    1    3    3    0    0  0.77398285887E+01  0.16564877726E+02 -0.32134428364E+01  0.18564114186E+02  0.00000000000E+00 0.  1.
</event>
<event>
 7    1  0.5479172E-013  0.5052886E+02  0.7816164E-02  0.1300439E+00
        -11   -1    0    0    0    0  0.00000000000E+00  0.00000000000E+00  0.45593999997E+02  0.45594000000E+02  0.51100000000E-03 0.  1.
         11   -1    0    0    0    0 -0.00000000000E+00 -0.00000000000E+00 -0.45593999997E+02  0.45594000000E+02  0.51100000000E-03 0. -1.
    9900012    2    1    2    0    0  0.33589155511E+02  0.17021283489E+02 -0.15336551663E+02  0.50528864784E+02  0.30000014998E+02 0.  0.
         12    1    1    2    0    0 -0.33589155511E+02 -0.17021283489E+02  0.15336551663E+02  0.40659135216E+02  0.00000000000E+00 0. -1.
         11    1    3    3    0    0  0.21474431021E+01  0.11607885819E+02  0.16717145463E+01  0.11922632043E+02  0.51100000000E-03 0. -1.
        -11    1    3    3    0    0  0.60835472227E+01  0.36197325494E+01  0.14045446171E+01  0.72169769559E+01  0.51100000000E-03 0.  1.
         12    1    3    3    0    0  0.25358165186E+02  0.17936651212E+01 -0.18412810827E+02  0.31389255785E+02  0.00000000000E+00 0. -1.
</event>
<event>
 7    1  0.5479172E-013  0.5052885E+02  0.7816164E-02  0.1300439E+00
        -11   -1    0    0    0    0  0.00000000000E+00  0.00000000000E+00  0.45593999997E+02  0.45594000000E+02  0.51100000000E-03 0.  1.
         11   -1    0    0    0    0 -0.00000000000E+00 -0.00000000000E+00 -0.45593999997E+02  0.45594000000E+02  0.51100000000E-03 0. -1.
    9900012    2    1    2    0    0 -0.33975611116E+02 -0.20923976168E+02  0.78109958953E+01  0.50528848677E+02  0.29999966039E+02 0.  0.
         12    1    1    2    0    0  0.33975611116E+02  0.20923976168E+02 -0.78109958953E+01  0.40659151323E+02  0.00000000000E+00 0. -1.
         11    1    3    3    0    0 -0.10996969998E+02 -0.45074530585E+01 -0.64101257550E+01  0.13503340130E+02  0.51100000000E-03 0. -1.
        -11    1    3    3    0    0 -0.24875013645E+02 -0.15637621984E+02  0.79655858197E+01  0.30442603090E+02  0.51100000000E-03 0.  1.
        -12    1    3    3    0    0  0.18963725275E+01 -0.77890112576E+00  0.62555358306E+01  0.65829054570E+01  0.00000000000E+00 0.  1.
</event>
<event>
 7    1  0.5479172E-013  0.5052887E+02  0.7816164E-02  0.1300439E+00
        -11   -1    0    0    0    0  0.00000000000E+00  0.00000000000E+00  0.45593999997E+02  0.45594000000E+02  0.51100000000E-03 0. -1.
         11   -1    0    0    0    0 -0.00000000000E+00 -0.00000000000E+00 -0.45593999997E+02  0.45594000000E+02  0.51100000000E-03 0.  1.
    9900012    2    1    2    0    0 -0.40332242491E+02  0.26510301817E+01  0.44098724240E+01  0.50528871625E+02  0.30000035792E+02 0.  0.
         12    1    1    2    0    0  0.40332242491E+02 -0.26510301817E+01 -0.44098724240E+01  0.40659128375E+02  0.00000000000E+00 0. -1.
         11    1    3    3    0    0 -0.48674448844E+01 -0.41138457948E+01 -0.21258368670E+00  0.63765930567E+01  0.51100000000E-03 0. -1.
        -11    1    3    3    0    0 -0.13878147501E+02 -0.75249874785E+01 -0.49599877083E+01  0.16547806287E+02  0.51100000000E-03 0.  1.
         12    1    3    3    0    0 -0.21586650106E+02  0.14289863455E+02  0.95824438189E+01  0.27604472281E+02  0.00000000000E+00 0. -1.
</event>
<event>
 7    1  0.5479172E-013  0.5052886E+02  0.7816164E-02  0.1300439E+00
        -11   -1    0    0    0    0  0.00000000000E+00  0.00000000000E+00  0.45593999997E+02  0.45594000000E+02  0.51100000000E-03 0.  1.
         11   -1    0    0    0    0 -0.00000000000E+00 -0.00000000000E+00 -0.45593999997E+02  0.45594000000E+02  0.51100000000E-03 0. -1.
    9900012    2    1    2    0    0  0.39423673897E+02 -0.89628020042E+01 -0.43136668742E+01  0.50528860742E+02  0.30000002710E+02 0.  0.
         12    1    1    2    0    0 -0.39423673897E+02  0.89628020042E+01  0.43136668742E+01  0.40659139258E+02  0.00000000000E+00 0. -1.
         11    1    3    3    0    0  0.23381485525E+01  0.35015329154E+01  0.72319062963E+01  0.83682818040E+01  0.51100000000E-03 0. -1.
        -11    1    3    3    0    0  0.14536086968E+02 -0.34982516779E+01 -0.97039398079E+01  0.17824198080E+02  0.51100000000E-03 0.  1.
        -12    1    3    3    0    0  0.22549438376E+02 -0.89660832416E+01 -0.18416333626E+01  0.24336380857E+02  0.00000000000E+00 0.  1.
</event>
<event>
 7    1  0.5479172E-013  0.5052887E+02  0.7816164E-02  0.1300439E+00
        -11   -1    0    0    0    0  0.00000000000E+00  0.00000000000E+00  0.45593999997E+02  0.45594000000E+02  0.51100000000E-03 0.  1.
         11   -1    0    0    0    0 -0.00000000000E+00 -0.00000000000E+00 -0.45593999997E+02  0.45594000000E+02  0.51100000000E-03 0. -1.
    9900012    2    1    2    0    0 -0.53549595165E+01 -0.27345597135E+02  0.29609253488E+02  0.50528866140E+02  0.30000019120E+02 0.  0.
         12    1    1    2    0    0  0.53549595165E+01  0.27345597135E+02 -0.29609253488E+02  0.40659133860E+02  0.00000000000E+00 0. -1.
         11    1    3    3    0    0  0.34761195293E+01  0.15977632908E+01 -0.32115806845E-01  0.38258706462E+01  0.51100000000E-03 0. -1.
        -11    1    3    3    0    0  0.31249741936E+01 -0.24900787239E+01  0.12197798649E+02  0.12835585219E+02  0.51100000000E-03 0.  1.
         12    1    3    3    0    0 -0.11956053239E+02 -0.26453281702E+02  0.17443570645E+02  0.33867410275E+02  0.00000000000E+00 0. -1.
</event>
<event>
 7    1  0.5479172E-013  0.5052888E+02  0.7816164E-02  0.1300439E+00
        -11   -1    0    0    0    0  0.00000000000E+00  0.00000000000E+00  0.45593999997E+02  0.45594000000E+02  0.51100000000E-03 0. -1.
         11   -1    0    0    0    0 -0.00000000000E+00 -0.00000000000E+00 -0.45593999997E+02  0.45594000000E+02  0.51100000000E-03 0.  1.
    9900012    2    1    2    0    0 -0.30614709978E+02 -0.77564085125E+01 -0.25607458517E+02  0.50528877140E+02  0.30000052555E+02 0.  0.
         12    1    1    2    0    0  0.30614709978E+02  0.77564085125E+01  0.25607458517E+02  0.40659122860E+02  0.00000000000E+00 0. -1.
         11    1    3    3    0    0 -0.57299767191E+01 -0.29055681168E+01  0.30735027514E+01  0.71218943201E+01  0.51100000000E-03 0. -1.
        -11    1    3    3    0    0 -0.41420157749E+01  0.26536395436E+01  0.22555768461E+01  0.54116286528E+01  0.51100000000E-03 0.  1.
        -12    1    3    3    0    0 -0.20742717484E+02 -0.75044799392E+01 -0.30936538114E+02  0.37995354167E+02  0.00000000000E+00 0.  1.
</event>
<event>
 7    1  0.5479172E-013  0.5052886E+02  0.7816164E-02  0.1300439E+00
        -11   -1    0    0    0    0  0.00000000000E+00  0.00000000000E+00  0.45593999997E+02  0.45594000000E+02  0.51100000000E-03 0.  1.
         11   -1    0    0    0    0 -0.00000000000E+00 -0.00000000000E+00 -0.45593999997E+02  0.45594000000E+02  0.51100000000E-03 0. -1.
    9900012    2    1    2    0    0  0.17082175366E+02 -0.36886670245E+02  0.85953637513E+00  0.50528856382E+02  0.29999989458E+02 0.  0.
         12    1    1    2    0    0 -0.17082175366E+02  0.36886670245E+02 -0.85953637513E+00  0.40659143618E+02  0.00000000000E+00 0. -1.
         11    1    3    3    0    0  0.15615360126E+01 -0.20547251447E+02  0.78588452516E+01  0.22054237364E+02  0.51100000000E-03 0. -1.
        -11    1    3    3    0    0  0.10501472969E+02 -0.17783864298E+02 -0.12259411981E+01  0.20689361903E+02  0.51100000000E-03 0.  1.
         12    1    3    3    0    0  0.50191663844E+01  0.14444455001E+01 -0.57733676783E+01  0.77852571150E+01  0.00000000000E+00 0. -1.
</event>
<event>
 7    1  0.5479172E-013  0.5052884E+02  0.7816164E-02  0.1300439E+00
        -11   -1    0    0    0    0  0.00000000000E+00  0.00000000000E+00  0.45593999997E+02  0.45594000000E+02  0.51100000000E-03 0. -1.
         11   -1    0    0    0    0 -0.00000000000E+00 -0.00000000000E+00 -0.45593999997E+02  0.45594000000E+02  0.51100000000E-03 0.  1.
    9900012    2    1    2    0    0  0.82212409284E+01  0.23482769950E+01 -0.39750015803E+02  0.50528844038E+02  0.29999951937E+02 0.  0.
         12    1    1    2    0    0 -0.82212409284E+01 -0.23482769950E+01  0.39750015803E+02  0.40659155962E+02  0.00000000000E+00 0. -1.
         11    1    3    3    0    0  0.85311759086E+01 -0.42598217186E+01 -0.15257963297E+01  0.96568679270E+01  0.51100000000E-03 0. -1.
        -11    1    3    3    0    0  0.70420292275E+00 -0.35758398352E+01 -0.56116973250E+01  0.66913137284E+01  0.51100000000E-03 0.  1.
        -12    1    3    3    0    0 -0.10141379030E+01  0.10183938549E+02 -0.32612522148E+02  0.34180662382E+02  0.00000000000E+00 0.  1.
</event>
<event>
 7    1  0.5479172E-013  0.5052886E+02  0.7816164E-02  0.1300439E+00
        -11   -1    0    0    0    0  0.00000000000E+00  0.00000000000E+00  0.45593999997E+02  0.45594000000E+02  0.51100000000E-03 0. -1.
         11   -1    0    0    0    0 -0.00000000000E+00 -0.00000000000E+00 -0.45593999997E+02  0.45594000000E+02  0.51100000000E-03 0.  1.
    9900012    2    1    2    0    0 -0.30324775152E+01  0.81567011626E+01 -0.39716974259E+02  0.50528859109E+02  0.29999997747E+02 0.  0.
         12    1    1    2    0    0  0.30324775152E+01 -0.81567011626E+01  0.39716974259E+02  0.40659140891E+02  0.00000000000E+00 0. -1.
         11    1    3    3    0    0  0.88671170243E+00  0.61919817661E+00  0.18106722558E+01  0.21090752249E+01  0.51100000000E-03 0.  1.
        -11    1    3    3    0    0  0.17718383900E+01  0.52157803793E+01  0.87186205944E+00  0.55770888425E+01  0.51100000000E-03 0. -1.
        -12    1    3    3    0    0 -0.56910276077E+01  0.23217226067E+01 -0.42399508574E+02  0.42842695041E+02  0.00000000000E+00 0.  1.
</event>
<event>
 7    1  0.5479172E-013  0.5052884E+02  0.7816164E-02  0.1300439E+00
        -11   -1    0    0    0    0  0.00000000000E+00  0.00000000000E+00  0.45593999997E+02  0.45594000000E+02  0.51100000000E-03 0.  1.
         11   -1    0    0    0    0 -0.00000000000E+00 -0.00000000000E+00 -0.45593999997E+02  0.45594000000E+02  0.51100000000E-03 0. -1.
    9900012    2    1    2    0    0 -0.40631862638E+01 -0.24233724056E+02  0.32394200927E+02  0.50528842140E+02  0.29999946167E+02 0.  0.
         12    1    1    2    0    0  0.40631862638E+01  0.24233724056E+02 -0.32394200927E+02  0.40659157860E+02  0.00000000000E+00 0. -1.
         11    1    3    3    0    0  0.52108141588E+01  0.59225793138E+00  0.19317408264E+01  0.55888260428E+01  0.51100000000E-03 0. -1.
        -11    1    3    3    0    0 -0.11305155949E+02 -0.66267833290E+01  0.19818632408E+02  0.23759187678E+02  0.51100000000E-03 0.  1.
         12    1    3    3    0    0  0.20311555264E+01 -0.18199198658E+02  0.10643827692E+02  0.21180828419E+02  0.00000000000E+00 0. -1.
</event>
<event>
 7    1  0.5479172E-013  0.5052885E+02  0.7816164E-02  0.1300439E+00
        -11   -1    0    0    0    0  0.00000000000E+00  0.00000000000E+00  0.45593999997E+02  0.45594000000E+02  0.51100000000E-03 0. -1.
         11   -1    0    0    0    0 -0.00000000000E+00 -0.00000000000E+00 -0.45593999997E+02  0.45594000000E+02  0.51100000000E-03 0.  1.
    9900012    2    1    2    0    0 -0.24519868672E+02  0.23919572593E+02 -0.21904258188E+02  0.50528850482E+02  0.29999971526E+02 0.  0.
         12    1    1    2    0    0  0.24519868672E+02 -0.23919572593E+02  0.21904258188E+02  0.40659149518E+02  0.00000000000E+00 0. -1.
         11    1    3    3    0    0 -0.84893252789E+00 -0.29819394063E+01 -0.91186851101E+01  0.96313585469E+01  0.51100000000E-03 0. -1.
        -11    1    3    3    0    0 -0.78485214825E+01  0.17622207631E+02 -0.14735305278E+01  0.19347164747E+02  0.51100000000E-03 0.  1.
         12    1    3    3    0    0 -0.15822414662E+02  0.92793043679E+01 -0.11312042550E+02  0.21550327189E+02  0.00000000000E+00 0. -1.
</event>
<event>
 7    1  0.5479172E-013  0.5052883E+02  0.7816164E-02  0.1300439E+00
        -11   -1    0    0    0    0  0.00000000000E+00  0.00000000000E+00  0.45593999997E+02  0.45594000000E+02  0.51100000000E-03 0.  1.
         11   -1    0    0    0    0 -0.00000000000E+00 -0.00000000000E+00 -0.45593999997E+02  0.45594000000E+02  0.51100000000E-03 0. -1.
    9900012    2    1    2    0    0 -0.33723520370E+02 -0.15658678504E+02  0.16452902227E+02  0.50528830919E+02  0.29999912062E+02 0.  0.
         12    1    1    2    0    0  0.33723520370E+02  0.15658678504E+02 -0.16452902227E+02  0.40659169081E+02  0.00000000000E+00 0. -1.
         11    1    3    3    0    0 -0.49035388322E+00 -0.68506810543E+01  0.83564225187E+01  0.10816749762E+02  0.51100000000E-03 0. -1.
        -11    1    3    3    0    0 -0.16389754176E+02 -0.34575656437E+01 -0.52631689794E+01  0.17557897087E+02  0.51100000000E-03 0.  1.
         12    1    3    3    0    0 -0.16843412311E+02 -0.53504318064E+01  0.13359648687E+02  0.22154184071E+02  0.00000000000E+00 0. -1.
</event>
<event>
 7    1  0.5479172E-013  0.5052892E+02  0.7816164E-02  0.1300439E+00
        -11   -1    0    0    0    0  0.00000000000E+00  0.00000000000E+00  0.45593999997E+02  0.45594000000E+02  0.51100000000E-03 0.  1.
         11   -1    0    0    0    0 -0.00000000000E+00 -0.00000000000E+00 -0.45593999997E+02  0.45594000000E+02  0.51100000000E-03 0. -1.
    9900012    2    1    2    0    0 -0.24720539511E+02  0.34318117733E+01  0.32097948793E+02  0.50528920786E+02  0.30000185221E+02 0.  0.
         12    1    1    2    0    0  0.24720539511E+02 -0.34318117733E+01 -0.32097948793E+02  0.40659079214E+02  0.00000000000E+00 0. -1.
         11    1    3    3    0    0 -0.11039945743E+02  0.68260099771E+01  0.58086856027E+01  0.14220254671E+02  0.51100000000E-03 0. -1.
        -11    1    3    3    0    0 -0.10211696956E+02  0.29404680746E+01  0.18017288340E+01  0.10778280673E+02  0.51100000000E-03 0.  1.
        -12    1    3    3    0    0 -0.34688968120E+01 -0.63346662784E+01  0.24487534357E+02  0.25530385442E+02  0.00000000000E+00 0.  1.
</event>
<event>
 7    1  0.5479172E-013  0.5052886E+02  0.7816164E-02  0.1300439E+00
        -11   -1    0    0    0    0  0.00000000000E+00  0.00000000000E+00  0.45593999997E+02  0.45594000000E+02  0.51100000000E-03 0.  1.
         11   -1    0    0    0    0 -0.00000000000E+00 -0.00000000000E+00 -0.45593999997E+02  0.45594000000E+02  0.51100000000E-03 0. -1.
    9900012    2    1    2    0    0 -0.19346172583E+02  0.30722129228E+01 -0.35629381069E+02  0.50528859807E+02  0.29999999871E+02 0.  0.
         12    1    1    2    0    0  0.19346172583E+02 -0.30722129228E+01  0.35629381069E+02  0.40659140193E+02  0.00000000000E+00 0. -1.
         11    1    3    3    0    0 -0.10596860643E+02  0.10839338882E+02 -0.15277115683E+02  0.21521500569E+02  0.51100000000E-03 0. -1.
        -11    1    3    3    0    0 -0.33757999035E+01 -0.24749410197E+01  0.25457807669E+01  0.48992201435E+01  0.51100000000E-03 0.  1.
         12    1    3    3    0    0 -0.53735120372E+01 -0.52921849394E+01 -0.22898046152E+02  0.24108139095E+02  0.00000000000E+00 0. -1.
</event>
<event>
 7    1  0.5479172E-013  0.5052886E+02  0.7816164E-02  0.1300439E+00
        -11   -1    0    0    0    0  0.00000000000E+00  0.00000000000E+00  0.45593999997E+02  0.45594000000E+02  0.51100000000E-03 0.  1.
         11   -1    0    0    0    0 -0.00000000000E+00 -0.00000000000E+00 -0.45593999997E+02  0.45594000000E+02  0.51100000000E-03 0. -1.
    9900012    2    1    2    0    0  0.30661591358E+02  0.11988003436E+02  0.23860434573E+02  0.50528858973E+02  0.29999997335E+02 0.  0.
         12    1    1    2    0    0 -0.30661591358E+02 -0.11988003436E+02 -0.23860434573E+02  0.40659141027E+02  0.00000000000E+00 0. -1.
         11    1    3    3    0    0  0.99789467483E+00  0.67661983240E+00 -0.11331358310E+01  0.16545710176E+01  0.51100000000E-03 0. -1.
        -11    1    3    3    0    0  0.13921494837E+02  0.13952210206E+02  0.26291971900E+02  0.32859397054E+02  0.51100000000E-03 0.  1.
        -12    1    3    3    0    0  0.15742201847E+02 -0.26408266030E+01 -0.12984014952E+01  0.16014890901E+02  0.00000000000E+00 0.  1.
</event>
<event>
 7    1  0.5479172E-013  0.5052885E+02  0.7816164E-02  0.1300439E+00
        -11   -1    0    0    0    0  0.00000000000E+00  0.00000000000E+00  0.45593999997E+02  0.45594000000E+02  0.51100000000E-03 0. -1.
         11   -1    0    0    0    0 -0.00000000000E+00 -0.00000000000E+00 -0.45593999997E+02  0.45594000000E+02  0.51100000000E-03 0.  1.
    9900012    2    1    2    0    0  0.32507761239E+02  0.10641720684E+02 -0.21981021965E+02  0.50528854823E+02  0.29999984721E+02 0.  0.
         12    1    1    2    0    0 -0.32507761239E+02 -0.10641720684E+02  0.21981021965E+02  0.40659145177E+02  0.00000000000E+00 0. -1.
         11    1    3    3    0    0  0.60241663946E+00  0.21373959989E+01 -0.28248226081E+01  0.35931866765E+01  0.51100000000E-03 0.  1.
        -11    1    3    3    0    0  0.13334309935E+02  0.16220295778E+02 -0.16388013409E+02  0.26635855539E+02  0.51100000000E-03 0. -1.
        -12    1    3    3    0    0  0.18571034665E+02 -0.77159710937E+01 -0.27681859479E+01  0.20299812607E+02  0.00000000000E+00 0.  1.
</event>
<event>
 7    1  0.5479172E-013  0.5052886E+02  0.7816164E-02  0.1300439E+00
        -11   -1    0    0    0    0  0.00000000000E+00  0.00000000000E+00  0.45593999997E+02  0.45594000000E+02  0.51100000000E-03 0.  1.
         11   -1    0    0    0    0 -0.00000000000E+00 -0.00000000000E+00 -0.45593999997E+02  0.45594000000E+02  0.51100000000E-03 0. -1.
    9900012    2    1    2    0    0 -0.16315930952E+02 -0.16853554837E+02  0.33210144849E+02  0.50528860383E+02  0.30000001622E+02 0.  0.
         12    1    1    2    0    0  0.16315930952E+02  0.16853554837E+02 -0.33210144849E+02  0.40659139617E+02  0.00000000000E+00 0. -1.
         11    1    3    3    0    0 -0.61903375805E+01 -0.10995312906E+01  0.14799581310E+02  0.16079703220E+02  0.51100000000E-03 0. -1.
        -11    1    3    3    0    0 -0.16836911202E+02 -0.85774284163E+01  0.14721786639E+02  0.23953806778E+02  0.51100000000E-03 0.  1.
         12    1    3    3    0    0  0.67113178312E+01 -0.71765951302E+01  0.36887768999E+01  0.10495350385E+02  0.00000000000E+00 0. -1.
</event>
<event>
 7    1  0.5479172E-013  0.5052886E+02  0.7816164E-02  0.1300439E+00
        -11   -1    0    0    0    0  0.00000000000E+00  0.00000000000E+00  0.45593999997E+02  0.45594000000E+02  0.51100000000E-03 0.  1.
         11   -1    0    0    0    0 -0.00000000000E+00 -0.00000000000E+00 -0.45593999997E+02  0.45594000000E+02  0.51100000000E-03 0. -1.
    9900012    2    1    2    0    0  0.33704418099E+02  0.22729220518E+02  0.74883725134E+00  0.50528855617E+02  0.29999987132E+02 0.  0.
         12    1    1    2    0    0 -0.33704418099E+02 -0.22729220518E+02 -0.74883725134E+00  0.40659144383E+02  0.00000000000E+00 0. -1.
         11    1    3    3    0    0  0.19499101949E+02  0.30576955870E+00  0.63089578168E+01  0.20496619741E+02  0.51100000000E-03 0. -1.
        -11    1    3    3    0    0  0.90619256285E+01  0.32203765647E+01 -0.13508631450E+01  0.97115473953E+01  0.51100000000E-03 0.  1.
         12    1    3    3    0    0  0.51433905222E+01  0.19203074394E+02 -0.42092574205E+01  0.20320688480E+02  0.00000000000E+00 0. -1.
</event>
<event>
 7    1  0.5479172E-013  0.5052882E+02  0.7816164E-02  0.1300439E+00
        -11   -1    0    0    0    0  0.00000000000E+00  0.00000000000E+00  0.45593999997E+02  0.45594000000E+02  0.51100000000E-03 0. -1.
         11   -1    0    0    0    0 -0.00000000000E+00 -0.00000000000E+00 -0.45593999997E+02  0.45594000000E+02  0.51100000000E-03 0.  1.
    9900012    2    1    2    0    0  0.24196922763E+02 -0.32348123551E+02 -0.46126493761E+01  0.50528822650E+02  0.29999886927E+02 0.  0.
         12    1    1    2    0    0 -0.24196922763E+02  0.32348123551E+02  0.46126493761E+01  0.40659177350E+02  0.00000000000E+00 0. -1.
         11    1    3    3    0    0  0.49713098496E+01 -0.94010068942E+01  0.64396591738E+01  0.12432299175E+02  0.51100000000E-03 0. -1.
        -11    1    3    3    0    0 -0.25154571724E+01 -0.71231346099E+01  0.25355646912E+01  0.79684164061E+01  0.51100000000E-03 0.  1.
         12    1    3    3    0    0  0.21741070086E+02 -0.15823982047E+02 -0.13587873241E+02  0.30128107069E+02  0.00000000000E+00 0. -1.
</event>
<event>
 7    1  0.5479172E-013  0.5052888E+02  0.7816164E-02  0.1300439E+00
        -11   -1    0    0    0    0  0.00000000000E+00  0.00000000000E+00  0.45593999997E+02  0.45594000000E+02  0.51100000000E-03 0. -1.
         11   -1    0    0    0    0 -0.00000000000E+00 -0.00000000000E+00 -0.45593999997E+02  0.45594000000E+02  0.51100000000E-03 0.  1.
    9900012    2    1    2    0    0 -0.89112984212E+01 -0.25902360456E+02 -0.30046976449E+02  0.50528876663E+02  0.30000051106E+02 0.  0.
         12    1    1    2    0    0  0.89112984212E+01  0.25902360456E+02  0.30046976449E+02  0.40659123337E+02  0.00000000000E+00 0. -1.
         11    1    3    3    0    0  0.51630179417E+01  0.21947923098E+01 -0.43990851647E+01  0.71292228256E+01  0.51100000000E-03 0. -1.
        -11    1    3    3    0    0  0.17229763622E-01  0.10062246441E+01  0.10591900768E+01  0.14610505737E+01  0.51100000000E-03 0.  1.
        -12    1    3    3    0    0 -0.14091546127E+02 -0.29103377410E+02 -0.26707081361E+02  0.41938603264E+02  0.00000000000E+00 0.  1.
</event>
<event>
 7    1  0.5479172E-013  0.5052886E+02  0.7816164E-02  0.1300439E+00
        -11   -1    0    0    0    0  0.00000000000E+00  0.00000000000E+00  0.45593999997E+02  0.45594000000E+02  0.51100000000E-03 0.  1.
         11   -1    0    0    0    0 -0.00000000000E+00 -0.00000000000E+00 -0.45593999997E+02  0.45594000000E+02  0.51100000000E-03 0. -1.
    9900012    2    1    2    0    0  0.52710072991E+01 -0.27456513659E+02  0.29521550385E+02  0.50528860838E+02  0.30000003003E+02 0.  0.
         12    1    1    2    0    0 -0.52710072991E+01  0.27456513659E+02 -0.29521550385E+02  0.40659139162E+02  0.00000000000E+00 0. -1.
         11    1    3    3    0    0 -0.71726106120E+01 -0.10677708272E+02  0.11395417597E+02  0.17184741470E+02  0.51100000000E-03 0. -1.
        -11    1    3    3    0    0 -0.26491726335E+01 -0.10769102778E+02  0.10947957371E+02  0.15583627984E+02  0.51100000000E-03 0.  1.
         12    1    3    3    0    0  0.15092790545E+02 -0.60097026085E+01  0.71781754174E+01  0.17760491384E+02  0.00000000000E+00 0. -1.
</event>
<event>
 7    1  0.5479172E-013  0.5052886E+02  0.7816164E-02  0.1300439E+00
        -11   -1    0    0    0    0  0.00000000000E+00  0.00000000000E+00  0.45593999997E+02  0.45594000000E+02  0.51100000000E-03 0.  1.
         11   -1    0    0    0    0 -0.00000000000E+00 -0.00000000000E+00 -0.45593999997E+02  0.45594000000E+02  0.51100000000E-03 0. -1.
    9900012    2    1    2    0    0 -0.20162837439E+02  0.29166763592E+02  0.19897871403E+02  0.50528863285E+02  0.30000010442E+02 0.  0.
         12    1    1    2    0    0  0.20162837439E+02 -0.29166763592E+02 -0.19897871403E+02  0.40659136715E+02  0.00000000000E+00 0. -1.
         11    1    3    3    0    0 -0.13283797820E+02  0.22496124535E+02  0.16274598232E+02  0.30779822149E+02  0.51100000000E-03 0.  1.
        -11    1    3    3    0    0 -0.66228712505E+01  0.46192078903E+01  0.10111196690E+02  0.12939698756E+02  0.51100000000E-03 0. -1.
         12    1    3    3    0    0 -0.25616836855E+00  0.20514311661E+01 -0.64879235190E+01  0.68093423802E+01  0.00000000000E+00 0. -1.
</event>
<event>
 7    1  0.5479172E-013  0.5052886E+02  0.7816164E-02  0.1300439E+00
        -11   -1    0    0    0    0  0.00000000000E+00  0.00000000000E+00  0.45593999997E+02  0.45594000000E+02  0.51100000000E-03 0.  1.
         11   -1    0    0    0    0 -0.00000000000E+00 -0.00000000000E+00 -0.45593999997E+02  0.45594000000E+02  0.51100000000E-03 0. -1.
    9900012    2    1    2    0    0  0.17221089976E+02  0.36274288480E+02  0.63856073430E+01  0.50528856799E+02  0.29999990727E+02 0.  0.
         12    1    1    2    0    0 -0.17221089976E+02 -0.36274288480E+02 -0.63856073430E+01  0.40659143201E+02  0.00000000000E+00 0. -1.
         11    1    3    3    0    0  0.20330398160E+02  0.13947790053E+02  0.10098887197E+01  0.24675611688E+02  0.51100000000E-03 0. -1.
        -11    1    3    3    0    0 -0.36036014926E+01  0.10045764608E+01 -0.38644370521E+00  0.37609116690E+01  0.51100000000E-03 0.  1.
        -12    1    3    3    0    0  0.49429330805E+00  0.21321921966E+02  0.57621623286E+01  0.22092333442E+02  0.00000000000E+00 0.  1.
</event>
<event>
 7    1  0.5479172E-013  0.5052886E+02  0.7816164E-02  0.1300439E+00
        -11   -1    0    0    0    0  0.00000000000E+00  0.00000000000E+00  0.45593999997E+02  0.45594000000E+02  0.51100000000E-03 0.  1.
         11   -1    0    0    0    0 -0.00000000000E+00 -0.00000000000E+00 -0.45593999997E+02  0.45594000000E+02  0.51100000000E-03 0. -1.
    9900012    2    1    2    0    0  0.11932220296E+02 -0.28417280129E+02  0.26518777879E+02  0.50528864848E+02  0.30000015191E+02 0.  0.
         12    1    1    2    0    0 -0.11932220296E+02  0.28417280129E+02 -0.26518777879E+02  0.40659135152E+02  0.00000000000E+00 0. -1.
         11    1    3    3    0    0 -0.26601461687E+01  0.35378590604E+01  0.29123168250E+01  0.52985294111E+01  0.51100000000E-03 0. -1.
        -11    1    3    3    0    0 -0.11293094617E+01 -0.38881083331E+01  0.90611899515E+01  0.99246103132E+01  0.51100000000E-03 0.  1.
         12    1    3    3    0    0  0.15721675926E+02 -0.28067030857E+02  0.14545271102E+02  0.35305725123E+02  0.00000000000E+00 0. -1.
</event>
<event>
 7    1  0.5479172E-013  0.5052886E+02  0.7816164E-02  0.1300439E+00
        -11   -1    0    0    0    0  0.00000000000E+00  0.00000000000E+00  0.45593999997E+02  0.45594000000E+02  0.51100000000E-03 0.  1.
         11   -1    0    0    0    0 -0.00000000000E+00 -0.00000000000E+00 -0.45593999997E+02  0.45594000000E+02  0.51100000000E-03 0. -1.
    9900012    2    1    2    0    0  0.15154728584E+02  0.35848785892E+01  0.37558600857E+02  0.50528860175E+02  0.30000000989E+02 0.  0.
         12    1    1    2    0    0 -0.15154728584E+02 -0.35848785892E+01 -0.37558600857E+02  0.40659139825E+02  0.00000000000E+00 0. -1.
         11    1    3    3    0    0  0.44475246112E+01 -0.12005552409E+01  0.12001421740E+01  0.47604778702E+01  0.51100000000E-03 0. -1.
        -11    1    3    3    0    0 -0.27145474118E+01 -0.65766616078E+01  0.21822809136E+02  0.22953349307E+02  0.51100000000E-03 0.  1.
         12    1    3    3    0    0  0.13421751385E+02  0.11362095438E+02  0.14535649547E+02  0.22815032999E+02  0.00000000000E+00 0. -1.
</event>
<event>
 7    1  0.5479172E-013  0.5052886E+02  0.7816164E-02  0.1300439E+00
        -11   -1    0    0    0    0  0.00000000000E+00  0.00000000000E+00  0.45593999997E+02  0.45594000000E+02  0.51100000000E-03 0.  1.
         11   -1    0    0    0    0 -0.00000000000E+00 -0.00000000000E+00 -0.45593999997E+02  0.45594000000E+02  0.51100000000E-03 0. -1.
    9900012    2    1    2    0    0 -0.21742385870E+02 -0.19522239260E+02  0.28272181570E+02  0.50528863023E+02  0.30000009644E+02 0.  0.
         12    1    1    2    0    0  0.21742385870E+02  0.19522239260E+02 -0.28272181570E+02  0.40659136977E+02  0.00000000000E+00 0. -1.
         11    1    3    3    0    0  0.45212990873E+00 -0.26972782982E+01 -0.39329669171E+01  0.47904029793E+01  0.51100000000E-03 0. -1.
        -11    1    3    3    0    0 -0.54436786274E+01 -0.16195618661E+00 -0.41335791823E+00  0.54617517185E+01  0.51100000000E-03 0.  1.
        -12    1    3    3    0    0 -0.16750837151E+02 -0.16663004775E+02  0.32618506405E+02  0.40276708325E+02  0.00000000000E+00 0.  1.
</event>
<event>
 7    1  0.5479172E-013  0.5052886E+02  0.7816164E-02  0.1300439E+00
        -11   -1    0    0    0    0  0.00000000000E+00  0.00000000000E+00  0.45593999997E+02  0.45594000000E+02  0.51100000000E-03 0.  1.
         11   -1    0    0    0    0 -0.00000000000E+00 -0.00000000000E+00 -0.45593999997E+02  0.45594000000E+02  0.51100000000E-03 0. -1.
    9900012    2    1    2    0    0  0.54379673881E+01 -0.39089237022E+02  0.97788428402E+01  0.50528859483E+02  0.29999998885E+02 0.  0.
         12    1    1    2    0    0 -0.54379673881E+01  0.39089237022E+02 -0.97788428402E+01  0.40659140517E+02  0.00000000000E+00 0. -1.
         11    1    3    3    0    0  0.33420112615E+01 -0.16516873131E+02  0.85082555592E+01  0.18877673327E+02  0.51100000000E-03 0.  1.
        -11    1    3    3    0    0  0.10181848634E+02 -0.17707432668E+02  0.57291961767E+01  0.21214308906E+02  0.51100000000E-03 0. -1.
         12    1    3    3    0    0 -0.80858925074E+01 -0.48649312229E+01 -0.44586088957E+01  0.10436877250E+02  0.00000000000E+00 0. -1.
</event>
<event>
 7    1  0.5479172E-013  0.5052886E+02  0.7816164E-02  0.1300439E+00
        -11   -1    0    0    0    0  0.00000000000E+00  0.00000000000E+00  0.45593999997E+02  0.45594000000E+02  0.51100000000E-03 0. -1.
         11   -1    0    0    0    0 -0.00000000000E+00 -0.00000000000E+00 -0.45593999997E+02  0.45594000000E+02  0.51100000000E-03 0.  1.
    9900012    2    1    2    0    0  0.10595240419E+02  0.38281397314E+02  0.86856812566E+01  0.50528861314E+02  0.30000004449E+02 0.  0.
         12    1    1    2    0    0 -0.10595240419E+02 -0.38281397314E+02 -0.86856812566E+01  0.40659138686E+02  0.00000000000E+00 0. -1.
         11    1    3    3    0    0 -0.44970369413E+01  0.10063836321E+02  0.77266433149E+01  0.13461246596E+02  0.51100000000E-03 0. -1.
        -11    1    3    3    0    0  0.31643930651E+01  0.54326292206E+01 -0.76909801912E+01  0.99336811043E+01  0.51100000000E-03 0.  1.
         12    1    3    3    0    0  0.11927884296E+02  0.22784931772E+02  0.86500181329E+01  0.27133933613E+02  0.00000000000E+00 0. -1.
</event>
<event>
 7    1  0.5479172E-013  0.5052886E+02  0.7816164E-02  0.1300439E+00
        -11   -1    0    0    0    0  0.00000000000E+00  0.00000000000E+00  0.45593999997E+02  0.45594000000E+02  0.51100000000E-03 0.  1.
         11   -1    0    0    0    0 -0.00000000000E+00 -0.00000000000E+00 -0.45593999997E+02  0.45594000000E+02  0.51100000000E-03 0. -1.
    9900012    2    1    2    0    0  0.40018233114E+02  0.63342890504E+01  0.34034034239E+01  0.50528863829E+02  0.30000012094E+02 0.  0.
         12    1    1    2    0    0 -0.40018233114E+02 -0.63342890504E+01 -0.34034034239E+01  0.40659136171E+02  0.00000000000E+00 0. -1.
         11    1    3    3    0    0  0.68046850553E+01  0.28637776220E+00 -0.22629742982E+01  0.71768240789E+01  0.51100000000E-03 0. -1.
        -11    1    3    3    0    0  0.29867537412E+01  0.23011906070E+01 -0.88439441679E+01  0.96141315170E+01  0.51100000000E-03 0.  1.
        -12    1    3    3    0    0  0.30226794317E+02  0.37467206811E+01  0.14510321890E+02  0.33737908233E+02  0.00000000000E+00 0.  1.
</event>
<event>
 7    1  0.5479172E-013  0.5052886E+02  0.7816164E-02  0.1300439E+00
        -11   -1    0    0    0    0  0.00000000000E+00  0.00000000000E+00  0.45593999997E+02  0.45594000000E+02  0.51100000000E-03 0.  1.
         11   -1    0    0    0    0 -0.00000000000E+00 -0.00000000000E+00 -0.45593999997E+02  0.45594000000E+02  0.51100000000E-03 0. -1.
    9900012    2    1    2    0    0 -0.33037065858E+02 -0.20138633406E+02  0.12496133009E+02  0.50528860607E+02  0.30000002302E+02 0.  0.
         12    1    1    2    0    0  0.33037065858E+02  0.20138633406E+02 -0.12496133009E+02  0.40659139393E+02  0.00000000000E+00 0. -1.
         11    1    3    3    0    0  0.59949566426E+00  0.20464325999E+01 -0.45337460214E+01  0.50102030582E+01  0.51100000000E-03 0. -1.
        -11    1    3    3    0    0 -0.29179676865E+01 -0.48993563881E+01  0.66789396805E+01  0.87821673836E+01  0.51100000000E-03 0.  1.
        -12    1    3    3    0    0 -0.30718593836E+02 -0.17285709618E+02  0.10350939350E+02  0.36736490165E+02  0.00000000000E+00 0.  1.
</event>
<event>
 7    1  0.5479172E-013  0.5052886E+02  0.7816164E-02  0.1300439E+00
        -11   -1    0    0    0    0  0.00000000000E+00  0.00000000000E+00  0.45593999997E+02  0.45594000000E+02  0.51100000000E-03 0. -1.
         11   -1    0    0    0    0 -0.00000000000E+00 -0.00000000000E+00 -0.45593999997E+02  0.45594000000E+02  0.51100000000E-03 0.  1.
    9900012    2    1    2    0    0  0.20837372817E+02 -0.29671504542E+02 -0.18400302784E+02  0.50528862894E+02  0.30000009252E+02 0.  0.
         12    1    1    2    0    0 -0.20837372817E+02  0.29671504542E+02  0.18400302784E+02  0.40659137106E+02  0.00000000000E+00 0. -1.
         11    1    3    3    0    0  0.85568337029E+00 -0.48562511442E+01  0.41353215195E+00  0.49483712782E+01  0.51100000000E-03 0. -1.
        -11    1    3    3    0    0  0.25093468991E+02 -0.22803296021E+02 -0.10279197380E+02  0.35430698475E+02  0.51100000000E-03 0.  1.
        -12    1    3    3    0    0 -0.51117795435E+01 -0.20119573770E+01 -0.85346375556E+01  0.10149793140E+02  0.00000000000E+00 0.  1.
</event>
<event>
 7    1  0.5479172E-013  0.5052882E+02  0.7816164E-02  0.1300439E+00
        -11   -1    0    0    0    0  0.00000000000E+00  0.00000000000E+00  0.45593999997E+02  0.45594000000E+02  0.51100000000E-03 0. -1.
         11   -1    0    0    0    0 -0.00000000000E+00 -0.00000000000E+00 -0.45593999997E+02  0.45594000000E+02  0.51100000000E-03 0.  1.
    9900012    2    1    2    0    0 -0.40840649414E+01 -0.40423682633E+02  0.15539704086E+01  0.50528824798E+02  0.29999893457E+02 0.  0.
         12    1    1    2    0    0  0.40840649414E+01  0.40423682633E+02 -0.15539704086E+01  0.40659175202E+02  0.00000000000E+00 0. -1.
         11    1    3    3    0    0 -0.80825401809E+01 -0.44236424014E+01 -0.42265924400E+01  0.10137068205E+02  0.51100000000E-03 0. -1.
        -11    1    3    3    0    0  0.92283619552E+01 -0.18580976311E+02 -0.15017800792E+01  0.20800737696E+02  0.51100000000E-03 0.  1.
         12    1    3    3    0    0 -0.52298867158E+01 -0.17419063921E+02  0.72823429277E+01  0.19591018898E+02  0.00000000000E+00 0. -1.
</event>
<event>
 7    1  0.5479172E-013  0.5052887E+02  0.7816164E-02  0.1300439E+00
        -11   -1    0    0    0    0  0.00000000000E+00  0.00000000000E+00  0.45593999997E+02  0.45594000000E+02  0.51100000000E-03 0. -1.
         11   -1    0    0    0    0 -0.00000000000E+00 -0.00000000000E+00 -0.45593999997E+02  0.45594000000E+02  0.51100000000E-03 0.  1.
    9900012    2    1    2    0    0  0.63360406092E+01  0.18799591214E+02 -0.35490770596E+02  0.50528870178E+02  0.30000031392E+02 0.  0.
         12    1    1    2    0    0 -0.63360406092E+01 -0.18799591214E+02  0.35490770596E+02  0.40659129822E+02  0.00000000000E+00 0. -1.
         11    1    3    3    0    0  0.14041751516E+02  0.13469072509E+02 -0.11788627465E+02  0.22749910717E+02  0.51100000000E-03 0. -1.
        -11    1    3    3    0    0  0.25643474005E+01  0.26179953760E+01 -0.42193531074E+01  0.55886240064E+01  0.51100000000E-03 0.  1.
        -12    1    3    3    0    0 -0.10270058307E+02  0.27125233288E+01 -0.19482790024E+02  0.22190335454E+02  0.00000000000E+00 0.  1.
</event>
<event>
 7    1  0.5479172E-013  0.5052892E+02  0.7816164E-02  0.1300439E+00
        -11   -1    0    0    0    0  0.00000000000E+00  0.00000000000E+00  0.45593999997E+02  0.45594000000E+02  0.51100000000E-03 0.  1.
         11   -1    0    0    0    0 -0.00000000000E+00 -0.00000000000E+00 -0.45593999997E+02  0.45594000000E+02  0.51100000000E-03 0. -1.
    9900012    2    1    2    0    0  0.35342986655E+02 -0.14893660415E+02  0.13498631277E+02  0.50528918941E+02  0.30000179612E+02 0.  0.
         12    1    1    2    0    0 -0.35342986655E+02  0.14893660415E+02 -0.13498631277E+02  0.40659081059E+02  0.00000000000E+00 0. -1.
         11    1    3    3    0    0  0.11355517422E+02  0.23197034743E+01  0.71652645891E+00  0.11612157877E+02  0.51100000000E-03 0. -1.
        -11    1    3    3    0    0  0.83902265463E+01  0.45722085954E+01  0.86994479709E+00  0.95946754582E+01  0.51100000000E-03 0.  1.
        -12    1    3    3    0    0  0.15597242686E+02 -0.21785572485E+02  0.11912160021E+02  0.29322085605E+02  0.00000000000E+00 0.  1.
</event>
<event>
 7    1  0.5479172E-013  0.5052885E+02  0.7816164E-02  0.1300439E+00
        -11   -1    0    0    0    0  0.00000000000E+00  0.00000000000E+00  0.45593999997E+02  0.45594000000E+02  0.51100000000E-03 0.  1.
         11   -1    0    0    0    0 -0.00000000000E+00 -0.00000000000E+00 -0.45593999997E+02  0.45594000000E+02  0.51100000000E-03 0. -1.
    9900012    2    1    2    0    0 -0.77797101367E+01  0.22795616498E+02  0.32756721915E+02  0.50528845410E+02  0.29999956109E+02 0.  0.
         12    1    1    2    0    0  0.77797101367E+01 -0.22795616498E+02 -0.32756721915E+02  0.40659154590E+02  0.00000000000E+00 0. -1.
         11    1    3    3    0    0 -0.43018758167E+01 -0.19017799034E+01  0.37934221955E+01  0.60425950185E+01  0.51100000000E-03 0. -1.
        -11    1    3    3    0    0  0.52996898052E+00  0.24924908559E+02  0.13179226038E+02  0.28199715123E+02  0.51100000000E-03 0.  1.
         12    1    3    3    0    0 -0.40078033005E+01 -0.22751215732E+00  0.15784073682E+02  0.16286535269E+02  0.00000000000E+00 0. -1.
</event>
<event>
 7    1  0.5479172E-013  0.5052886E+02  0.7816164E-02  0.1300439E+00
        -11   -1    0    0    0    0  0.00000000000E+00  0.00000000000E+00  0.45593999997E+02  0.45594000000E+02  0.51100000000E-03 0.  1.
         11   -1    0    0    0    0 -0.00000000000E+00 -0.00000000000E+00 -0.45593999997E+02  0.45594000000E+02  0.51100000000E-03 0. -1.
    9900012    2    1    2    0    0  0.20513991411E+02 -0.72455124276E+01  0.34348862212E+02  0.50528860447E+02  0.30000001816E+02 0.  0.
         12    1    1    2    0    0 -0.20513991411E+02  0.72455124276E+01 -0.34348862212E+02  0.40659139553E+02  0.00000000000E+00 0. -1.
         11    1    3    3    0    0  0.74514748096E+01 -0.11968158031E+01 -0.35753535420E+01  0.83510477256E+01  0.51100000000E-03 0. -1.
        -11    1    3    3    0    0  0.18633821480E+01  0.33478500316E+01  0.73769536425E+01  0.83126252272E+01  0.51100000000E-03 0.  1.
        -12    1    3    3    0    0  0.11199134453E+02 -0.93965466561E+01  0.30547262111E+02  0.33865187495E+02  0.00000000000E+00 0.  1.
</event>
<event>
 7    1  0.5479172E-013  0.5052885E+02  0.7816164E-02  0.1300439E+00
        -11   -1    0    0    0    0  0.00000000000E+00  0.00000000000E+00  0.45593999997E+02  0.45594000000E+02  0.51100000000E-03 0. -1.
         11   -1    0    0    0    0 -0.00000000000E+00 -0.00000000000E+00 -0.45593999997E+02  0.45594000000E+02  0.51100000000E-03 0.  1.
    9900012    2    1    2    0    0  0.57784446928E+01  0.35496370845E+02 -0.18967955764E+02  0.50528854509E+02  0.29999983765E+02 0.  0.
         12    1    1    2    0    0 -0.57784446928E+01 -0.35496370845E+02  0.18967955764E+02  0.40659145491E+02  0.00000000000E+00 0. -1.
         11    1    3    3    0    0  0.65168163011E+01  0.30149504189E+01 -0.62963062284E+01  0.95499891682E+01  0.51100000000E-03 0. -1.
        -11    1    3    3    0    0  0.20517385172E+01 -0.66141192996E+00  0.34105588749E+01  0.40347253667E+01  0.51100000000E-03 0.  1.
        -12    1    3    3    0    0 -0.27901101255E+01  0.33142832356E+02 -0.16082208410E+02  0.36944139974E+02  0.00000000000E+00 0.  1.
</event>
<event>
 7    1  0.5479172E-013  0.5052887E+02  0.7816164E-02  0.1300439E+00
        -11   -1    0    0    0    0  0.00000000000E+00  0.00000000000E+00  0.45593999997E+02  0.45594000000E+02  0.51100000000E-03 0. -1.
         11   -1    0    0    0    0 -0.00000000000E+00 -0.00000000000E+00 -0.45593999997E+02  0.45594000000E+02  0.51100000000E-03 0.  1.
    9900012    2    1    2    0    0  0.34783983580E+02  0.14173746262E+02  0.15567411300E+02  0.50528869520E+02  0.30000029394E+02 0.  0.
         12    1    1    2    0    0 -0.34783983580E+02 -0.14173746262E+02 -0.15567411300E+02  0.40659130480E+02  0.00000000000E+00 0. -1.
         11    1    3    3    0    0  0.68576361200E+01  0.77347479309E+01  0.16207218359E+02  0.19223096158E+02  0.51100000000E-03 0. -1.
        -11    1    3    3    0    0  0.48246923388E+01  0.61440333716E+01 -0.22975965961E+01  0.81428344337E+01  0.51100000000E-03 0.  1.
         12    1    3    3    0    0  0.23101655121E+02  0.29496495912E+00  0.16577895370E+01  0.23162938929E+02  0.00000000000E+00 0. -1.
</event>
<event>
 7    1  0.5479172E-013  0.5052886E+02  0.7816164E-02  0.1300439E+00
        -11   -1    0    0    0    0  0.00000000000E+00  0.00000000000E+00  0.45593999997E+02  0.45594000000E+02  0.51100000000E-03 0. -1.
         11   -1    0    0    0    0 -0.00000000000E+00 -0.00000000000E+00 -0.45593999997E+02  0.45594000000E+02  0.51100000000E-03 0.  1.
    9900012    2    1    2    0    0  0.21585675998E+02  0.34125371040E+02  0.47627282892E+01  0.50528856654E+02  0.29999990285E+02 0.  0.
         12    1    1    2    0    0 -0.21585675998E+02 -0.34125371040E+02 -0.47627282892E+01  0.40659143346E+02  0.00000000000E+00 0. -1.
         11    1    3    3    0    0  0.12927814582E+02 -0.54837186749E+00  0.26937009006E+01  0.13216850093E+02  0.51100000000E-03 0. -1.
        -11    1    3    3    0    0  0.25103974700E+01  0.58243560097E+01 -0.35739511239E+01  0.72799962419E+01  0.51100000000E-03 0.  1.
         12    1    3    3    0    0  0.61474639466E+01  0.28849386897E+02  0.56429785125E+01  0.30032010319E+02  0.00000000000E+00 0. -1.
</event>
<event>
 7    1  0.5479172E-013  0.5052886E+02  0.7816164E-02  0.1300439E+00
        -11   -1    0    0    0    0  0.00000000000E+00  0.00000000000E+00  0.45593999997E+02  0.45594000000E+02  0.51100000000E-03 0. -1.
         11   -1    0    0    0    0 -0.00000000000E+00 -0.00000000000E+00 -0.45593999997E+02  0.45594000000E+02  0.51100000000E-03 0.  1.
    9900012    2    1    2    0    0 -0.21517664857E+02  0.28372218498E+02  0.19625818888E+02  0.50528862646E+02  0.30000008497E+02 0.  0.
         12    1    1    2    0    0  0.21517664857E+02 -0.28372218498E+02 -0.19625818888E+02  0.40659137354E+02  0.00000000000E+00 0. -1.
         11    1    3    3    0    0 -0.37110418766E+00  0.85743914420E+01  0.72467354552E+01  0.11232679197E+02  0.51100000000E-03 0. -1.
        -11    1    3    3    0    0 -0.34712542589E+01  0.69029289540E+01  0.15380477740E+02  0.17212179700E+02  0.51100000000E-03 0.  1.
        -12    1    3    3    0    0 -0.17675306411E+02  0.12894898102E+02 -0.30013943072E+01  0.22084003748E+02  0.00000000000E+00 0.  1.
</event>
<event>
 7    1  0.5479172E-013  0.5052887E+02  0.7816164E-02  0.1300439E+00
        -11   -1    0    0    0    0  0.00000000000E+00  0.00000000000E+00  0.45593999997E+02  0.45594000000E+02  0.51100000000E-03 0.  1.
         11   -1    0    0    0    0 -0.00000000000E+00 -0.00000000000E+00 -0.45593999997E+02  0.45594000000E+02  0.51100000000E-03 0. -1.
    9900012    2    1    2    0    0  0.38530114992E+02 -0.83148038307E+00  0.12957777296E+02  0.50528866791E+02  0.30000021096E+02 0.  0.
         12    1    1    2    0    0 -0.38530114992E+02  0.83148038307E+00 -0.12957777296E+02  0.40659133209E+02  0.00000000000E+00 0. -1.
         11    1    3    3    0    0  0.24049532155E+02  0.53897713564E+01  0.86030021644E+01  0.26104430249E+02  0.51100000000E-03 0. -1.
        -11    1    3    3    0    0  0.10381915243E+02  0.43364014319E+01  0.63579481196E+01  0.12923314050E+02  0.51100000000E-03 0.  1.
         12    1    3    3    0    0  0.40986675941E+01 -0.10557653171E+02 -0.20031729882E+01  0.11501122491E+02  0.00000000000E+00 0. -1.
</event>
<event>
 7    1  0.5479172E-013  0.5052886E+02  0.7816164E-02  0.1300439E+00
        -11   -1    0    0    0    0  0.00000000000E+00  0.00000000000E+00  0.45593999997E+02  0.45594000000E+02  0.51100000000E-03 0.  1.
         11   -1    0    0    0    0 -0.00000000000E+00 -0.00000000000E+00 -0.45593999997E+02  0.45594000000E+02  0.51100000000E-03 0. -1.
    9900012    2    1    2    0    0  0.12302747758E+02 -0.28467885770E+01  0.38648466434E+02  0.50528858773E+02  0.29999996726E+02 0.  0.
         12    1    1    2    0    0 -0.12302747758E+02  0.28467885770E+01 -0.38648466434E+02  0.40659141227E+02  0.00000000000E+00 0. -1.
         11    1    3    3    0    0  0.27718020635E+01 -0.23522605637E+01 -0.26584889549E+01  0.45037295904E+01  0.51100000000E-03 0.  1.
        -11    1    3    3    0    0 -0.65588916611E+00  0.72709752015E+01  0.12083034447E+02  0.14117258681E+02  0.51100000000E-03 0. -1.
        -12    1    3    3    0    0  0.10186834860E+02 -0.77655032149E+01  0.29223920943E+02  0.31907870501E+02  0.00000000000E+00 0.  1.
</event>
<event>
 7    1  0.5479172E-013  0.5052885E+02  0.7816164E-02  0.1300439E+00
        -11   -1    0    0    0    0  0.00000000000E+00  0.00000000000E+00  0.45593999997E+02  0.45594000000E+02  0.51100000000E-03 0. -1.
         11   -1    0    0    0    0 -0.00000000000E+00 -0.00000000000E+00 -0.45593999997E+02  0.45594000000E+02  0.51100000000E-03 0.  1.
    9900012    2    1    2    0    0  0.21451692665E+02  0.31205677523E+02  0.14805293643E+02  0.50528854070E+02  0.29999982432E+02 0.  0.
         12    1    1    2    0    0 -0.21451692665E+02 -0.31205677523E+02 -0.14805293643E+02  0.40659145930E+02  0.00000000000E+00 0. -1.
         11    1    3    3    0    0  0.46147853029E+01  0.88165396641E+01  0.10457015439E+02  0.14435261937E+02  0.51100000000E-03 0. -1.
        -11    1    3    3    0    0  0.85896357163E+01  0.14477347732E+02  0.13398911218E+02  0.21515256475E+02  0.51100000000E-03 0.  1.
         12    1    3    3    0    0  0.82472716456E+01  0.79117901270E+01 -0.90506330138E+01  0.14578335658E+02  0.00000000000E+00 0. -1.
</event>
<event>
 7    1  0.5479172E-013  0.5052886E+02  0.7816164E-02  0.1300439E+00
        -11   -1    0    0    0    0  0.00000000000E+00  0.00000000000E+00  0.45593999997E+02  0.45594000000E+02  0.51100000000E-03 0.  1.
         11   -1    0    0    0    0 -0.00000000000E+00 -0.00000000000E+00 -0.45593999997E+02  0.45594000000E+02  0.51100000000E-03 0. -1.
    9900012    2    1    2    0    0 -0.86651848649E+01  0.39692371863E+02 -0.16111747967E+01  0.50528859612E+02  0.29999999277E+02 0.  0.
         12    1    1    2    0    0  0.86651848649E+01 -0.39692371863E+02  0.16111747967E+01  0.40659140388E+02  0.00000000000E+00 0. -1.
         11    1    3    3    0    0  0.12003237431E+01  0.31907949165E+01 -0.76406763181E+01  0.83667128639E+01  0.51100000000E-03 0. -1.
        -11    1    3    3    0    0 -0.69473624560E+01  0.36944832741E+02  0.26654041282E+01  0.37686746885E+02  0.51100000000E-03 0.  1.
         12    1    3    3    0    0 -0.29181461521E+01 -0.44325579461E+00  0.33640973932E+01  0.44753998632E+01  0.00000000000E+00 0. -1.
</event>
<event>
 7    1  0.5479172E-013  0.5052880E+02  0.7816164E-02  0.1300439E+00
        -11   -1    0    0    0    0  0.00000000000E+00  0.00000000000E+00  0.45593999997E+02  0.45594000000E+02  0.51100000000E-03 0.  1.
         11   -1    0    0    0    0 -0.00000000000E+00 -0.00000000000E+00 -0.45593999997E+02  0.45594000000E+02  0.51100000000E-03 0. -1.
    9900012    2    1    2    0    0  0.24855605031E+02 -0.11049017935E+02  0.30220670516E+02  0.50528796549E+02  0.29999807590E+02 0.  0.
         12    1    1    2    0    0 -0.24855605031E+02  0.11049017935E+02 -0.30220670516E+02  0.40659203451E+02  0.00000000000E+00 0. -1.
         11    1    3    3    0    0  0.10346601396E+02 -0.57972259269E+00  0.89379635499E+01  0.13684861396E+02  0.51100000000E-03 0. -1.
        -11    1    3    3    0    0  0.16870423955E+02  0.21908812833E+01  0.10075993965E+02  0.19772122290E+02  0.51100000000E-03 0.  1.
         12    1    3    3    0    0 -0.23614203205E+01 -0.12660176626E+02  0.11206713002E+02  0.17071812863E+02  0.00000000000E+00 0. -1.
</event>
<event>
 7    1  0.5479172E-013  0.5052886E+02  0.7816164E-02  0.1300439E+00
        -11   -1    0    0    0    0  0.00000000000E+00  0.00000000000E+00  0.45593999997E+02  0.45594000000E+02  0.51100000000E-03 0. -1.
         11   -1    0    0    0    0 -0.00000000000E+00 -0.00000000000E+00 -0.45593999997E+02  0.45594000000E+02  0.51100000000E-03 0.  1.
    9900012    2    1    2    0    0  0.14234401691E+02  0.14930357884E+02 -0.35037580390E+02  0.50528858130E+02  0.29999994771E+02 0.  0.
         12    1    1    2    0    0 -0.14234401691E+02 -0.14930357884E+02  0.35037580390E+02  0.40659141870E+02  0.00000000000E+00 0. -1.
         11    1    3    3    0    0 -0.25876518857E+01  0.31674127610E+01 -0.13208758847E+02  0.13827500006E+02  0.51100000000E-03 0. -1.
        -11    1    3    3    0    0 -0.69386028739E+00 -0.10568515376E+01 -0.13331476036E+02  0.13391289364E+02  0.51100000000E-03 0.  1.
         12    1    3    3    0    0  0.17515913864E+02  0.12819796661E+02 -0.84973455077E+01  0.23310068760E+02  0.00000000000E+00 0. -1.
</event>
<event>
 7    1  0.5479172E-013  0.5052885E+02  0.7816164E-02  0.1300439E+00
        -11   -1    0    0    0    0  0.00000000000E+00  0.00000000000E+00  0.45593999997E+02  0.45594000000E+02  0.51100000000E-03 0. -1.
         11   -1    0    0    0    0 -0.00000000000E+00 -0.00000000000E+00 -0.45593999997E+02  0.45594000000E+02  0.51100000000E-03 0.  1.
    9900012    2    1    2    0    0 -0.26178707407E+02 -0.25448436154E+02 -0.17894654093E+02  0.50528852575E+02  0.29999977887E+02 0.  0.
         12    1    1    2    0    0  0.26178707407E+02  0.25448436154E+02  0.17894654093E+02  0.40659147425E+02  0.00000000000E+00 0. -1.
         11    1    3    3    0    0 -0.12989548502E+02 -0.22597177344E+00 -0.90236117411E+01  0.15817869725E+02  0.51100000000E-03 0.  1.
        -11    1    3    3    0    0 -0.31916427306E+01  0.20975169171E+01  0.10722794213E+01  0.39668556762E+01  0.51100000000E-03 0. -1.
        -12    1    3    3    0    0 -0.99975161747E+01 -0.27319981298E+02 -0.99433217735E+01  0.30744127174E+02  0.00000000000E+00 0.  1.
</event>
<event>
 7    1  0.5479172E-013  0.5052887E+02  0.7816164E-02  0.1300439E+00
        -11   -1    0    0    0    0  0.00000000000E+00  0.00000000000E+00  0.45593999997E+02  0.45594000000E+02  0.51100000000E-03 0.  1.
         11   -1    0    0    0    0 -0.00000000000E+00 -0.00000000000E+00 -0.45593999997E+02  0.45594000000E+02  0.51100000000E-03 0. -1.
    9900012    2    1    2    0    0 -0.30239173171E+02 -0.20983383187E+02  0.17275841308E+02  0.50528872403E+02  0.30000038156E+02 0.  0.
         12    1    1    2    0    0  0.30239173171E+02  0.20983383187E+02 -0.17275841308E+02  0.40659127597E+02  0.00000000000E+00 0. -1.
         11    1    3    3    0    0 -0.53428666415E+01  0.59431632983E+01  0.99862569420E+00  0.80538604083E+01  0.51100000000E-03 0. -1.
        -11    1    3    3    0    0 -0.65322611390E+01 -0.86176586242E-02  0.15368259131E+01  0.67106142789E+01  0.51100000000E-03 0.  1.
        -12    1    3    3    0    0 -0.18364045391E+02 -0.26917928827E+02  0.14740389701E+02  0.35764397716E+02  0.00000000000E+00 0.  1.
</event>
<event>
 7    1  0.5479172E-013  0.5052886E+02  0.7816164E-02  0.1300439E+00
        -11   -1    0    0    0    0  0.00000000000E+00  0.00000000000E+00  0.45593999997E+02  0.45594000000E+02  0.51100000000E-03 0. -1.
         11   -1    0    0    0    0 -0.00000000000E+00 -0.00000000000E+00 -0.45593999997E+02  0.45594000000E+02  0.51100000000E-03 0.  1.
    9900012    2    1    2    0    0  0.11941932224E+02  0.37178923773E+02 -0.11326240533E+02  0.50528857820E+02  0.29999993831E+02 0.  0.
         12    1    1    2    0    0 -0.11941932224E+02 -0.37178923773E+02  0.11326240533E+02  0.40659142180E+02  0.00000000000E+00 0. -1.
         11    1    3    3    0    0  0.10249577211E+01  0.12976909233E+02 -0.12523641062E+01  0.13077428175E+02  0.51100000000E-03 0. -1.
        -11    1    3    3    0    0  0.13912168209E+01  0.20589079606E+02  0.30255032423E+01  0.20856638114E+02  0.51100000000E-03 0.  1.
         12    1    3    3    0    0  0.95257576821E+01  0.36129349339E+01 -0.13099379669E+02  0.16594791531E+02  0.00000000000E+00 0. -1.
</event>
<event>
 7    1  0.5479172E-013  0.5052886E+02  0.7816164E-02  0.1300439E+00
        -11   -1    0    0    0    0  0.00000000000E+00  0.00000000000E+00  0.45593999997E+02  0.45594000000E+02  0.51100000000E-03 0.  1.
         11   -1    0    0    0    0 -0.00000000000E+00 -0.00000000000E+00 -0.45593999997E+02  0.45594000000E+02  0.51100000000E-03 0. -1.
    9900012    2    1    2    0    0  0.20294416559E+02 -0.45169635259E+00  0.35229229727E+02  0.50528855885E+02  0.29999987947E+02 0.  0.
         12    1    1    2    0    0 -0.20294416559E+02  0.45169635259E+00 -0.35229229727E+02  0.40659144115E+02  0.00000000000E+00 0. -1.
         11    1    3    3    0    0  0.11992250955E+02  0.41303610174E+01  0.11142150627E+02  0.16882579363E+02  0.51100000000E-03 0. -1.
        -11    1    3    3    0    0  0.50686246149E+01  0.85224527581E+01  0.11574709062E+02  0.15241294126E+02  0.51100000000E-03 0.  1.
         12    1    3    3    0    0  0.32335409888E+01 -0.13104510128E+02  0.12512370038E+02  0.18404982396E+02  0.00000000000E+00 0. -1.
</event>
<event>
 7    1  0.5479172E-013  0.5052882E+02  0.7816164E-02  0.1300439E+00
        -11   -1    0    0    0    0  0.00000000000E+00  0.00000000000E+00  0.45593999997E+02  0.45594000000E+02  0.51100000000E-03 0.  1.
         11   -1    0    0    0    0 -0.00000000000E+00 -0.00000000000E+00 -0.45593999997E+02  0.45594000000E+02  0.51100000000E-03 0. -1.
    9900012    2    1    2    0    0 -0.21257009349E+02 -0.21988187899E+02  0.26792312005E+02  0.50528821010E+02  0.29999881943E+02 0.  0.
         12    1    1    2    0    0  0.21257009349E+02  0.21988187899E+02 -0.26792312005E+02  0.40659178990E+02  0.00000000000E+00 0. -1.
         11    1    3    3    0    0 -0.62410398759E+00 -0.40027878207E+01 -0.15379170149E+01  0.43332441808E+01  0.51100000000E-03 0. -1.
        -11    1    3    3    0    0 -0.84737552866E+01 -0.20364783797E+02  0.10362611024E+02  0.24370323249E+02  0.51100000000E-03 0.  1.
         12    1    3    3    0    0 -0.12159150075E+02  0.23793837188E+01  0.17967617995E+02  0.21825253581E+02  0.00000000000E+00 0. -1.
</event>
<event>
 7    1  0.5479172E-013  0.5052886E+02  0.7816164E-02  0.1300439E+00
        -11   -1    0    0    0    0  0.00000000000E+00  0.00000000000E+00  0.45593999997E+02  0.45594000000E+02  0.51100000000E-03 0.  1.
         11   -1    0    0    0    0 -0.00000000000E+00 -0.00000000000E+00 -0.45593999997E+02  0.45594000000E+02  0.51100000000E-03 0. -1.
    9900012    2    1    2    0    0  0.24265881544E+02  0.18415532666E+02  0.26929551176E+02  0.50528861089E+02  0.30000003766E+02 0.  0.
         12    1    1    2    0    0 -0.24265881544E+02 -0.18415532666E+02 -0.26929551176E+02  0.40659138911E+02  0.00000000000E+00 0. -1.
         11    1    3    3    0    0  0.16208479586E+02  0.69115655230E+01  0.63305900032E+01  0.18723272111E+02  0.51100000000E-03 0. -1.
        -11    1    3    3    0    0  0.12808470749E+02  0.28899694722E+01  0.66001848025E+01  0.14695961560E+02  0.51100000000E-03 0.  1.
         12    1    3    3    0    0 -0.47510687915E+01  0.86139976703E+01  0.13998776370E+02  0.17109627418E+02  0.00000000000E+00 0. -1.
</event>
<event>
 7    1  0.5479172E-013  0.5052887E+02  0.7816164E-02  0.1300439E+00
        -11   -1    0    0    0    0  0.00000000000E+00  0.00000000000E+00  0.45593999997E+02  0.45594000000E+02  0.51100000000E-03 0. -1.
         11   -1    0    0    0    0 -0.00000000000E+00 -0.00000000000E+00 -0.45593999997E+02  0.45594000000E+02  0.51100000000E-03 0.  1.
    9900012    2    1    2    0    0  0.12458878878E+02  0.60406392580E+01 -0.38228939631E+02  0.50528870510E+02  0.30000032402E+02 0.  0.
         12    1    1    2    0    0 -0.12458878878E+02 -0.60406392580E+01  0.38228939631E+02  0.40659129490E+02  0.00000000000E+00 0. -1.
         11    1    3    3    0    0  0.67440639227E+01 -0.62557283896E+01 -0.78136933141E+01  0.12069396809E+02  0.51100000000E-03 0. -1.
        -11    1    3    3    0    0  0.97292489166E+01 -0.80167823382E+00 -0.14199212707E+02  0.17231326537E+02  0.51100000000E-03 0.  1.
         12    1    3    3    0    0 -0.40144339614E+01  0.13098045881E+02 -0.16216033611E+02  0.21228147164E+02  0.00000000000E+00 0. -1.
</event>
<event>
 7    1  0.5479172E-013  0.5052886E+02  0.7816164E-02  0.1300439E+00
        -11   -1    0    0    0    0  0.00000000000E+00  0.00000000000E+00  0.45593999997E+02  0.45594000000E+02  0.51100000000E-03 0.  1.
         11   -1    0    0    0    0 -0.00000000000E+00 -0.00000000000E+00 -0.45593999997E+02  0.45594000000E+02  0.51100000000E-03 0. -1.
    9900012    2    1    2    0    0 -0.17723173026E+02  0.33166540708E+02  0.15460762644E+02  0.50528862452E+02  0.30000007908E+02 0.  0.
         12    1    1    2    0    0  0.17723173026E+02 -0.33166540708E+02 -0.15460762644E+02  0.40659137548E+02  0.00000000000E+00 0. -1.
         11    1    3    3    0    0 -0.13395279000E+02  0.20250791425E+02  0.35578526287E+01  0.24539485904E+02  0.51100000000E-03 0. -1.
        -11    1    3    3    0    0 -0.53489233707E+01  0.13583646426E+02  0.58989774675E+00  0.14610763534E+02  0.51100000000E-03 0.  1.
        -12    1    3    3    0    0  0.10210293453E+01 -0.66789714277E+00  0.11313012269E+02  0.11378613014E+02  0.00000000000E+00 0.  1.
</event>
<event>
 7    1  0.5479172E-013  0.5052886E+02  0.7816164E-02  0.1300439E+00
        -11   -1    0    0    0    0  0.00000000000E+00  0.00000000000E+00  0.45593999997E+02  0.45594000000E+02  0.51100000000E-03 0. -1.
         11   -1    0    0    0    0 -0.00000000000E+00 -0.00000000000E+00 -0.45593999997E+02  0.45594000000E+02  0.51100000000E-03 0.  1.
    9900012    2    1    2    0    0 -0.29975190357E+02 -0.44173447980E+01 -0.27113473618E+02  0.50528862975E+02  0.30000009499E+02 0.  0.
         12    1    1    2    0    0  0.29975190357E+02  0.44173447980E+01  0.27113473618E+02  0.40659137025E+02  0.00000000000E+00 0. -1.
         11    1    3    3    0    0 -0.14439728957E+02 -0.16300184409E+01 -0.26553749081E+02  0.30269858325E+02  0.51100000000E-03 0. -1.
        -11    1    3    3    0    0 -0.20535494233E+01 -0.14279427615E+01 -0.53347536533E+01  0.58920015756E+01  0.51100000000E-03 0.  1.
         12    1    3    3    0    0 -0.13481911976E+02 -0.13593835957E+01  0.47750291164E+01  0.14367003075E+02  0.00000000000E+00 0. -1.
</event>
<event>
 7    1  0.5479172E-013  0.5052894E+02  0.7816164E-02  0.1300439E+00
        -11   -1    0    0    0    0  0.00000000000E+00  0.00000000000E+00  0.45593999997E+02  0.45594000000E+02  0.51100000000E-03 0.  1.
         11   -1    0    0    0    0 -0.00000000000E+00 -0.00000000000E+00 -0.45593999997E+02  0.45594000000E+02  0.51100000000E-03 0. -1.
    9900012    2    1    2    0    0  0.22663485879E+02  0.45862644558E+01  0.33443858566E+02  0.50528940866E+02  0.30000246257E+02 0.  0.
         12    1    1    2    0    0 -0.22663485879E+02 -0.45862644558E+01 -0.33443858566E+02  0.40659059134E+02  0.00000000000E+00 0. -1.
         11    1    3    3    0    0 -0.22188060011E+00  0.10174653168E+02  0.17107861500E+02  0.19906072527E+02  0.51100000000E-03 0. -1.
        -11    1    3    3    0    0  0.10241663152E+01  0.72065273145E+00  0.50903968615E+01  0.52421748796E+01  0.51100000000E-03 0.  1.
        -12    1    3    3    0    0  0.21861200164E+02 -0.63090414437E+01  0.11245600205E+02  0.25380693460E+02  0.00000000000E+00 0.  1.
</event>
<event>
 7    1  0.5479172E-013  0.5052886E+02  0.7816164E-02  0.1300439E+00
        -11   -1    0    0    0    0  0.00000000000E+00  0.00000000000E+00  0.45593999997E+02  0.45594000000E+02  0.51100000000E-03 0.  1.
         11   -1    0    0    0    0 -0.00000000000E+00 -0.00000000000E+00 -0.45593999997E+02  0.45594000000E+02  0.51100000000E-03 0. -1.
    9900012    2    1    2    0    0  0.33246689907E+02 -0.12145407855E+02  0.20007805068E+02  0.50528860985E+02  0.30000003451E+02 0.  0.
         12    1    1    2    0    0 -0.33246689907E+02  0.12145407855E+02 -0.20007805068E+02  0.40659139015E+02  0.00000000000E+00 0. -1.
         11    1    3    3    0    0 -0.21957732825E+01  0.56831691500E+00  0.88550326853E+00  0.24348553805E+01  0.51100000000E-03 0. -1.
        -11    1    3    3    0    0  0.73928321459E+01  0.33663996056E+01  0.12784235159E+02  0.15146725135E+02  0.51100000000E-03 0.  1.
         12    1    3    3    0    0  0.28049631044E+02 -0.16080124376E+02  0.63380666401E+01  0.32947280470E+02  0.00000000000E+00 0. -1.
</event>
<event>
 7    1  0.5479172E-013  0.5052888E+02  0.7816164E-02  0.1300439E+00
        -11   -1    0    0    0    0  0.00000000000E+00  0.00000000000E+00  0.45593999997E+02  0.45594000000E+02  0.51100000000E-03 0.  1.
         11   -1    0    0    0    0 -0.00000000000E+00 -0.00000000000E+00 -0.45593999997E+02  0.45594000000E+02  0.51100000000E-03 0. -1.
    9900012    2    1    2    0    0  0.34483953874E+02 -0.19508134935E+01  0.21452634851E+02  0.50528876914E+02  0.30000051869E+02 0.  0.
         12    1    1    2    0    0 -0.34483953874E+02  0.19508134935E+01 -0.21452634851E+02  0.40659123086E+02  0.00000000000E+00 0. -1.
         11    1    3    3    0    0  0.51657593291E+01 -0.28171538266E+01 -0.42304463586E+01  0.72469374071E+01  0.51100000000E-03 0. -1.
        -11    1    3    3    0    0  0.12882882508E+02 -0.12817897179E+01  0.27989405273E+00  0.12949516884E+02  0.51100000000E-03 0.  1.
        -12    1    3    3    0    0  0.16435312037E+02  0.21481300510E+01  0.25403187157E+02  0.30332422623E+02  0.00000000000E+00 0.  1.
</event>
<event>
 7    1  0.5479172E-013  0.5052887E+02  0.7816164E-02  0.1300439E+00
        -11   -1    0    0    0    0  0.00000000000E+00  0.00000000000E+00  0.45593999997E+02  0.45594000000E+02  0.51100000000E-03 0.  1.
         11   -1    0    0    0    0 -0.00000000000E+00 -0.00000000000E+00 -0.45593999997E+02  0.45594000000E+02  0.51100000000E-03 0. -1.
    9900012    2    1    2    0    0 -0.24142216133E+02  0.16737769841E+02  0.28109886328E+02  0.50528865130E+02  0.30000016048E+02 0.  0.
         12    1    1    2    0    0  0.24142216133E+02 -0.16737769841E+02 -0.28109886328E+02  0.40659134870E+02  0.00000000000E+00 0. -1.
         11    1    3    3    0    0 -0.32008167871E+00 -0.26044365905E+01 -0.27712168311E+01  0.38164361937E+01  0.51100000000E-03 0. -1.
        -11    1    3    3    0    0  0.18530246369E+01  0.74956834784E+00  0.62675028412E+01  0.65785367020E+01  0.51100000000E-03 0.  1.
        -12    1    3    3    0    0 -0.25675159091E+02  0.18592638083E+02  0.24613600318E+02  0.40133892234E+02  0.00000000000E+00 0.  1.
</event>
<event>
 7    1  0.5479172E-013  0.5052887E+02  0.7816164E-02  0.1300439E+00
        -11   -1    0    0    0    0  0.00000000000E+00  0.00000000000E+00  0.45593999997E+02  0.45594000000E+02  0.51100000000E-03 0.  1.
         11   -1    0    0    0    0 -0.00000000000E+00 -0.00000000000E+00 -0.45593999997E+02  0.45594000000E+02  0.51100000000E-03 0. -1.
    9900012    2    1    2    0    0 -0.74151066661E+01  0.25768477143E+02  0.30564138983E+02  0.50528870485E+02  0.30000032328E+02 0.  0.
         12    1    1    2    0    0  0.74151066661E+01 -0.25768477143E+02 -0.30564138983E+02  0.40659129515E+02  0.00000000000E+00 0. -1.
         11    1    3    3    0    0 -0.75400183420E+01  0.13777433010E+02  0.14020540821E+02  0.21053386951E+02  0.51100000000E-03 0. -1.
        -11    1    3    3    0    0 -0.90831109977E+01  0.11138397612E+02  0.13557628069E+02  0.19757937288E+02  0.51100000000E-03 0.  1.
         12    1    3    3    0    0  0.92080226736E+01  0.85264652092E+00  0.29859700919E+01  0.97175462457E+01  0.00000000000E+00 0. -1.
</event>
<event>
 7    1  0.5479172E-013  0.5052884E+02  0.7816164E-02  0.1300439E+00
        -11   -1    0    0    0    0  0.00000000000E+00  0.00000000000E+00  0.45593999997E+02  0.45594000000E+02  0.51100000000E-03 0.  1.
         11   -1    0    0    0    0 -0.00000000000E+00 -0.00000000000E+00 -0.45593999997E+02  0.45594000000E+02  0.51100000000E-03 0. -1.
    9900012    2    1    2    0    0 -0.40119122805E+02 -0.62223074249E+01  0.22149266884E+01  0.50528843288E+02  0.29999949657E+02 0.  0.
         12    1    1    2    0    0  0.40119122805E+02  0.62223074249E+01 -0.22149266884E+01  0.40659156712E+02  0.00000000000E+00 0. -1.
         11    1    3    3    0    0 -0.13792170635E+02  0.17529722917E+01  0.82155001722E+01  0.16149034833E+02  0.51100000000E-03 0. -1.
        -11    1    3    3    0    0 -0.14888259862E+02 -0.81863964285E+01  0.57909851628E+01  0.17950289068E+02  0.51100000000E-03 0.  1.
         12    1    3    3    0    0 -0.11438692307E+02  0.21111671185E+00 -0.11791558647E+02  0.16429519387E+02  0.00000000000E+00 0. -1.
</event>
<event>
 7    1  0.5479172E-013  0.5052887E+02  0.7816164E-02  0.1300439E+00
        -11   -1    0    0    0    0  0.00000000000E+00  0.00000000000E+00  0.45593999997E+02  0.45594000000E+02  0.51100000000E-03 0.  1.
         11   -1    0    0    0    0 -0.00000000000E+00 -0.00000000000E+00 -0.45593999997E+02  0.45594000000E+02  0.51100000000E-03 0. -1.
    9900012    2    1    2    0    0  0.85232345146E+01 -0.38084937823E+02  0.11404249176E+02  0.50528869232E+02  0.30000028517E+02 0.  0.
         12    1    1    2    0    0 -0.85232345146E+01  0.38084937823E+02 -0.11404249176E+02  0.40659130768E+02  0.00000000000E+00 0. -1.
         11    1    3    3    0    0 -0.97433826629E+00 -0.98725643285E+00  0.10572228154E+02  0.10662833522E+02  0.51100000000E-03 0. -1.
        -11    1    3    3    0    0 -0.86567707680E+00 -0.17673263951E+02 -0.13285539783E+01  0.17744258548E+02  0.51100000000E-03 0.  1.
        -12    1    3    3    0    0  0.10363249858E+02 -0.19424417440E+02  0.21605750004E+01  0.22121777162E+02  0.00000000000E+00 0.  1.
</event>
<event>
 7    1  0.5479172E-013  0.5052897E+02  0.7816164E-02  0.1300438E+00
        -11   -1    0    0    0    0  0.00000000000E+00  0.00000000000E+00  0.45593999997E+02  0.45594000000E+02  0.51100000000E-03 0. -1.
         11   -1    0    0    0    0 -0.00000000000E+00 -0.00000000000E+00 -0.45593999997E+02  0.45594000000E+02  0.51100000000E-03 0.  1.
    9900012    2    1    2    0    0  0.78193870941E+01 -0.61930819884E+01 -0.39416486592E+02  0.50528972783E+02  0.30000343268E+02 0.  0.
         12    1    1    2    0    0 -0.78193870941E+01  0.61930819884E+01  0.39416486592E+02  0.40659027217E+02  0.00000000000E+00 0. -1.
         11    1    3    3    0    0 -0.56376781832E-01  0.54792109961E+00 -0.17024927282E+02  0.17033835302E+02  0.51100000000E-03 0. -1.
        -11    1    3    3    0    0  0.13869391272E+02 -0.31519863487E+01 -0.22370428478E+02  0.26509075856E+02  0.51100000000E-03 0.  1.
         12    1    3    3    0    0 -0.59936273956E+01 -0.35890167393E+01 -0.21130831478E-01  0.69860616247E+01  0.00000000000E+00 0. -1.
</event>
<event>
 7    1  0.5479172E-013  0.5052886E+02  0.7816164E-02  0.1300439E+00
        -11   -1    0    0    0    0  0.00000000000E+00  0.00000000000E+00  0.45593999997E+02  0.45594000000E+02  0.51100000000E-03 0.  1.
         11   -1    0    0    0    0 -0.00000000000E+00 -0.00000000000E+00 -0.45593999997E+02  0.45594000000E+02  0.51100000000E-03 0. -1.
    9900012    2    1    2    0    0  0.29258131213E+02  0.20243193624E+02  0.19680976964E+02  0.50528856079E+02  0.29999988537E+02 0.  0.
         12    1    1    2    0    0 -0.29258131213E+02 -0.20243193624E+02 -0.19680976964E+02  0.40659143921E+02  0.00000000000E+00 0. -1.
         11    1    3    3    0    0  0.78782656120E+01 -0.26892399239E+00  0.10397838471E+02  0.13048158273E+02  0.51100000000E-03 0.  1.
        -11    1    3    3    0    0  0.75692851828E+01  0.10431120992E+02  0.14695190083E+02  0.19546124301E+02  0.51100000000E-03 0. -1.
         12    1    3    3    0    0  0.13810580418E+02  0.10080996624E+02 -0.54120515902E+01  0.17934573506E+02  0.00000000000E+00 0. -1.
</event>
<event>
 7    1  0.5479172E-013  0.5052886E+02  0.7816164E-02  0.1300439E+00
        -11   -1    0    0    0    0  0.00000000000E+00  0.00000000000E+00  0.45593999997E+02  0.45594000000E+02  0.51100000000E-03 0. -1.
         11   -1    0    0    0    0 -0.00000000000E+00 -0.00000000000E+00 -0.45593999997E+02  0.45594000000E+02  0.51100000000E-03 0.  1.
    9900012    2    1    2    0    0 -0.10120585704E+02  0.41870018957E+01 -0.39156207029E+02  0.50528858485E+02  0.29999995852E+02 0.  0.
         12    1    1    2    0    0  0.10120585704E+02 -0.41870018957E+01  0.39156207029E+02  0.40659141515E+02  0.00000000000E+00 0. -1.
         11    1    3    3    0    0 -0.24558385812E+01  0.12639517480E+02 -0.20884390071E+02  0.24534593825E+02  0.51100000000E-03 0. -1.
        -11    1    3    3    0    0 -0.58641626716E+01  0.28975036756E+01 -0.95140717400E+01  0.11545626563E+02  0.51100000000E-03 0.  1.
         12    1    3    3    0    0 -0.18005844508E+01 -0.11350019260E+02 -0.87577452175E+01  0.14448638097E+02  0.00000000000E+00 0. -1.
</event>
<event>
 7    1  0.5479172E-013  0.5052886E+02  0.7816164E-02  0.1300439E+00
        -11   -1    0    0    0    0  0.00000000000E+00  0.00000000000E+00  0.45593999997E+02  0.45594000000E+02  0.51100000000E-03 0. -1.
         11   -1    0    0    0    0 -0.00000000000E+00 -0.00000000000E+00 -0.45593999997E+02  0.45594000000E+02  0.51100000000E-03 0.  1.
    9900012    2    1    2    0    0 -0.39045039032E+02  0.10957065683E+02 -0.29313991092E+01  0.50528862501E+02  0.30000008060E+02 0.  0.
         12    1    1    2    0    0  0.39045039032E+02 -0.10957065683E+02  0.29313991092E+01  0.40659137499E+02  0.00000000000E+00 0. -1.
         11    1    3    3    0    0 -0.13879972597E+02 -0.30689017158E+00 -0.85021934988E+01  0.16279899122E+02  0.51100000000E-03 0. -1.
        -11    1    3    3    0    0 -0.89219945482E+01  0.56544177299E+01 -0.72476705010E+01  0.12810275350E+02  0.51100000000E-03 0.  1.
         12    1    3    3    0    0 -0.16243071887E+02  0.56095381252E+01  0.12818464891E+02  0.21438688030E+02  0.00000000000E+00 0. -1.
</event>
<event>
 7    1  0.5479172E-013  0.5052886E+02  0.7816164E-02  0.1300439E+00
        -11   -1    0    0    0    0  0.00000000000E+00  0.00000000000E+00  0.45593999997E+02  0.45594000000E+02  0.51100000000E-03 0.  1.
         11   -1    0    0    0    0 -0.00000000000E+00 -0.00000000000E+00 -0.45593999997E+02  0.45594000000E+02  0.51100000000E-03 0. -1.
    9900012    2    1    2    0    0  0.31181460140E+02 -0.43998745049E+01  0.25720101087E+02  0.50528856477E+02  0.29999989747E+02 0.  0.
         12    1    1    2    0    0 -0.31181460140E+02  0.43998745049E+01 -0.25720101087E+02  0.40659143523E+02  0.00000000000E+00 0. -1.
         11    1    3    3    0    0 -0.79752451393E+00 -0.45720736723E+00  0.61802190968E+00  0.11077162403E+01  0.51100000000E-03 0. -1.
        -11    1    3    3    0    0  0.27431487843E+02 -0.14431447358E+02  0.16499973153E+02  0.35114132660E+02  0.51100000000E-03 0.  1.
         12    1    3    3    0    0  0.45474968107E+01  0.10488780220E+02  0.86021060237E+01  0.14307007576E+02  0.00000000000E+00 0. -1.
</event>
<event>
 7    1  0.5479172E-013  0.5052886E+02  0.7816164E-02  0.1300439E+00
        -11   -1    0    0    0    0  0.00000000000E+00  0.00000000000E+00  0.45593999997E+02  0.45594000000E+02  0.51100000000E-03 0. -1.
         11   -1    0    0    0    0 -0.00000000000E+00 -0.00000000000E+00 -0.45593999997E+02  0.45594000000E+02  0.51100000000E-03 0.  1.
    9900012    2    1    2    0    0  0.38534789223E+02 -0.16533828745E+01 -0.12864744231E+02  0.50528864501E+02  0.30000014136E+02 0.  0.
         12    1    1    2    0    0 -0.38534789223E+02  0.16533828745E+01  0.12864744231E+02  0.40659135499E+02  0.00000000000E+00 0. -1.
         11    1    3    3    0    0 -0.20010400371E+01  0.43767319712E+01 -0.13225788533E+01  0.49909076391E+01  0.51100000000E-03 0. -1.
        -11    1    3    3    0    0  0.92022557060E+01 -0.72000677429E+01  0.10870071864E+01  0.11734737767E+02  0.51100000000E-03 0.  1.
        -12    1    3    3    0    0  0.31333573555E+02  0.11699528973E+01 -0.12629172564E+02  0.33803219094E+02  0.00000000000E+00 0.  1.
</event>
<event>
 7    1  0.5479172E-013  0.5052886E+02  0.7816164E-02  0.1300439E+00
        -11   -1    0    0    0    0  0.00000000000E+00  0.00000000000E+00  0.45593999997E+02  0.45594000000E+02  0.51100000000E-03 0. -1.
         11   -1    0    0    0    0 -0.00000000000E+00 -0.00000000000E+00 -0.45593999997E+02  0.45594000000E+02  0.51100000000E-03 0.  1.
    9900012    2    1    2    0    0  0.28465437732E+02  0.17572957825E+02 -0.23110079886E+02  0.50528858540E+02  0.29999996017E+02 0.  0.
         12    1    1    2    0    0 -0.28465437732E+02 -0.17572957825E+02  0.23110079886E+02  0.40659141460E+02  0.00000000000E+00 0. -1.
         11    1    3    3    0    0  0.45240577762E+01  0.73964084971E+01 -0.56532881947E+01  0.10350537430E+02  0.51100000000E-03 0. -1.
        -11    1    3    3    0    0  0.24427375944E+02  0.13607756996E+02 -0.65287636201E+01  0.28713977444E+02  0.51100000000E-03 0.  1.
         12    1    3    3    0    0 -0.48599598825E+00 -0.34312076686E+01 -0.10928028071E+02  0.11464343665E+02  0.00000000000E+00 0. -1.
</event>
<event>
 7    1  0.5479172E-013  0.5052886E+02  0.7816164E-02  0.1300439E+00
        -11   -1    0    0    0    0  0.00000000000E+00  0.00000000000E+00  0.45593999997E+02  0.45594000000E+02  0.51100000000E-03 0.  1.
         11   -1    0    0    0    0 -0.00000000000E+00 -0.00000000000E+00 -0.45593999997E+02  0.45594000000E+02  0.51100000000E-03 0. -1.
    9900012    2    1    2    0    0 -0.26895097702E+02  0.51825707852E+01  0.30049304428E+02  0.50528855679E+02  0.29999987321E+02 0.  0.
         12    1    1    2    0    0  0.26895097702E+02 -0.51825707852E+01 -0.30049304428E+02  0.40659144321E+02  0.00000000000E+00 0. -1.
         11    1    3    3    0    0 -0.92318199749E+01  0.13383706949E+01 -0.45123947720E+00  0.93392373079E+01  0.51100000000E-03 0. -1.
        -11    1    3    3    0    0 -0.11422081071E+02 -0.82348962116E+01  0.15902070676E+02  0.21240369668E+02  0.51100000000E-03 0.  1.
        -12    1    3    3    0    0 -0.62411966565E+01  0.12079096302E+02  0.14598473229E+02  0.19949248703E+02  0.00000000000E+00 0.  1.
</event>
<event>
 7    1  0.5479172E-013  0.5052886E+02  0.7816164E-02  0.1300439E+00
        -11   -1    0    0    0    0  0.00000000000E+00  0.00000000000E+00  0.45593999997E+02  0.45594000000E+02  0.51100000000E-03 0.  1.
         11   -1    0    0    0    0 -0.00000000000E+00 -0.00000000000E+00 -0.45593999997E+02  0.45594000000E+02  0.51100000000E-03 0. -1.
    9900012    2    1    2    0    0 -0.92965203933E+01 -0.32726878903E+02  0.22264144214E+02  0.50528855743E+02  0.29999987516E+02 0.  0.
         12    1    1    2    0    0  0.92965203933E+01  0.32726878903E+02 -0.22264144214E+02  0.40659144257E+02  0.00000000000E+00 0. -1.
         11    1    3    3    0    0  0.37964886297E+01  0.14431747796E+00  0.50754188418E+01  0.63398761921E+01  0.51100000000E-03 0. -1.
        -11    1    3    3    0    0 -0.93395311575E+01 -0.22398856232E+01  0.61941655358E+01  0.11428543949E+02  0.51100000000E-03 0.  1.
         12    1    3    3    0    0 -0.37534778655E+01 -0.30631310758E+02  0.10994559836E+02  0.32760435602E+02  0.00000000000E+00 0. -1.
</event>
<event>
 7    1  0.5479172E-013  0.5052886E+02  0.7816164E-02  0.1300439E+00
        -11   -1    0    0    0    0  0.00000000000E+00  0.00000000000E+00  0.45593999997E+02  0.45594000000E+02  0.51100000000E-03 0.  1.
         11   -1    0    0    0    0 -0.00000000000E+00 -0.00000000000E+00 -0.45593999997E+02  0.45594000000E+02  0.51100000000E-03 0. -1.
    9900012    2    1    2    0    0  0.15634621831E+02  0.55405519585E+01  0.37121781725E+02  0.50528858418E+02  0.29999995646E+02 0.  0.
         12    1    1    2    0    0 -0.15634621831E+02 -0.55405519585E+01 -0.37121781725E+02  0.40659141582E+02  0.00000000000E+00 0. -1.
         11    1    3    3    0    0 -0.18446400143E+01 -0.14605545322E+01 -0.20875218529E+01  0.31454195382E+01  0.51100000000E-03 0. -1.
        -11    1    3    3    0    0  0.81102706034E+01  0.12771901619E+02  0.26979548639E+02  0.30932086985E+02  0.51100000000E-03 0.  1.
        -12    1    3    3    0    0  0.93689912418E+01 -0.57707951278E+01  0.12229754938E+02  0.16451351894E+02  0.00000000000E+00 0.  1.
</event>
<event>
 7    1  0.5479172E-013  0.5052887E+02  0.7816164E-02  0.1300439E+00
        -11   -1    0    0    0    0  0.00000000000E+00  0.00000000000E+00  0.45593999997E+02  0.45594000000E+02  0.51100000000E-03 0.  1.
         11   -1    0    0    0    0 -0.00000000000E+00 -0.00000000000E+00 -0.45593999997E+02  0.45594000000E+02  0.51100000000E-03 0. -1.
    9900012    2    1    2    0    0 -0.20610127795E+02  0.30495257600E+02  0.17275022478E+02  0.50528874266E+02  0.30000043820E+02 0.  0.
         12    1    1    2    0    0  0.20610127795E+02 -0.30495257600E+02 -0.17275022478E+02  0.40659125734E+02  0.00000000000E+00 0. -1.
         11    1    3    3    0    0 -0.14002788427E+02  0.28641358020E+02  0.70834186339E+01  0.32658540885E+02  0.51100000000E-03 0. -1.
        -11    1    3    3    0    0  0.12312350166E+00  0.64715206850E+01  0.38216955906E+01  0.75167211483E+01  0.51100000000E-03 0.  1.
        -12    1    3    3    0    0 -0.67304628699E+01 -0.46176211047E+01  0.63699082533E+01  0.10353612233E+02  0.00000000000E+00 0.  1.
</event>
<event>
 7    1  0.5479172E-013  0.5052885E+02  0.7816164E-02  0.1300439E+00
        -11   -1    0    0    0    0  0.00000000000E+00  0.00000000000E+00  0.45593999997E+02  0.45594000000E+02  0.51100000000E-03 0.  1.
         11   -1    0    0    0    0 -0.00000000000E+00 -0.00000000000E+00 -0.45593999997E+02  0.45594000000E+02  0.51100000000E-03 0. -1.
    9900012    2    1    2    0    0 -0.26056638613E+02 -0.27438644325E+02  0.14877461958E+02  0.50528849830E+02  0.29999969545E+02 0.  0.
         12    1    1    2    0    0  0.26056638613E+02  0.27438644325E+02 -0.14877461958E+02  0.40659150170E+02  0.00000000000E+00 0. -1.
         11    1    3    3    0    0 -0.38235781500E+01 -0.90213717368E+01  0.11004140239E+02  0.14734177973E+02  0.51100000000E-03 0. -1.
        -11    1    3    3    0    0 -0.16232343135E+01 -0.21770252612E+01  0.87008716315E+01  0.91147954466E+01  0.51100000000E-03 0.  1.
         12    1    3    3    0    0 -0.20609826149E+02 -0.16240247327E+02 -0.48275499120E+01  0.26679876411E+02  0.00000000000E+00 0. -1.
</event>
<event>
 7    1  0.5479172E-013  0.5052880E+02  0.7816164E-02  0.1300439E+00
        -11   -1    0    0    0    0  0.00000000000E+00  0.00000000000E+00  0.45593999997E+02  0.45594000000E+02  0.51100000000E-03 0. -1.
         11   -1    0    0    0    0 -0.00000000000E+00 -0.00000000000E+00 -0.45593999997E+02  0.45594000000E+02  0.51100000000E-03 0.  1.
    9900012    2    1    2    0    0  0.10283566194E+02  0.38925041679E+02 -0.56797614319E+01  0.50528803091E+02  0.29999827475E+02 0.  0.
         12    1    1    2    0    0 -0.10283566194E+02 -0.38925041679E+02  0.56797614319E+01  0.40659196909E+02  0.00000000000E+00 0. -1.
         11    1    3    3    0    0 -0.41656756906E+01  0.20604755987E+01 -0.35579935019E+01  0.58530104795E+01  0.51100000000E-03 0. -1.
        -11    1    3    3    0    0  0.13018566504E+02  0.32666341813E+02 -0.91765943927E+01  0.36342576218E+02  0.51100000000E-03 0.  1.
         12    1    3    3    0    0  0.14306753809E+01  0.41982242669E+01  0.70548264627E+01  0.83332163934E+01  0.00000000000E+00 0. -1.
</event>
<event>
 7    1  0.5479172E-013  0.5052877E+02  0.7816164E-02  0.1300439E+00
        -11   -1    0    0    0    0  0.00000000000E+00  0.00000000000E+00  0.45593999997E+02  0.45594000000E+02  0.51100000000E-03 0.  1.
         11   -1    0    0    0    0 -0.00000000000E+00 -0.00000000000E+00 -0.45593999997E+02  0.45594000000E+02  0.51100000000E-03 0. -1.
    9900012    2    1    2    0    0  0.38576860882E+02 -0.52335057566E+01  0.11730683591E+02  0.50528773304E+02  0.29999736934E+02 0.  0.
         12    1    1    2    0    0 -0.38576860882E+02  0.52335057566E+01 -0.11730683591E+02  0.40659226696E+02  0.00000000000E+00 0. -1.
         11    1    3    3    0    0  0.16886849044E+02  0.22018400917E+01  0.17228504292E+02  0.24224680201E+02  0.51100000000E-03 0. -1.
        -11    1    3    3    0    0  0.79842502189E+01 -0.35958476299E+01  0.35384921186E+01  0.94445380232E+01  0.51100000000E-03 0.  1.
         12    1    3    3    0    0  0.13705761619E+02 -0.38394982183E+01 -0.90363128198E+01  0.16859555080E+02  0.00000000000E+00 0. -1.
</event>
<event>
 7    1  0.5479172E-013  0.5052887E+02  0.7816164E-02  0.1300439E+00
        -11   -1    0    0    0    0  0.00000000000E+00  0.00000000000E+00  0.45593999997E+02  0.45594000000E+02  0.51100000000E-03 0. -1.
         11   -1    0    0    0    0 -0.00000000000E+00 -0.00000000000E+00 -0.45593999997E+02  0.45594000000E+02  0.51100000000E-03 0.  1.
    9900012    2    1    2    0    0  0.13010279413E+02  0.26733824048E+02 -0.27734454203E+02  0.50528872260E+02  0.30000037720E+02 0.  0.
         12    1    1    2    0    0 -0.13010279413E+02 -0.26733824048E+02  0.27734454203E+02  0.40659127740E+02  0.00000000000E+00 0. -1.
         11    1    3    3    0    0  0.87804617520E+01  0.73815656679E+01 -0.74090315117E+01  0.13655686306E+02  0.51100000000E-03 0. -1.
        -11    1    3    3    0    0 -0.88458734381E+01  0.22899760686E+01 -0.45382162610E+01  0.10202395521E+02  0.51100000000E-03 0.  1.
         12    1    3    3    0    0  0.13075691099E+02  0.17062282312E+02 -0.15787206431E+02  0.26670790432E+02  0.00000000000E+00 0. -1.
</event>
<event>
 7    1  0.5479172E-013  0.5052886E+02  0.7816164E-02  0.1300439E+00
        -11   -1    0    0    0    0  0.00000000000E+00  0.00000000000E+00  0.45593999997E+02  0.45594000000E+02  0.51100000000E-03 0. -1.
         11   -1    0    0    0    0 -0.00000000000E+00 -0.00000000000E+00 -0.45593999997E+02  0.45594000000E+02  0.51100000000E-03 0.  1.
    9900012    2    1    2    0    0 -0.24310294791E+02  0.25465685259E+02 -0.20338978554E+02  0.50528860718E+02  0.30000002638E+02 0.  0.
         12    1    1    2    0    0  0.24310294791E+02 -0.25465685259E+02  0.20338978554E+02  0.40659139282E+02  0.00000000000E+00 0. -1.
         11    1    3    3    0    0 -0.19150099922E+02  0.27318675400E+02 -0.14947775115E+02  0.36557794433E+02  0.51100000000E-03 0. -1.
        -11    1    3    3    0    0 -0.43850381597E+01  0.36498918896E+01 -0.61192944684E+01  0.83663633390E+01  0.51100000000E-03 0.  1.
        -12    1    3    3    0    0 -0.77515670955E+00 -0.55028820308E+01  0.72809102934E+00  0.56047029463E+01  0.00000000000E+00 0.  1.
</event>
<event>
 7    1  0.5479172E-013  0.5052886E+02  0.7816164E-02  0.1300439E+00
        -11   -1    0    0    0    0  0.00000000000E+00  0.00000000000E+00  0.45593999997E+02  0.45594000000E+02  0.51100000000E-03 0.  1.
         11   -1    0    0    0    0 -0.00000000000E+00 -0.00000000000E+00 -0.45593999997E+02  0.45594000000E+02  0.51100000000E-03 0. -1.
    9900012    2    1    2    0    0 -0.17124237648E+02  0.19116431868E+02  0.31535507478E+02  0.50528859401E+02  0.29999998634E+02 0.  0.
         12    1    1    2    0    0  0.17124237648E+02 -0.19116431868E+02 -0.31535507478E+02  0.40659140599E+02  0.00000000000E+00 0. -1.
         11    1    3    3    0    0 -0.26545724169E+01 -0.23697698427E+01  0.19420366743E+01  0.40538957226E+01  0.51100000000E-03 0. -1.
        -11    1    3    3    0    0 -0.23827789189E+01  0.36964464337E+00 -0.41944425566E+01  0.48381423254E+01  0.51100000000E-03 0.  1.
        -12    1    3    3    0    0 -0.12086886312E+02  0.21116557067E+02  0.33787913361E+02  0.41636821353E+02  0.00000000000E+00 0.  1.
</event>
<event>
 7    1  0.5479172E-013  0.5052886E+02  0.7816164E-02  0.1300439E+00
        -11   -1    0    0    0    0  0.00000000000E+00  0.00000000000E+00  0.45593999997E+02  0.45594000000E+02  0.51100000000E-03 0. -1.
         11   -1    0    0    0    0 -0.00000000000E+00 -0.00000000000E+00 -0.45593999997E+02  0.45594000000E+02  0.51100000000E-03 0.  1.
    9900012    2    1    2    0    0  0.31711227918E+02  0.25140867946E+02  0.39370798771E+01  0.50528858160E+02  0.29999994865E+02 0.  0.
         12    1    1    2    0    0 -0.31711227918E+02 -0.25140867946E+02 -0.39370798771E+01  0.40659141840E+02  0.00000000000E+00 0. -1.
         11    1    3    3    0    0  0.17590842872E+02  0.23182094433E+02  0.38205617190E+01  0.29350365370E+02  0.51100000000E-03 0. -1.
        -11    1    3    3    0    0  0.78851245342E+01  0.76728547775E+01  0.42128848839E+01  0.11781183670E+02  0.51100000000E-03 0.  1.
         12    1    3    3    0    0  0.62352605118E+01 -0.57140812646E+01 -0.40963667258E+01  0.93973091202E+01  0.00000000000E+00 0. -1.
</event>
<event>
 7    1  0.5479172E-013  0.5052888E+02  0.7816164E-02  0.1300439E+00
        -11   -1    0    0    0    0  0.00000000000E+00  0.00000000000E+00  0.45593999997E+02  0.45594000000E+02  0.51100000000E-03 0.  1.
         11   -1    0    0    0    0 -0.00000000000E+00 -0.00000000000E+00 -0.45593999997E+02  0.45594000000E+02  0.51100000000E-03 0. -1.
    9900012    2    1    2    0    0  0.28234327614E+02  0.15378971941E+02  0.24889232348E+02  0.50528881458E+02  0.30000065679E+02 0.  0.
         12    1    1    2    0    0 -0.28234327614E+02 -0.15378971941E+02 -0.24889232348E+02  0.40659118542E+02  0.00000000000E+00 0. -1.
         11    1    3    3    0    0  0.23398873803E+02  0.23743456839E+01  0.75169130055E+01  0.24691067090E+02  0.51100000000E-03 0. -1.
        -11    1    3    3    0    0  0.63620433691E+01  0.11838737775E+02  0.67435170158E+01  0.15036832443E+02  0.51100000000E-03 0.  1.
        -12    1    3    3    0    0 -0.15265895580E+01  0.11658884827E+01  0.10628802326E+02  0.10800981924E+02  0.00000000000E+00 0.  1.
</event>
<event>
 7    1  0.5479172E-013  0.5052886E+02  0.7816164E-02  0.1300439E+00
        -11   -1    0    0    0    0  0.00000000000E+00  0.00000000000E+00  0.45593999997E+02  0.45594000000E+02  0.51100000000E-03 0. -1.
         11   -1    0    0    0    0 -0.00000000000E+00 -0.00000000000E+00 -0.45593999997E+02  0.45594000000E+02  0.51100000000E-03 0.  1.
    9900012    2    1    2    0    0  0.26589425674E+02 -0.13582511287E+02 -0.27598608147E+02  0.50528863977E+02  0.30000012544E+02 0.  0.
         12    1    1    2    0    0 -0.26589425674E+02  0.13582511287E+02  0.27598608147E+02  0.40659136023E+02  0.00000000000E+00 0. -1.
         11    1    3    3    0    0  0.12877895702E+01 -0.11590980901E+02 -0.87453366878E+01  0.14577042028E+02  0.51100000000E-03 0. -1.
        -11    1    3    3    0    0  0.42252400339E+01 -0.72350549507E+01 -0.83416473423E+01  0.11822933398E+02  0.51100000000E-03 0.  1.
         12    1    3    3    0    0  0.21076396070E+02  0.52435245650E+01 -0.10511624117E+02  0.24128888551E+02  0.00000000000E+00 0. -1.
</event>
<event>
 7    1  0.5479172E-013  0.5052887E+02  0.7816164E-02  0.1300439E+00
        -11   -1    0    0    0    0  0.00000000000E+00  0.00000000000E+00  0.45593999997E+02  0.45594000000E+02  0.51100000000E-03 0.  1.
         11   -1    0    0    0    0 -0.00000000000E+00 -0.00000000000E+00 -0.45593999997E+02  0.45594000000E+02  0.51100000000E-03 0. -1.
    9900012    2    1    2    0    0  0.71902438635E+01 -0.38520927935E+02  0.10844519264E+02  0.50528867030E+02  0.30000021824E+02 0.  0.
         12    1    1    2    0    0 -0.71902438635E+01  0.38520927935E+02 -0.10844519264E+02  0.40659132970E+02  0.00000000000E+00 0. -1.
         11    1    3    3    0    0 -0.42975077248E+01 -0.51859639312E+01 -0.46852556292E+01  0.82045362521E+01  0.51100000000E-03 0. -1.
        -11    1    3    3    0    0  0.50622142966E+01  0.24138042588E+00  0.93466910086E+00  0.51534342611E+01  0.51100000000E-03 0.  1.
        -12    1    3    3    0    0  0.64255372917E+01 -0.33576344430E+02  0.14595105792E+02  0.37170896517E+02  0.00000000000E+00 0.  1.
</event>
<event>
 7    1  0.5479172E-013  0.5052884E+02  0.7816164E-02  0.1300439E+00
        -11   -1    0    0    0    0  0.00000000000E+00  0.00000000000E+00  0.45593999997E+02  0.45594000000E+02  0.51100000000E-03 0.  1.
         11   -1    0    0    0    0 -0.00000000000E+00 -0.00000000000E+00 -0.45593999997E+02  0.45594000000E+02  0.51100000000E-03 0. -1.
    9900012    2    1    2    0    0 -0.32176591830E+01  0.40482286665E+02  0.19995442062E+01  0.50528843083E+02  0.29999949034E+02 0.  0.
         12    1    1    2    0    0  0.32176591830E+01 -0.40482286665E+02 -0.19995442062E+01  0.40659156917E+02  0.00000000000E+00 0. -1.
         11    1    3    3    0    0  0.52587322875E+01  0.49477291094E+01 -0.31715266625E+01  0.78862456368E+01  0.51100000000E-03 0. -1.
        -11    1    3    3    0    0  0.13587321197E+01  0.16390772873E+02 -0.70479367759E+01  0.17893490476E+02  0.51100000000E-03 0.  1.
        -12    1    3    3    0    0 -0.98351235903E+01  0.19143784682E+02  0.12219007645E+02  0.24749106970E+02  0.00000000000E+00 0.  1.
</event>
<event>
 7    1  0.5479172E-013  0.5052882E+02  0.7816164E-02  0.1300439E+00
        -11   -1    0    0    0    0  0.00000000000E+00  0.00000000000E+00  0.45593999997E+02  0.45594000000E+02  0.51100000000E-03 0. -1.
         11   -1    0    0    0    0 -0.00000000000E+00 -0.00000000000E+00 -0.45593999997E+02  0.45594000000E+02  0.51100000000E-03 0.  1.
    9900012    2    1    2    0    0  0.21635876395E+02 -0.28476717897E+02 -0.19342542269E+02  0.50528824517E+02  0.29999892601E+02 0.  0.
         12    1    1    2    0    0 -0.21635876395E+02  0.28476717897E+02  0.19342542269E+02  0.40659175483E+02  0.00000000000E+00 0. -1.
         11    1    3    3    0    0 -0.46458974270E+01 -0.16043982725E+01 -0.47312495220E+01  0.68222561532E+01  0.51100000000E-03 0. -1.
        -11    1    3    3    0    0 -0.79287217245E-01 -0.88232930960E+01 -0.58231187203E+01  0.10571920328E+02  0.51100000000E-03 0.  1.
         12    1    3    3    0    0  0.26361061039E+02 -0.18049026528E+02 -0.87881740269E+01  0.33134648036E+02  0.00000000000E+00 0. -1.
</event>
<event>
 7    1  0.5479172E-013  0.5052886E+02  0.7816164E-02  0.1300439E+00
        -11   -1    0    0    0    0  0.00000000000E+00  0.00000000000E+00  0.45593999997E+02  0.45594000000E+02  0.51100000000E-03 0.  1.
         11   -1    0    0    0    0 -0.00000000000E+00 -0.00000000000E+00 -0.45593999997E+02  0.45594000000E+02  0.51100000000E-03 0. -1.
    9900012    2    1    2    0    0  0.68969140547E+01 -0.34602864243E+02 -0.20204948695E+02  0.50528860941E+02  0.30000003316E+02 0.  0.
         12    1    1    2    0    0 -0.68969140547E+01  0.34602864243E+02  0.20204948695E+02  0.40659139059E+02  0.00000000000E+00 0. -1.
         11    1    3    3    0    0  0.85728766306E+00  0.36809145651E+01 -0.66162710128E+01  0.76196533089E+01  0.51100000000E-03 0. -1.
        -11    1    3    3    0    0  0.22075551383E+00 -0.42677227007E+01 -0.63403504284E+01  0.76460600222E+01  0.51100000000E-03 0.  1.
        -12    1    3    3    0    0  0.58188708778E+01 -0.34016056107E+02 -0.72483272538E+01  0.35263147610E+02  0.00000000000E+00 0.  1.
</event>
<event>
 7    1  0.5479172E-013  0.5052886E+02  0.7816164E-02  0.1300439E+00
        -11   -1    0    0    0    0  0.00000000000E+00  0.00000000000E+00  0.45593999997E+02  0.45594000000E+02  0.51100000000E-03 0.  1.
         11   -1    0    0    0    0 -0.00000000000E+00 -0.00000000000E+00 -0.45593999997E+02  0.45594000000E+02  0.51100000000E-03 0. -1.
    9900012    2    1    2    0    0  0.34933825256E+02  0.58469189284E+01  0.19965155077E+02  0.50528855577E+02  0.29999987011E+02 0.  0.
         12    1    1    2    0    0 -0.34933825256E+02 -0.58469189284E+01 -0.19965155077E+02  0.40659144423E+02  0.00000000000E+00 0. -1.
         11    1    3    3    0    0  0.68486525194E+01  0.48287986498E+01  0.11544104555E+02  0.14264911074E+02  0.51100000000E-03 0. -1.
        -11    1    3    3    0    0  0.13174531680E+02  0.35593062623E+01  0.14545769957E+02  0.19945334541E+02  0.51100000000E-03 0.  1.
        -12    1    3    3    0    0  0.14910641056E+02 -0.25411859837E+01 -0.61247194345E+01  0.16318609961E+02  0.00000000000E+00 0.  1.
</event>
<event>
 7    1  0.5479172E-013  0.5052886E+02  0.7816164E-02  0.1300439E+00
        -11   -1    0    0    0    0  0.00000000000E+00  0.00000000000E+00  0.45593999997E+02  0.45594000000E+02  0.51100000000E-03 0.  1.
         11   -1    0    0    0    0 -0.00000000000E+00 -0.00000000000E+00 -0.45593999997E+02  0.45594000000E+02  0.51100000000E-03 0. -1.
    9900012    2    1    2    0    0 -0.10118087345E+02 -0.39140418920E+01  0.39185077995E+02  0.50528858925E+02  0.29999997188E+02 0.  0.
         12    1    1    2    0    0  0.10118087345E+02  0.39140418920E+01 -0.39185077995E+02  0.40659141075E+02  0.00000000000E+00 0. -1.
         11    1    3    3    0    0 -0.59526701983E+01  0.64912926616E+00  0.21232635151E+02  0.22060835139E+02  0.51100000000E-03 0. -1.
        -11    1    3    3    0    0 -0.11269762187E+02  0.13051130575E+01  0.45943572959E+01  0.12240056335E+02  0.51100000000E-03 0.  1.
         12    1    3    3    0    0  0.71043450407E+01 -0.58682842156E+01  0.13358085548E+02  0.16227967452E+02  0.00000000000E+00 0. -1.
</event>
<event>
 7    1  0.5479172E-013  0.5052885E+02  0.7816164E-02  0.1300439E+00
        -11   -1    0    0    0    0  0.00000000000E+00  0.00000000000E+00  0.45593999997E+02  0.45594000000E+02  0.51100000000E-03 0.  1.
         11   -1    0    0    0    0 -0.00000000000E+00 -0.00000000000E+00 -0.45593999997E+02  0.45594000000E+02  0.51100000000E-03 0. -1.
    9900012    2    1    2    0    0 -0.13527609409E+02 -0.74654792785E+01  0.37608999380E+02  0.50528850580E+02  0.29999971823E+02 0.  0.
         12    1    1    2    0    0  0.13527609409E+02  0.74654792785E+01 -0.37608999380E+02  0.40659149420E+02  0.00000000000E+00 0. -1.
         11    1    3    3    0    0  0.76802263098E+00  0.62555910245E+01  0.38321340036E+01  0.73761459523E+01  0.51100000000E-03 0. -1.
        -11    1    3    3    0    0 -0.11522393031E+02 -0.26718593042E+01  0.62854514886E+01  0.13394449372E+02  0.51100000000E-03 0.  1.
        -12    1    3    3    0    0 -0.27732390096E+01 -0.11049210999E+02  0.27491413888E+02  0.29758255256E+02  0.00000000000E+00 0.  1.
</event>
<event>
 7    1  0.5479172E-013  0.5052889E+02  0.7816164E-02  0.1300439E+00
        -11   -1    0    0    0    0  0.00000000000E+00  0.00000000000E+00  0.45593999997E+02  0.45594000000E+02  0.51100000000E-03 0.  1.
         11   -1    0    0    0    0 -0.00000000000E+00 -0.00000000000E+00 -0.45593999997E+02  0.45594000000E+02  0.51100000000E-03 0. -1.
    9900012    2    1    2    0    0  0.11206849999E+02  0.16744979482E+02  0.35315373050E+02  0.50528887880E+02  0.30000085199E+02 0.  0.
         12    1    1    2    0    0 -0.11206849999E+02 -0.16744979482E+02 -0.35315373050E+02  0.40659112120E+02  0.00000000000E+00 0. -1.
         11    1    3    3    0    0 -0.37193912102E+01  0.34399774833E+01  0.33672879976E+01  0.60832511686E+01  0.51100000000E-03 0. -1.
        -11    1    3    3    0    0  0.43888660364E+01  0.94672112813E+01 -0.15912112269E+00  0.10436261511E+02  0.51100000000E-03 0.  1.
        -12    1    3    3    0    0  0.10537375172E+02  0.38377907171E+01  0.32107206175E+02  0.34009375200E+02  0.00000000000E+00 0.  1.
</event>
<event>
 7    1  0.5479172E-013  0.5052886E+02  0.7816164E-02  0.1300439E+00
        -11   -1    0    0    0    0  0.00000000000E+00  0.00000000000E+00  0.45593999997E+02  0.45594000000E+02  0.51100000000E-03 0.  1.
         11   -1    0    0    0    0 -0.00000000000E+00 -0.00000000000E+00 -0.45593999997E+02  0.45594000000E+02  0.51100000000E-03 0. -1.
    9900012    2    1    2    0    0  0.13857415972E+02  0.31102937850E+02  0.22220371833E+02  0.50528860256E+02  0.30000001236E+02 0.  0.
         12    1    1    2    0    0 -0.13857415972E+02 -0.31102937850E+02 -0.22220371833E+02  0.40659139744E+02  0.00000000000E+00 0. -1.
         11    1    3    3    0    0  0.36540266257E+01  0.42722816546E+01  0.16909509590E+01  0.58705720781E+01  0.51100000000E-03 0. -1.
        -11    1    3    3    0    0  0.12939821172E+02  0.14305353226E+02 -0.13098939816E+01  0.19333854385E+02  0.51100000000E-03 0.  1.
        -12    1    3    3    0    0 -0.27364318253E+01  0.12525302969E+02  0.21839314855E+02  0.25324433793E+02  0.00000000000E+00 0.  1.
</event>
<event>
 7    1  0.5479172E-013  0.5052885E+02  0.7816164E-02  0.1300439E+00
        -11   -1    0    0    0    0  0.00000000000E+00  0.00000000000E+00  0.45593999997E+02  0.45594000000E+02  0.51100000000E-03 0. -1.
         11   -1    0    0    0    0 -0.00000000000E+00 -0.00000000000E+00 -0.45593999997E+02  0.45594000000E+02  0.51100000000E-03 0.  1.
    9900012    2    1    2    0    0 -0.19230175141E+01 -0.29702364721E+02 -0.27699067864E+02  0.50528845718E+02  0.29999957044E+02 0.  0.
         12    1    1    2    0    0  0.19230175141E+01  0.29702364721E+02  0.27699067864E+02  0.40659154282E+02  0.00000000000E+00 0. -1.
         11    1    3    3    0    0  0.14693907699E+01 -0.25994444787E+02 -0.23930870125E+02  0.35363212725E+02  0.51100000000E-03 0. -1.
        -11    1    3    3    0    0 -0.12407964227E+01 -0.62534486890E+01 -0.77094135591E+01  0.10004011893E+02  0.51100000000E-03 0.  1.
         12    1    3    3    0    0 -0.21516118613E+01  0.25455287547E+01  0.39412158201E+01  0.51616211003E+01  0.00000000000E+00 0. -1.
</event>
<event>
 7    1  0.5479172E-013  0.5052889E+02  0.7816164E-02  0.1300439E+00
        -11   -1    0    0    0    0  0.00000000000E+00  0.00000000000E+00  0.45593999997E+02  0.45594000000E+02  0.51100000000E-03 0. -1.
         11   -1    0    0    0    0 -0.00000000000E+00 -0.00000000000E+00 -0.45593999997E+02  0.45594000000E+02  0.51100000000E-03 0.  1.
    9900012    2    1    2    0    0 -0.30936097766E+02 -0.14077983219E+02  0.22314369186E+02  0.50528894886E+02  0.30000106496E+02 0.  0.
         12    1    1    2    0    0  0.30936097766E+02  0.14077983219E+02 -0.22314369186E+02  0.40659105114E+02  0.00000000000E+00 0. -1.
         11    1    3    3    0    0 -0.52571494165E+01  0.48339200834E+01  0.19061905677E+01  0.73917498673E+01  0.51100000000E-03 0.  1.
        -11    1    3    3    0    0 -0.22188474482E+02 -0.18221734853E+02  0.73983533930E+01  0.29649547283E+02  0.51100000000E-03 0. -1.
         12    1    3    3    0    0 -0.34904738673E+01 -0.69016844987E+00  0.13009825225E+02  0.13487597736E+02  0.00000000000E+00 0. -1.
</event>
<event>
 7    1  0.5479172E-013  0.5052886E+02  0.7816164E-02  0.1300439E+00
        -11   -1    0    0    0    0  0.00000000000E+00  0.00000000000E+00  0.45593999997E+02  0.45594000000E+02  0.51100000000E-03 0.  1.
         11   -1    0    0    0    0 -0.00000000000E+00 -0.00000000000E+00 -0.45593999997E+02  0.45594000000E+02  0.51100000000E-03 0. -1.
    9900012    2    1    2    0    0 -0.40418983604E+02 -0.28607572550E+01 -0.33596456575E+01  0.50528863431E+02  0.30000010883E+02 0.  0.
         12    1    1    2    0    0  0.40418983604E+02  0.28607572550E+01  0.33596456575E+01  0.40659136569E+02  0.00000000000E+00 0. -1.
         11    1    3    3    0    0 -0.66145919744E+01 -0.46662484373E+01 -0.84091068651E+00  0.81384170764E+01  0.51100000000E-03 0. -1.
        -11    1    3    3    0    0 -0.18943781843E+02 -0.57534677263E+01  0.93795522460E+01  0.21907653046E+02  0.51100000000E-03 0.  1.
        -12    1    3    3    0    0 -0.14860609787E+02  0.75589589085E+01 -0.11898287217E+02  0.20482793308E+02  0.00000000000E+00 0.  1.
</event>
<event>
 7    1  0.5479172E-013  0.5052886E+02  0.7816164E-02  0.1300439E+00
        -11   -1    0    0    0    0  0.00000000000E+00  0.00000000000E+00  0.45593999997E+02  0.45594000000E+02  0.51100000000E-03 0.  1.
         11   -1    0    0    0    0 -0.00000000000E+00 -0.00000000000E+00 -0.45593999997E+02  0.45594000000E+02  0.51100000000E-03 0. -1.
    9900012    2    1    2    0    0  0.16257213519E+00  0.64873373110E+01  0.40137936846E+02  0.50528856510E+02  0.29999989848E+02 0.  0.
         12    1    1    2    0    0 -0.16257213519E+00 -0.64873373110E+01 -0.40137936846E+02  0.40659143490E+02  0.00000000000E+00 0. -1.
         11    1    3    3    0    0  0.83277617062E+01  0.30118167245E+01  0.63923347455E+01  0.10921748888E+02  0.51100000000E-03 0. -1.
        -11    1    3    3    0    0 -0.36058825285E+01 -0.74897874320E+01  0.18503332044E+02  0.20284787442E+02  0.51100000000E-03 0.  1.
         12    1    3    3    0    0 -0.45593070424E+01  0.10965308019E+02  0.15242270057E+02  0.19322320180E+02  0.00000000000E+00 0. -1.
</event>
<event>
 7    1  0.5479172E-013  0.5052887E+02  0.7816164E-02  0.1300439E+00
        -11   -1    0    0    0    0  0.00000000000E+00  0.00000000000E+00  0.45593999997E+02  0.45594000000E+02  0.51100000000E-03 0.  1.
         11   -1    0    0    0    0 -0.00000000000E+00 -0.00000000000E+00 -0.45593999997E+02  0.45594000000E+02  0.51100000000E-03 0. -1.
    9900012    2    1    2    0    0  0.19798039740E+02  0.96094145535E+01  0.34188619468E+02  0.50528869086E+02  0.30000028073E+02 0.  0.
         12    1    1    2    0    0 -0.19798039740E+02 -0.96094145535E+01 -0.34188619468E+02  0.40659130914E+02  0.00000000000E+00 0. -1.
         11    1    3    3    0    0  0.11229683297E+02  0.80158092402E+01  0.20904532519E+01  0.13954532589E+02  0.51100000000E-03 0. -1.
        -11    1    3    3    0    0  0.84209347457E+01  0.34717508596E+01  0.72147772774E+01  0.11619733536E+02  0.51100000000E-03 0.  1.
         12    1    3    3    0    0  0.14742169700E+00 -0.18781455463E+01  0.24883388938E+02  0.24954602960E+02  0.00000000000E+00 0. -1.
</event>
<event>
 7    1  0.5479172E-013  0.5052885E+02  0.7816164E-02  0.1300439E+00
        -11   -1    0    0    0    0  0.00000000000E+00  0.00000000000E+00  0.45593999997E+02  0.45594000000E+02  0.51100000000E-03 0. -1.
         11   -1    0    0    0    0 -0.00000000000E+00 -0.00000000000E+00 -0.45593999997E+02  0.45594000000E+02  0.51100000000E-03 0.  1.
    9900012    2    1    2    0    0 -0.10071470242E+02 -0.26227352465E+02 -0.29391458279E+02  0.50528851584E+02  0.29999974874E+02 0.  0.
         12    1    1    2    0    0  0.10071470242E+02  0.26227352465E+02  0.29391458279E+02  0.40659148416E+02  0.00000000000E+00 0. -1.
         11    1    3    3    0    0 -0.44448848557E+01 -0.43996352400E+01 -0.12899967031E+02  0.14336071334E+02  0.51100000000E-03 0. -1.
        -11    1    3    3    0    0 -0.12490381097E+02 -0.42365471335E+01 -0.84834716970E+01  0.15682067589E+02  0.51100000000E-03 0.  1.
         12    1    3    3    0    0  0.68637957106E+01 -0.17591170091E+02 -0.80080195509E+01  0.20510712661E+02  0.00000000000E+00 0. -1.
</event>
<event>
 7    1  0.5479172E-013  0.5052886E+02  0.7816164E-02  0.1300439E+00
        -11   -1    0    0    0    0  0.00000000000E+00  0.00000000000E+00  0.45593999997E+02  0.45594000000E+02  0.51100000000E-03 0.  1.
         11   -1    0    0    0    0 -0.00000000000E+00 -0.00000000000E+00 -0.45593999997E+02  0.45594000000E+02  0.51100000000E-03 0. -1.
    9900012    2    1    2    0    0 -0.50093878059E+01 -0.22655858955E+02  0.33388382339E+02  0.50528856055E+02  0.29999988464E+02 0.  0.
         12    1    1    2    0    0  0.50093878059E+01  0.22655858955E+02 -0.33388382339E+02  0.40659143945E+02  0.00000000000E+00 0. -1.
         11    1    3    3    0    0  0.46659595421E+01 -0.89098288476E+01  0.75141671644E+01  0.12554638066E+02  0.51100000000E-03 0. -1.
        -11    1    3    3    0    0 -0.28560332588E+00 -0.17598965272E+02  0.17432207276E+02  0.24772706729E+02  0.51100000000E-03 0.  1.
         12    1    3    3    0    0 -0.93897440221E+01  0.38529351647E+01  0.84420078985E+01  0.13201511260E+02  0.00000000000E+00 0. -1.
</event>
<event>
 7    1  0.5479172E-013  0.5052889E+02  0.7816164E-02  0.1300439E+00
        -11   -1    0    0    0    0  0.00000000000E+00  0.00000000000E+00  0.45593999997E+02  0.45594000000E+02  0.51100000000E-03 0.  1.
         11   -1    0    0    0    0 -0.00000000000E+00 -0.00000000000E+00 -0.45593999997E+02  0.45594000000E+02  0.51100000000E-03 0. -1.
    9900012    2    1    2    0    0 -0.32969482768E+02 -0.84431188060E+01  0.22246130776E+02  0.50528888061E+02  0.30000085751E+02 0.  0.
         12    1    1    2    0    0  0.32969482768E+02  0.84431188060E+01 -0.22246130776E+02  0.40659111939E+02  0.00000000000E+00 0. -1.
         11    1    3    3    0    0 -0.10129153431E+02 -0.89277585480E+01  0.62750928713E+01  0.14888969498E+02  0.51100000000E-03 0.  1.
        -11    1    3    3    0    0 -0.62541192797E+01 -0.74159279973E+01  0.14180268242E+02  0.17181094368E+02  0.51100000000E-03 0. -1.
         12    1    3    3    0    0 -0.16586210057E+02  0.79005677393E+01  0.17907696629E+01  0.18458824195E+02  0.00000000000E+00 0. -1.
</event>
<event>
 7    1  0.5479172E-013  0.5052887E+02  0.7816164E-02  0.1300439E+00
        -11   -1    0    0    0    0  0.00000000000E+00  0.00000000000E+00  0.45593999997E+02  0.45594000000E+02  0.51100000000E-03 0. -1.
         11   -1    0    0    0    0 -0.00000000000E+00 -0.00000000000E+00 -0.45593999997E+02  0.45594000000E+02  0.51100000000E-03 0.  1.
    9900012    2    1    2    0    0 -0.24200828358E+02 -0.23498670193E+02 -0.22700154714E+02  0.50528872881E+02  0.30000039609E+02 0.  0.
         12    1    1    2    0    0  0.24200828358E+02  0.23498670193E+02  0.22700154714E+02  0.40659127119E+02  0.00000000000E+00 0. -1.
         11    1    3    3    0    0 -0.92646527179E+01  0.40006987319E+01 -0.64456865729E+01  0.11974400026E+02  0.51100000000E-03 0. -1.
        -11    1    3    3    0    0  0.27288765750E+00  0.87452603541E+00 -0.40070185071E+01  0.41104088650E+01  0.51100000000E-03 0.  1.
         12    1    3    3    0    0 -0.15209063298E+02 -0.28373894960E+02 -0.12247449634E+02  0.34444063990E+02  0.00000000000E+00 0. -1.
</event>
<event>
 7    1  0.5479172E-013  0.5052885E+02  0.7816164E-02  0.1300439E+00
        -11   -1    0    0    0    0  0.00000000000E+00  0.00000000000E+00  0.45593999997E+02  0.45594000000E+02  0.51100000000E-03 0.  1.
         11   -1    0    0    0    0 -0.00000000000E+00 -0.00000000000E+00 -0.45593999997E+02  0.45594000000E+02  0.51100000000E-03 0. -1.
    9900012    2    1    2    0    0 -0.27155577756E+02  0.60735404083E+01  0.29645453055E+02  0.50528853634E+02  0.29999981106E+02 0.  0.
         12    1    1    2    0    0  0.27155577756E+02 -0.60735404083E+01 -0.29645453055E+02  0.40659146366E+02  0.00000000000E+00 0. -1.
         11    1    3    3    0    0 -0.41452366343E+00  0.35708971589E+01  0.11229596788E+02  0.11790970302E+02  0.51100000000E-03 0. -1.
        -11    1    3    3    0    0  0.14806066553E+01  0.43080237457E+01  0.67577803288E+01  0.81497766776E+01  0.51100000000E-03 0.  1.
         12    1    3    3    0    0 -0.28221660748E+02 -0.18053804963E+01  0.11658075939E+02  0.30588106654E+02  0.00000000000E+00 0. -1.
</event>
<event>
 7    1  0.5479172E-013  0.5052886E+02  0.7816164E-02  0.1300439E+00
        -11   -1    0    0    0    0  0.00000000000E+00  0.00000000000E+00  0.45593999997E+02  0.45594000000E+02  0.51100000000E-03 0.  1.
         11   -1    0    0    0    0 -0.00000000000E+00 -0.00000000000E+00 -0.45593999997E+02  0.45594000000E+02  0.51100000000E-03 0. -1.
    9900012    2    1    2    0    0 -0.66715490747E+01  0.36736864243E+02  0.16095313233E+02  0.50528857491E+02  0.29999992830E+02 0.  0.
         12    1    1    2    0    0  0.66715490747E+01 -0.36736864243E+02 -0.16095313233E+02  0.40659142509E+02  0.00000000000E+00 0. -1.
         11    1    3    3    0    0  0.27981101471E+01 -0.85118083955E+00  0.54637395061E+01  0.61972880253E+01  0.51100000000E-03 0. -1.
        -11    1    3    3    0    0  0.46377010983E+01  0.70173516574E+01  0.60306857792E+01  0.10349911448E+02  0.51100000000E-03 0.  1.
        -12    1    3    3    0    0 -0.14107360320E+02  0.30570693425E+02  0.46008879479E+01  0.33981658017E+02  0.00000000000E+00 0.  1.
</event>
<event>
 7    1  0.5479172E-013  0.5052886E+02  0.7816164E-02  0.1300439E+00
        -11   -1    0    0    0    0  0.00000000000E+00  0.00000000000E+00  0.45593999997E+02  0.45594000000E+02  0.51100000000E-03 0.  1.
         11   -1    0    0    0    0 -0.00000000000E+00 -0.00000000000E+00 -0.45593999997E+02  0.45594000000E+02  0.51100000000E-03 0. -1.
    9900012    2    1    2    0    0 -0.81890081022E+01 -0.13810346196E+01  0.39801996610E+02  0.50528855340E+02  0.29999986291E+02 0.  0.
         12    1    1    2    0    0  0.81890081022E+01  0.13810346196E+01 -0.39801996610E+02  0.40659144660E+02  0.00000000000E+00 0. -1.
         11    1    3    3    0    0  0.22926223591E+01  0.15290198614E+01  0.48949492269E+00  0.27988612968E+01  0.51100000000E-03 0. -1.
        -11    1    3    3    0    0 -0.27003061140E+01  0.94361256952E+01  0.26680678099E+02  0.28428695104E+02  0.51100000000E-03 0.  1.
         12    1    3    3    0    0 -0.77813243473E+01 -0.12346180176E+02  0.12631823588E+02  0.19301298939E+02  0.00000000000E+00 0. -1.
</event>
<event>
 7    1  0.5479172E-013  0.5052884E+02  0.7816164E-02  0.1300439E+00
        -11   -1    0    0    0    0  0.00000000000E+00  0.00000000000E+00  0.45593999997E+02  0.45594000000E+02  0.51100000000E-03 0.  1.
         11   -1    0    0    0    0 -0.00000000000E+00 -0.00000000000E+00 -0.45593999997E+02  0.45594000000E+02  0.51100000000E-03 0. -1.
    9900012    2    1    2    0    0  0.13779154253E+02 -0.37586449674E+02  0.71106059878E+01  0.50528843485E+02  0.29999950256E+02 0.  0.
         12    1    1    2    0    0 -0.13779154253E+02  0.37586449674E+02 -0.71106059878E+01  0.40659156515E+02  0.00000000000E+00 0. -1.
         11    1    3    3    0    0  0.27479284577E+01 -0.23250508415E+01 -0.52203338625E+01  0.63410455069E+01  0.51100000000E-03 0. -1.
        -11    1    3    3    0    0  0.16462862927E+02 -0.18532206393E+02  0.61013909327E+01  0.25528327425E+02  0.51100000000E-03 0.  1.
        -12    1    3    3    0    0 -0.54316371311E+01 -0.16729192439E+02  0.62295489176E+01  0.18659470552E+02  0.00000000000E+00 0.  1.
</event>
<event>
 7    1  0.5479172E-013  0.5052887E+02  0.7816164E-02  0.1300439E+00
        -11   -1    0    0    0    0  0.00000000000E+00  0.00000000000E+00  0.45593999997E+02  0.45594000000E+02  0.51100000000E-03 0. -1.
         11   -1    0    0    0    0 -0.00000000000E+00 -0.00000000000E+00 -0.45593999997E+02  0.45594000000E+02  0.51100000000E-03 0.  1.
    9900012    2    1    2    0    0  0.14122463479E+02  0.36953078466E+02 -0.93910195284E+01  0.50528865348E+02  0.30000016712E+02 0.  0.
         12    1    1    2    0    0 -0.14122463479E+02 -0.36953078466E+02  0.93910195284E+01  0.40659134652E+02  0.00000000000E+00 0. -1.
         11    1    3    3    0    0  0.14055684805E+02  0.14728865310E+02 -0.30481004332E+01  0.20586225131E+02  0.51100000000E-03 0. -1.
        -11    1    3    3    0    0 -0.11185166165E+00  0.24914917805E+02 -0.86701757335E+01  0.26380629021E+02  0.51100000000E-03 0.  1.
         12    1    3    3    0    0  0.17863033598E+00 -0.26907046482E+01  0.23272566383E+01  0.35620111962E+01  0.00000000000E+00 0. -1.
</event>
<event>
 7    1  0.5479172E-013  0.5052888E+02  0.7816164E-02  0.1300439E+00
        -11   -1    0    0    0    0  0.00000000000E+00  0.00000000000E+00  0.45593999997E+02  0.45594000000E+02  0.51100000000E-03 0.  1.
         11   -1    0    0    0    0 -0.00000000000E+00 -0.00000000000E+00 -0.45593999997E+02  0.45594000000E+02  0.51100000000E-03 0. -1.
    9900012    2    1    2    0    0 -0.16096701617E+02  0.29828757479E+02  0.22456744931E+02  0.50528880868E+02  0.30000063887E+02 0.  0.
         12    1    1    2    0    0  0.16096701617E+02 -0.29828757479E+02 -0.22456744931E+02  0.40659119132E+02  0.00000000000E+00 0. -1.
         11    1    3    3    0    0 -0.12710598283E+02  0.16655493813E+02  0.16503980834E+01  0.21016388771E+02  0.51100000000E-03 0.  1.
        -11    1    3    3    0    0  0.12849342723E+00 -0.30247877858E+01  0.80396089471E+01  0.85907603851E+01  0.51100000000E-03 0. -1.
        -12    1    3    3    0    0 -0.35145967606E+01  0.16198051452E+02  0.12766737900E+02  0.20921731712E+02  0.00000000000E+00 0.  1.
</event>
<event>
 7    1  0.5479172E-013  0.5052886E+02  0.7816164E-02  0.1300439E+00
        -11   -1    0    0    0    0  0.00000000000E+00  0.00000000000E+00  0.45593999997E+02  0.45594000000E+02  0.51100000000E-03 0. -1.
         11   -1    0    0    0    0 -0.00000000000E+00 -0.00000000000E+00 -0.45593999997E+02  0.45594000000E+02  0.51100000000E-03 0.  1.
    9900012    2    1    2    0    0  0.20539504372E+02  0.25544988069E+02 -0.24057179198E+02  0.50528861713E+02  0.30000005664E+02 0.  0.
         12    1    1    2    0    0 -0.20539504372E+02 -0.25544988069E+02  0.24057179198E+02  0.40659138287E+02  0.00000000000E+00 0. -1.
         11    1    3    3    0    0  0.14732139568E+02  0.11179104537E+02 -0.10017385653E+02  0.21032268781E+02  0.51100000000E-03 0. -1.
        -11    1    3    3    0    0  0.13086848084E+02  0.55061207996E+01 -0.98856994948E+01  0.17300578424E+02  0.51100000000E-03 0.  1.
         12    1    3    3    0    0 -0.72794832811E+01  0.88597627320E+01 -0.41540940500E+01  0.12196014508E+02  0.00000000000E+00 0. -1.
</event>
<event>
 7    1  0.5479172E-013  0.5052886E+02  0.7816164E-02  0.1300439E+00
        -11   -1    0    0    0    0  0.00000000000E+00  0.00000000000E+00  0.45593999997E+02  0.45594000000E+02  0.51100000000E-03 0. -1.
         11   -1    0    0    0    0 -0.00000000000E+00 -0.00000000000E+00 -0.45593999997E+02  0.45594000000E+02  0.51100000000E-03 0.  1.
    9900012    2    1    2    0    0 -0.11060848764E+02  0.24490241667E+02 -0.30513130836E+02  0.50528862457E+02  0.30000007926E+02 0.  0.
         12    1    1    2    0    0  0.11060848764E+02 -0.24490241667E+02  0.30513130836E+02  0.40659137543E+02  0.00000000000E+00 0. -1.
         11    1    3    3    0    0 -0.15834333557E+02  0.93723848023E+01 -0.93279862661E+01  0.20629567231E+02  0.51100000000E-03 0. -1.
        -11    1    3    3    0    0 -0.22540043474E+01  0.31186342335E+01  0.75723302780E+00  0.39217110041E+01  0.51100000000E-03 0.  1.
        -12    1    3    3    0    0  0.70274891412E+01  0.11999222631E+02 -0.21942377598E+02  0.25977584222E+02  0.00000000000E+00 0.  1.
</event>
<event>
 7    1  0.5479172E-013  0.5052884E+02  0.7816164E-02  0.1300439E+00
        -11   -1    0    0    0    0  0.00000000000E+00  0.00000000000E+00  0.45593999997E+02  0.45594000000E+02  0.51100000000E-03 0.  1.
         11   -1    0    0    0    0 -0.00000000000E+00 -0.00000000000E+00 -0.45593999997E+02  0.45594000000E+02  0.51100000000E-03 0. -1.
    9900012    2    1    2    0    0 -0.20005557000E+02 -0.27037165726E+02  0.22845933146E+02  0.50528839868E+02  0.29999939262E+02 0.  0.
         12    1    1    2    0    0  0.20005557000E+02  0.27037165726E+02 -0.22845933146E+02  0.40659160132E+02  0.00000000000E+00 0. -1.
         11    1    3    3    0    0 -0.11324181935E+02  0.36104026385E+00  0.61322219476E+01  0.12882996268E+02  0.51100000000E-03 0. -1.
        -11    1    3    3    0    0  0.11756192920E+01  0.21182821947E+01  0.23723588773E+00  0.24342311525E+01  0.51100000000E-03 0.  1.
        -12    1    3    3    0    0 -0.98569943567E+01 -0.29516488184E+02  0.16476475311E+02  0.35211612447E+02  0.00000000000E+00 0.  1.
</event>
<event>
 7    1  0.5479172E-013  0.5052886E+02  0.7816164E-02  0.1300439E+00
        -11   -1    0    0    0    0  0.00000000000E+00  0.00000000000E+00  0.45593999997E+02  0.45594000000E+02  0.51100000000E-03 0.  1.
         11   -1    0    0    0    0 -0.00000000000E+00 -0.00000000000E+00 -0.45593999997E+02  0.45594000000E+02  0.51100000000E-03 0. -1.
    9900012    2    1    2    0    0  0.41041301080E+01 -0.80774394586E+01  0.39636811595E+02  0.50528859016E+02  0.29999997464E+02 0.  0.
         12    1    1    2    0    0 -0.41041301080E+01  0.80774394586E+01 -0.39636811595E+02  0.40659140984E+02  0.00000000000E+00 0. -1.
         11    1    3    3    0    0 -0.38546446363E+01 -0.12104957213E+02  0.23231079594E+02  0.26477751675E+02  0.51100000000E-03 0. -1.
        -11    1    3    3    0    0  0.43946631004E+00 -0.29765820406E+01  0.12818531386E+02  0.13166925170E+02  0.51100000000E-03 0.  1.
         12    1    3    3    0    0  0.75193084342E+01  0.70040997953E+01  0.35872006157E+01  0.10884182171E+02  0.00000000000E+00 0. -1.
</event>
<event>
 7    1  0.5479172E-013  0.5052886E+02  0.7816164E-02  0.1300439E+00
        -11   -1    0    0    0    0  0.00000000000E+00  0.00000000000E+00  0.45593999997E+02  0.45594000000E+02  0.51100000000E-03 0.  1.
         11   -1    0    0    0    0 -0.00000000000E+00 -0.00000000000E+00 -0.45593999997E+02  0.45594000000E+02  0.51100000000E-03 0. -1.
    9900012    2    1    2    0    0  0.16038151783E+02  0.36612690361E+02  0.74467521009E+01  0.50528861729E+02  0.30000005712E+02 0.  0.
         12    1    1    2    0    0 -0.16038151783E+02 -0.36612690361E+02 -0.74467521009E+01  0.40659138271E+02  0.00000000000E+00 0. -1.
         11    1    3    3    0    0 -0.47588732051E+00  0.23285276866E+01  0.13740092800E+01  0.27452525734E+01  0.51100000000E-03 0. -1.
        -11    1    3    3    0    0  0.82342262117E+01  0.98772992502E+01 -0.10955426173E+02  0.16893338471E+02  0.51100000000E-03 0.  1.
        -12    1    3    3    0    0  0.82798128917E+01  0.24406863424E+02  0.17028168994E+02  0.30890270685E+02  0.00000000000E+00 0.  1.
</event>
<event>
 7    1  0.5479172E-013  0.5052885E+02  0.7816164E-02  0.1300439E+00
        -11   -1    0    0    0    0  0.00000000000E+00  0.00000000000E+00  0.45593999997E+02  0.45594000000E+02  0.51100000000E-03 0.  1.
         11   -1    0    0    0    0 -0.00000000000E+00 -0.00000000000E+00 -0.45593999997E+02  0.45594000000E+02  0.51100000000E-03 0. -1.
    9900012    2    1    2    0    0 -0.87909478508E+01 -0.35298032738E+02 -0.18164093348E+02  0.50528853840E+02  0.29999981733E+02 0.  0.
         12    1    1    2    0    0  0.87909478508E+01  0.35298032738E+02  0.18164093348E+02  0.40659146160E+02  0.00000000000E+00 0. -1.
         11    1    3    3    0    0 -0.83671715876E+01 -0.34954158363E+02 -0.13384037842E+02  0.38352773256E+02  0.51100000000E-03 0. -1.
        -11    1    3    3    0    0  0.19068427288E+01 -0.48652452874E+01 -0.43773898493E-01  0.52257609316E+01  0.51100000000E-03 0.  1.
         12    1    3    3    0    0 -0.23306189919E+01  0.45213709122E+01 -0.47362816073E+01  0.69503196527E+01  0.00000000000E+00 0. -1.
</event>
<event>
 7    1  0.5479172E-013  0.5052886E+02  0.7816164E-02  0.1300439E+00
        -11   -1    0    0    0    0  0.00000000000E+00  0.00000000000E+00  0.45593999997E+02  0.45594000000E+02  0.51100000000E-03 0.  1.
         11   -1    0    0    0    0 -0.00000000000E+00 -0.00000000000E+00 -0.45593999997E+02  0.45594000000E+02  0.51100000000E-03 0. -1.
    9900012    2    1    2    0    0  0.47400992185E+01  0.11620972670E+02  0.38673636837E+02  0.50528859175E+02  0.29999997949E+02 0.  0.
         12    1    1    2    0    0 -0.47400992185E+01 -0.11620972670E+02 -0.38673636837E+02  0.40659140825E+02  0.00000000000E+00 0. -1.
         11    1    3    3    0    0  0.48041512212E+00  0.23092312605E+01 -0.62394441010E+00  0.24398062612E+01  0.51100000000E-03 0. -1.
        -11    1    3    3    0    0 -0.64544904461E+01  0.72514278172E+01  0.29604358983E+01  0.10149277476E+02  0.51100000000E-03 0.  1.
        -12    1    3    3    0    0  0.10714174542E+02  0.20603135918E+01  0.36337145349E+02  0.37939775439E+02  0.00000000000E+00 0.  1.
</event>
<event>
 7    1  0.5479172E-013  0.5052885E+02  0.7816164E-02  0.1300439E+00
        -11   -1    0    0    0    0  0.00000000000E+00  0.00000000000E+00  0.45593999997E+02  0.45594000000E+02  0.51100000000E-03 0.  1.
         11   -1    0    0    0    0 -0.00000000000E+00 -0.00000000000E+00 -0.45593999997E+02  0.45594000000E+02  0.51100000000E-03 0. -1.
    9900012    2    1    2    0    0 -0.39571597802E+02 -0.16450328924E+01  0.91950339672E+01  0.50528854221E+02  0.29999982889E+02 0.  0.
         12    1    1    2    0    0  0.39571597802E+02  0.16450328924E+01 -0.91950339672E+01  0.40659145779E+02  0.00000000000E+00 0. -1.
         11    1    3    3    0    0 -0.66839690520E+01  0.89667991631E+01  0.30392610549E+01  0.11589479606E+02  0.51100000000E-03 0. -1.
        -11    1    3    3    0    0 -0.13404213205E+02  0.35495565981E+01  0.52791003326E+01  0.14837155531E+02  0.51100000000E-03 0.  1.
         12    1    3    3    0    0 -0.19483415546E+02 -0.14161388654E+02  0.87667257959E+00  0.24102219083E+02  0.00000000000E+00 0. -1.
</event>
<event>
 7    1  0.5479172E-013  0.5052886E+02  0.7816164E-02  0.1300439E+00
        -11   -1    0    0    0    0  0.00000000000E+00  0.00000000000E+00  0.45593999997E+02  0.45594000000E+02  0.51100000000E-03 0.  1.
         11   -1    0    0    0    0 -0.00000000000E+00 -0.00000000000E+00 -0.45593999997E+02  0.45594000000E+02  0.51100000000E-03 0. -1.
    9900012    2    1    2    0    0  0.11795647042E+02  0.49935955662E+00 -0.38907311378E+02  0.50528861694E+02  0.30000005605E+02 0.  0.
         12    1    1    2    0    0 -0.11795647042E+02 -0.49935955662E+00  0.38907311378E+02  0.40659138306E+02  0.00000000000E+00 0. -1.
         11    1    3    3    0    0 -0.59339511862E+00 -0.33679190345E+01 -0.45028503814E+01  0.56542601822E+01  0.51100000000E-03 0. -1.
        -11    1    3    3    0    0 -0.56367243518E+01 -0.13309709893E+01 -0.12001043055E+00  0.57929740166E+01  0.51100000000E-03 0.  1.
        -12    1    3    3    0    0  0.18025766512E+02  0.51982495804E+01 -0.34284450566E+02  0.39081627495E+02  0.00000000000E+00 0.  1.
</event>
<event>
 7    1  0.5479172E-013  0.5052881E+02  0.7816164E-02  0.1300439E+00
        -11   -1    0    0    0    0  0.00000000000E+00  0.00000000000E+00  0.45593999997E+02  0.45594000000E+02  0.51100000000E-03 0. -1.
         11   -1    0    0    0    0 -0.00000000000E+00 -0.00000000000E+00 -0.45593999997E+02  0.45594000000E+02  0.51100000000E-03 0.  1.
    9900012    2    1    2    0    0  0.35734237793E+02 -0.67056735569E+01 -0.18200769885E+02  0.50528808752E+02  0.29999844682E+02 0.  0.
         12    1    1    2    0    0 -0.35734237793E+02  0.67056735569E+01  0.18200769885E+02  0.40659191248E+02  0.00000000000E+00 0. -1.
         11    1    3    3    0    0  0.79676229418E+01 -0.37510847488E+01  0.48943241501E+01  0.10075120907E+02  0.51100000000E-03 0. -1.
        -11    1    3    3    0    0  0.29150892356E+00  0.32004274097E+01  0.10309219620E+01  0.33749834681E+01  0.51100000000E-03 0.  1.
        -12    1    3    3    0    0  0.27475105928E+02 -0.61550162178E+01 -0.24126015997E+02  0.37078704377E+02  0.00000000000E+00 0.  1.
</event>
<event>
 7    1  0.5479172E-013  0.5052885E+02  0.7816164E-02  0.1300439E+00
        -11   -1    0    0    0    0  0.00000000000E+00  0.00000000000E+00  0.45593999997E+02  0.45594000000E+02  0.51100000000E-03 0. -1.
         11   -1    0    0    0    0 -0.00000000000E+00 -0.00000000000E+00 -0.45593999997E+02  0.45594000000E+02  0.51100000000E-03 0.  1.
    9900012    2    1    2    0    0  0.30399449454E+02 -0.15154230111E+02  0.22347018598E+02  0.50528850260E+02  0.29999970850E+02 0.  0.
         12    1    1    2    0    0 -0.30399449454E+02  0.15154230111E+02 -0.22347018598E+02  0.40659149740E+02  0.00000000000E+00 0. -1.
         11    1    3    3    0    0 -0.45877135278E+00  0.51175229624E+01  0.33625031848E+01  0.61405162937E+01  0.51100000000E-03 0. -1.
        -11    1    3    3    0    0 -0.10963006827E+01 -0.27570334833E+01 -0.58817058821E+00  0.30247402726E+01  0.51100000000E-03 0.  1.
        -12    1    3    3    0    0  0.31954521489E+02 -0.17514719590E+02  0.19572686002E+02  0.41363593694E+02  0.00000000000E+00 0.  1.
</event>
<event>
 7    1  0.5479172E-013  0.5052884E+02  0.7816164E-02  0.1300439E+00
        -11   -1    0    0    0    0  0.00000000000E+00  0.00000000000E+00  0.45593999997E+02  0.45594000000E+02  0.51100000000E-03 0. -1.
         11   -1    0    0    0    0 -0.00000000000E+00 -0.00000000000E+00 -0.45593999997E+02  0.45594000000E+02  0.51100000000E-03 0.  1.
    9900012    2    1    2    0    0 -0.19724935782E+02  0.25353184098E+02 -0.24926100470E+02  0.50528837194E+02  0.29999931134E+02 0.  0.
         12    1    1    2    0    0  0.19724935782E+02 -0.25353184098E+02  0.24926100470E+02  0.40659162806E+02  0.00000000000E+00 0. -1.
         11    1    3    3    0    0 -0.60033166288E+01  0.17657972542E+02 -0.18162919925E+01  0.18738802569E+02  0.51100000000E-03 0. -1.
        -11    1    3    3    0    0 -0.74106566273E+01  0.10151267831E+02 -0.71664171369E+01  0.14468020081E+02  0.51100000000E-03 0.  1.
        -12    1    3    3    0    0 -0.63109625256E+01 -0.24560562755E+01 -0.15943391340E+02  0.17322014544E+02  0.00000000000E+00 0.  1.
</event>
<event>
 7    1  0.5479172E-013  0.5052885E+02  0.7816164E-02  0.1300439E+00
        -11   -1    0    0    0    0  0.00000000000E+00  0.00000000000E+00  0.45593999997E+02  0.45594000000E+02  0.51100000000E-03 0. -1.
         11   -1    0    0    0    0 -0.00000000000E+00 -0.00000000000E+00 -0.45593999997E+02  0.45594000000E+02  0.51100000000E-03 0.  1.
    9900012    2    1    2    0    0  0.30983526348E+02 -0.26081646901E+02 -0.35965325007E+01  0.50528852739E+02  0.29999978385E+02 0.  0.
         12    1    1    2    0    0 -0.30983526348E+02  0.26081646901E+02  0.35965325007E+01  0.40659147261E+02  0.00000000000E+00 0. -1.
         11    1    3    3    0    0  0.28217480651E+01 -0.51414308401E+01  0.96509677484E+00  0.59437349598E+01  0.51100000000E-03 0. -1.
        -11    1    3    3    0    0  0.29366240711E+02 -0.21416941245E+02 -0.11034035434E+02  0.37984357359E+02  0.51100000000E-03 0.  1.
         12    1    3    3    0    0 -0.12044624281E+01  0.47672518462E+00  0.64724061584E+01  0.66007604200E+01  0.00000000000E+00 0. -1.
</event>
<event>
 7    1  0.5479172E-013  0.5052886E+02  0.7816164E-02  0.1300439E+00
        -11   -1    0    0    0    0  0.00000000000E+00  0.00000000000E+00  0.45593999997E+02  0.45594000000E+02  0.51100000000E-03 0.  1.
         11   -1    0    0    0    0 -0.00000000000E+00 -0.00000000000E+00 -0.45593999997E+02  0.45594000000E+02  0.51100000000E-03 0. -1.
    9900012    2    1    2    0    0  0.25581300890E+02 -0.14740138674E+02  0.27955159747E+02  0.50528860808E+02  0.30000002912E+02 0.  0.
         12    1    1    2    0    0 -0.25581300890E+02  0.14740138674E+02 -0.27955159747E+02  0.40659139192E+02  0.00000000000E+00 0. -1.
         11    1    3    3    0    0  0.88192788326E+01  0.43645067002E+01  0.24853219435E+01  0.10149158748E+02  0.51100000000E-03 0. -1.
        -11    1    3    3    0    0  0.64108360440E+01  0.28776668669E+01  0.53090894809E+01  0.88071684870E+01  0.51100000000E-03 0.  1.
        -12    1    3    3    0    0  0.10351186014E+02 -0.21982312241E+02  0.20160748322E+02  0.31572533573E+02  0.00000000000E+00 0.  1.
</event>
<event>
 7    1  0.5479172E-013  0.5052886E+02  0.7816164E-02  0.1300439E+00
        -11   -1    0    0    0    0  0.00000000000E+00  0.00000000000E+00  0.45593999997E+02  0.45594000000E+02  0.51100000000E-03 0. -1.
         11   -1    0    0    0    0 -0.00000000000E+00 -0.00000000000E+00 -0.45593999997E+02  0.45594000000E+02  0.51100000000E-03 0.  1.
    9900012    2    1    2    0    0 -0.16597665552E+02 -0.36066474414E+02 -0.87688325374E+01  0.50528862005E+02  0.30000006550E+02 0.  0.
         12    1    1    2    0    0  0.16597665552E+02  0.36066474414E+02  0.87688325374E+01  0.40659137995E+02  0.00000000000E+00 0. -1.
         11    1    3    3    0    0  0.45998900843E+01 -0.36309133788E+01  0.62826766321E+01  0.85915392495E+01  0.51100000000E-03 0. -1.
        -11    1    3    3    0    0 -0.35636188776E+01 -0.24715317118E+01 -0.10950297180E+01  0.44729116750E+01  0.51100000000E-03 0.  1.
        -12    1    3    3    0    0 -0.17633936759E+02 -0.29964029324E+02 -0.13956479452E+02  0.37464411080E+02  0.00000000000E+00 0.  1.
</event>
<event>
 7    1  0.5479172E-013  0.5052886E+02  0.7816164E-02  0.1300439E+00
        -11   -1    0    0    0    0  0.00000000000E+00  0.00000000000E+00  0.45593999997E+02  0.45594000000E+02  0.51100000000E-03 0.  1.
         11   -1    0    0    0    0 -0.00000000000E+00 -0.00000000000E+00 -0.45593999997E+02  0.45594000000E+02  0.51100000000E-03 0. -1.
    9900012    2    1    2    0    0 -0.49145510308E+01  0.15212575515E+02  0.37384359450E+02  0.50528860841E+02  0.30000003013E+02 0.  0.
         12    1    1    2    0    0  0.49145510308E+01 -0.15212575515E+02 -0.37384359450E+02  0.40659139159E+02  0.00000000000E+00 0. -1.
         11    1    3    3    0    0 -0.52512715286E+01 -0.46198617662E+01  0.91137363094E+01  0.11488218538E+02  0.51100000000E-03 0. -1.
        -11    1    3    3    0    0 -0.28298238601E+01 -0.20667823698E+01  0.91455737430E+01  0.97939272916E+01  0.51100000000E-03 0.  1.
         12    1    3    3    0    0  0.31665443579E+01  0.21899219650E+02  0.19125049398E+02  0.29246715011E+02  0.00000000000E+00 0. -1.
</event>
<event>
 7    1  0.5479172E-013  0.5052886E+02  0.7816164E-02  0.1300439E+00
        -11   -1    0    0    0    0  0.00000000000E+00  0.00000000000E+00  0.45593999997E+02  0.45594000000E+02  0.51100000000E-03 0.  1.
         11   -1    0    0    0    0 -0.00000000000E+00 -0.00000000000E+00 -0.45593999997E+02  0.45594000000E+02  0.51100000000E-03 0. -1.
    9900012    2    1    2    0    0 -0.35500953562E+01 -0.32468812764E+02  0.24214438428E+02  0.50528855793E+02  0.29999987667E+02 0.  0.
         12    1    1    2    0    0  0.35500953562E+01  0.32468812764E+02 -0.24214438428E+02  0.40659144207E+02  0.00000000000E+00 0. -1.
         11    1    3    3    0    0 -0.67227879381E+01 -0.20555545531E+02  0.18941622213E+02  0.28749110978E+02  0.51100000000E-03 0. -1.
        -11    1    3    3    0    0 -0.45504269160E+01 -0.12560486635E+02  0.38176856357E+01  0.13894133060E+02  0.51100000000E-03 0.  1.
         12    1    3    3    0    0  0.77231194979E+01  0.64721940211E+00  0.14551305793E+01  0.78856117541E+01  0.00000000000E+00 0. -1.
</event>
<event>
 7    1  0.5479172E-013  0.5052887E+02  0.7816164E-02  0.1300439E+00
        -11   -1    0    0    0    0  0.00000000000E+00  0.00000000000E+00  0.45593999997E+02  0.45594000000E+02  0.51100000000E-03 0.  1.
         11   -1    0    0    0    0 -0.00000000000E+00 -0.00000000000E+00 -0.45593999997E+02  0.45594000000E+02  0.51100000000E-03 0. -1.
    9900012    2    1    2    0    0  0.25622305621E+02 -0.15949460027E+02  0.27244760606E+02  0.50528870632E+02  0.30000032772E+02 0.  0.
         12    1    1    2    0    0 -0.25622305621E+02  0.15949460027E+02 -0.27244760606E+02  0.40659129368E+02  0.00000000000E+00 0. -1.
         11    1    3    3    0    0  0.84726168746E+01 -0.71899967296E+01  0.50943069588E+01  0.12224289481E+02  0.51100000000E-03 0. -1.
        -11    1    3    3    0    0  0.30863843637E+01 -0.12620964847E+02  0.15795597063E+01  0.13088526702E+02  0.51100000000E-03 0.  1.
         12    1    3    3    0    0  0.14063304383E+02  0.38615015497E+01  0.20570893941E+02  0.25216054448E+02  0.00000000000E+00 0. -1.
</event>
<event>
 7    1  0.5479172E-013  0.5052885E+02  0.7816164E-02  0.1300439E+00
        -11   -1    0    0    0    0  0.00000000000E+00  0.00000000000E+00  0.45593999997E+02  0.45594000000E+02  0.51100000000E-03 0. -1.
         11   -1    0    0    0    0 -0.00000000000E+00 -0.00000000000E+00 -0.45593999997E+02  0.45594000000E+02  0.51100000000E-03 0.  1.
    9900012    2    1    2    0    0  0.11273090425E+02 -0.10220518748E+02 -0.37704441106E+02  0.50528850350E+02  0.29999971123E+02 0.  0.
         12    1    1    2    0    0 -0.11273090425E+02  0.10220518748E+02  0.37704441106E+02  0.40659149650E+02  0.00000000000E+00 0. -1.
         11    1    3    3    0    0  0.98711777047E+01 -0.11792238641E+02 -0.18329632604E+02  0.23926396993E+02  0.51100000000E-03 0. -1.
        -11    1    3    3    0    0  0.90144731200E+01 -0.20178177382E+01 -0.13422008112E+02  0.16293637288E+02  0.51100000000E-03 0.  1.
         12    1    3    3    0    0 -0.76125603995E+01  0.35895376312E+01 -0.59528003896E+01  0.10308816068E+02  0.00000000000E+00 0. -1.
</event>
<event>
 7    1  0.5479172E-013  0.5052887E+02  0.7816164E-02  0.1300439E+00
        -11   -1    0    0    0    0  0.00000000000E+00  0.00000000000E+00  0.45593999997E+02  0.45594000000E+02  0.51100000000E-03 0.  1.
         11   -1    0    0    0    0 -0.00000000000E+00 -0.00000000000E+00 -0.45593999997E+02  0.45594000000E+02  0.51100000000E-03 0. -1.
    9900012    2    1    2    0    0  0.38915946449E+02  0.85341324949E+01 -0.81168252155E+01  0.50528866254E+02  0.30000019465E+02 0.  0.
         12    1    1    2    0    0 -0.38915946449E+02 -0.85341324949E+01  0.81168252155E+01  0.40659133746E+02  0.00000000000E+00 0. -1.
         11    1    3    3    0    0 -0.13120134703E+01 -0.58844144953E+00 -0.20185962533E+01  0.24783812824E+01  0.51100000000E-03 0. -1.
        -11    1    3    3    0    0  0.26113869941E+02  0.11739320306E+02 -0.13774411854E+02  0.31772319190E+02  0.51100000000E-03 0.  1.
        -12    1    3    3    0    0  0.14114089978E+02 -0.26167463611E+01  0.76761828915E+01  0.16278165782E+02  0.00000000000E+00 0.  1.
</event>
<event>
 7    1  0.5479172E-013  0.5052888E+02  0.7816164E-02  0.1300439E+00
        -11   -1    0    0    0    0  0.00000000000E+00  0.00000000000E+00  0.45593999997E+02  0.45594000000E+02  0.51100000000E-03 0.  1.
         11   -1    0    0    0    0 -0.00000000000E+00 -0.00000000000E+00 -0.45593999997E+02  0.45594000000E+02  0.51100000000E-03 0. -1.
    9900012    2    1    2    0    0  0.12959176066E+02 -0.49975000479E+01  0.38213203849E+02  0.50528878029E+02  0.30000055258E+02 0.  0.
         12    1    1    2    0    0 -0.12959176066E+02  0.49975000479E+01 -0.38213203849E+02  0.40659121971E+02  0.00000000000E+00 0. -1.
         11    1    3    3    0    0  0.13095964565E+01  0.79442325978E-01  0.13779540534E+01  0.19026590857E+01  0.51100000000E-03 0. -1.
        -11    1    3    3    0    0  0.12726991245E+02  0.87820584971E+01  0.10030139080E+02  0.18431075602E+02  0.51100000000E-03 0.  1.
         12    1    3    3    0    0 -0.10774116363E+01 -0.13859000871E+02  0.26805110715E+02  0.30195143342E+02  0.00000000000E+00 0. -1.
</event>
<event>
 7    1  0.5479172E-013  0.5052886E+02  0.7816164E-02  0.1300439E+00
        -11   -1    0    0    0    0  0.00000000000E+00  0.00000000000E+00  0.45593999997E+02  0.45594000000E+02  0.51100000000E-03 0.  1.
         11   -1    0    0    0    0 -0.00000000000E+00 -0.00000000000E+00 -0.45593999997E+02  0.45594000000E+02  0.51100000000E-03 0. -1.
    9900012    2    1    2    0    0 -0.12410887843E+02  0.29660618746E+02  0.24887408371E+02  0.50528861582E+02  0.30000005265E+02 0.  0.
         12    1    1    2    0    0  0.12410887843E+02 -0.29660618746E+02 -0.24887408371E+02  0.40659138418E+02  0.00000000000E+00 0. -1.
         11    1    3    3    0    0  0.53295014225E+01  0.78394480192E+01  0.16254259693E+01  0.96178241043E+01  0.51100000000E-03 0. -1.
        -11    1    3    3    0    0 -0.75428811128E+01 -0.23070391604E+00  0.41074897179E+00  0.75575786306E+01  0.51100000000E-03 0.  1.
        -12    1    3    3    0    0 -0.10197508153E+02  0.22051874643E+02  0.22851233430E+02  0.33353458847E+02  0.00000000000E+00 0.  1.
</event>
<event>
 7    1  0.5479172E-013  0.5052892E+02  0.7816164E-02  0.1300439E+00
        -11   -1    0    0    0    0  0.00000000000E+00  0.00000000000E+00  0.45593999997E+02  0.45594000000E+02  0.51100000000E-03 0. -1.
         11   -1    0    0    0    0 -0.00000000000E+00 -0.00000000000E+00 -0.45593999997E+02  0.45594000000E+02  0.51100000000E-03 0.  1.
    9900012    2    1    2    0    0 -0.95085203652E+01 -0.33371959269E+02 -0.21191067873E+02  0.50528917589E+02  0.30000175502E+02 0.  0.
         12    1    1    2    0    0  0.95085203652E+01  0.33371959269E+02  0.21191067873E+02  0.40659082411E+02  0.00000000000E+00 0. -1.
         11    1    3    3    0    0 -0.37171541424E+01 -0.21216638708E+02  0.59672619768E+00  0.21548064308E+02  0.51100000000E-03 0. -1.
        -11    1    3    3    0    0 -0.28337395427E+01 -0.34349140859E+00  0.10971975261E+01  0.30580890792E+01  0.51100000000E-03 0.  1.
        -12    1    3    3    0    0 -0.29576266801E+01 -0.11811829152E+02 -0.22884991596E+02  0.25922764202E+02  0.00000000000E+00 0.  1.
</event>
<event>
 7    1  0.5479172E-013  0.5052886E+02  0.7816164E-02  0.1300439E+00
        -11   -1    0    0    0    0  0.00000000000E+00  0.00000000000E+00  0.45593999997E+02  0.45594000000E+02  0.51100000000E-03 0. -1.
         11   -1    0    0    0    0 -0.00000000000E+00 -0.00000000000E+00 -0.45593999997E+02  0.45594000000E+02  0.51100000000E-03 0.  1.
    9900012    2    1    2    0    0  0.27522462677E+01 -0.31760145582E+02 -0.25236553494E+02  0.50528864014E+02  0.30000012658E+02 0.  0.
         12    1    1    2    0    0 -0.27522462677E+01  0.31760145582E+02  0.25236553494E+02  0.40659135986E+02  0.00000000000E+00 0. -1.
         11    1    3    3    0    0  0.31098880665E+01 -0.58887365498E+01 -0.11345418553E+02  0.13155498636E+02  0.51100000000E-03 0. -1.
        -11    1    3    3    0    0  0.39272876208E+01 -0.21981473183E+02 -0.19253260836E+02  0.29483839717E+02  0.51100000000E-03 0.  1.
         12    1    3    3    0    0 -0.42849294196E+01 -0.38899358485E+01  0.53621258963E+01  0.78895256615E+01  0.00000000000E+00 0. -1.
</event>
<event>
 7    1  0.5479172E-013  0.5052884E+02  0.7816164E-02  0.1300439E+00
        -11   -1    0    0    0    0  0.00000000000E+00  0.00000000000E+00  0.45593999997E+02  0.45594000000E+02  0.51100000000E-03 0.  1.
         11   -1    0    0    0    0 -0.00000000000E+00 -0.00000000000E+00 -0.45593999997E+02  0.45594000000E+02  0.51100000000E-03 0. -1.
    9900012    2    1    2    0    0  0.38419645503E+02 -0.13276861049E+02  0.90744754074E+00  0.50528835462E+02  0.29999925869E+02 0.  0.
         12    1    1    2    0    0 -0.38419645503E+02  0.13276861049E+02 -0.90744754074E+00  0.40659164538E+02  0.00000000000E+00 0. -1.
         11    1    3    3    0    0  0.20799015182E+02 -0.25476949623E+01 -0.24256182027E+01  0.21094392764E+02  0.51100000000E-03 0. -1.
        -11    1    3    3    0    0  0.19408201717E+02 -0.83350149059E+01 -0.40164830482E+01  0.21500765189E+02  0.51100000000E-03 0.  1.
         12    1    3    3    0    0 -0.17875713957E+01 -0.23941511804E+01  0.73495487916E+01  0.79336775085E+01  0.00000000000E+00 0. -1.
</event>
<event>
 7    1  0.5479172E-013  0.5052886E+02  0.7816164E-02  0.1300439E+00
        -11   -1    0    0    0    0  0.00000000000E+00  0.00000000000E+00  0.45593999997E+02  0.45594000000E+02  0.51100000000E-03 0.  1.
         11   -1    0    0    0    0 -0.00000000000E+00 -0.00000000000E+00 -0.45593999997E+02  0.45594000000E+02  0.51100000000E-03 0. -1.
    9900012    2    1    2    0    0 -0.17571097690E+02 -0.48343171074E+01  0.36346273557E+02  0.50528859608E+02  0.29999999264E+02 0.  0.
         12    1    1    2    0    0  0.17571097690E+02  0.48343171074E+01 -0.36346273557E+02  0.40659140392E+02  0.00000000000E+00 0. -1.
         11    1    3    3    0    0 -0.17542631796E+02 -0.46065406636E+01  0.19394500493E+02  0.26553922438E+02  0.51100000000E-03 0. -1.
        -11    1    3    3    0    0 -0.69920524951E+01 -0.30886378495E+01  0.13876831911E+02  0.15842820015E+02  0.51100000000E-03 0.  1.
         12    1    3    3    0    0  0.69635866009E+01  0.28608614057E+01  0.30749411524E+01  0.81321171550E+01  0.00000000000E+00 0. -1.
</event>
<event>
 7    1  0.5479172E-013  0.5052882E+02  0.7816164E-02  0.1300439E+00
        -11   -1    0    0    0    0  0.00000000000E+00  0.00000000000E+00  0.45593999997E+02  0.45594000000E+02  0.51100000000E-03 0.  1.
         11   -1    0    0    0    0 -0.00000000000E+00 -0.00000000000E+00 -0.45593999997E+02  0.45594000000E+02  0.51100000000E-03 0. -1.
    9900012    2    1    2    0    0 -0.93062741083E+01 -0.21189379261E+02  0.33430107939E+02  0.50528823323E+02  0.29999888973E+02 0.  0.
         12    1    1    2    0    0  0.93062741083E+01  0.21189379261E+02 -0.33430107939E+02  0.40659176677E+02  0.00000000000E+00 0. -1.
         11    1    3    3    0    0 -0.16451423702E+02 -0.70842722058E+01  0.15561007954E+02  0.23727225361E+02  0.51100000000E-03 0. -1.
        -11    1    3    3    0    0 -0.26706207506E+01 -0.16148316190E+01  0.66733750603E+01  0.73670775282E+01  0.51100000000E-03 0.  1.
        -12    1    3    3    0    0  0.98157703444E+01 -0.12490275436E+02  0.11195724924E+02  0.19434520434E+02  0.00000000000E+00 0.  1.
</event>
<event>
 7    1  0.5479172E-013  0.5052887E+02  0.7816164E-02  0.1300439E+00
        -11   -1    0    0    0    0  0.00000000000E+00  0.00000000000E+00  0.45593999997E+02  0.45594000000E+02  0.51100000000E-03 0. -1.
         11   -1    0    0    0    0 -0.00000000000E+00 -0.00000000000E+00 -0.45593999997E+02  0.45594000000E+02  0.51100000000E-03 0.  1.
    9900012    2    1    2    0    0 -0.25954202929E+02 -0.30131036123E+02 -0.84654879705E+01  0.50528874651E+02  0.30000044990E+02 0.  0.
         12    1    1    2    0    0  0.25954202929E+02  0.30131036123E+02  0.84654879705E+01  0.40659125349E+02  0.00000000000E+00 0. -1.
         11    1    3    3    0    0  0.32834490719E+01 -0.98829898751E+01 -0.68664562153E+01  0.12474083048E+02  0.51100000000E-03 0. -1.
        -11    1    3    3    0    0 -0.10703453398E+02 -0.31340585904E+01  0.46209122571E+01  0.12072243712E+02  0.51100000000E-03 0.  1.
        -12    1    3    3    0    0 -0.18534198603E+02 -0.17113987657E+02 -0.62199440123E+01  0.25982547891E+02  0.00000000000E+00 0.  1.
</event>
<event>
 7    1  0.5479172E-013  0.5052886E+02  0.7816164E-02  0.1300439E+00
        -11   -1    0    0    0    0  0.00000000000E+00  0.00000000000E+00  0.45593999997E+02  0.45594000000E+02  0.51100000000E-03 0. -1.
         11   -1    0    0    0    0 -0.00000000000E+00 -0.00000000000E+00 -0.45593999997E+02  0.45594000000E+02  0.51100000000E-03 0.  1.
    9900012    2    1    2    0    0 -0.30188385672E+02  0.18271136600E+02 -0.20198824531E+02  0.50528861119E+02  0.30000003856E+02 0.  0.
         12    1    1    2    0    0  0.30188385672E+02 -0.18271136600E+02  0.20198824531E+02  0.40659138881E+02  0.00000000000E+00 0. -1.
         11    1    3    3    0    0 -0.40041163400E+01 -0.50573310171E+01  0.15135462125E+00  0.64523215328E+01  0.51100000000E-03 0. -1.
        -11    1    3    3    0    0 -0.21097002181E+02  0.73722537880E+01 -0.11846540771E+02  0.25293757243E+02  0.51100000000E-03 0.  1.
         12    1    3    3    0    0 -0.50872671508E+01  0.15956213830E+02 -0.85036383811E+01  0.18782782343E+02  0.00000000000E+00 0. -1.
</event>
<event>
 7    1  0.5479172E-013  0.5052883E+02  0.7816164E-02  0.1300439E+00
        -11   -1    0    0    0    0  0.00000000000E+00  0.00000000000E+00  0.45593999997E+02  0.45594000000E+02  0.51100000000E-03 0.  1.
         11   -1    0    0    0    0 -0.00000000000E+00 -0.00000000000E+00 -0.45593999997E+02  0.45594000000E+02  0.51100000000E-03 0. -1.
    9900012    2    1    2    0    0  0.25660850808E+02 -0.29098405342E+02  0.12164376083E+02  0.50528825105E+02  0.29999894390E+02 0.  0.
         12    1    1    2    0    0 -0.25660850808E+02  0.29098405342E+02 -0.12164376083E+02  0.40659174895E+02  0.00000000000E+00 0. -1.
         11    1    3    3    0    0 -0.42391819948E+01 -0.36672632213E+01  0.10568987972E+01  0.57040791411E+01  0.51100000000E-03 0. -1.
        -11    1    3    3    0    0  0.15692928494E+02 -0.22685508433E+02  0.18490897539E+01  0.27646327618E+02  0.51100000000E-03 0.  1.
        -12    1    3    3    0    0  0.14207104309E+02 -0.27456336873E+01  0.92583875316E+01  0.17178418346E+02  0.00000000000E+00 0.  1.
</event>
<event>
 7    1  0.5479172E-013  0.5052886E+02  0.7816164E-02  0.1300439E+00
        -11   -1    0    0    0    0  0.00000000000E+00  0.00000000000E+00  0.45593999997E+02  0.45594000000E+02  0.51100000000E-03 0.  1.
         11   -1    0    0    0    0 -0.00000000000E+00 -0.00000000000E+00 -0.45593999997E+02  0.45594000000E+02  0.51100000000E-03 0. -1.
    9900012    2    1    2    0    0 -0.97026937518E+01  0.25220335949E+02  0.30380223522E+02  0.50528860896E+02  0.30000003180E+02 0.  0.
         12    1    1    2    0    0  0.97026937518E+01 -0.25220335949E+02 -0.30380223522E+02  0.40659139104E+02  0.00000000000E+00 0. -1.
         11    1    3    3    0    0 -0.40921068682E+01 -0.95613274365E+00  0.63395988107E+01  0.76059214949E+01  0.51100000000E-03 0. -1.
        -11    1    3    3    0    0 -0.10677645285E+02  0.10735402113E+02  0.21764245644E+02  0.26513078963E+02  0.51100000000E-03 0.  1.
         12    1    3    3    0    0  0.50670584019E+01  0.15441066579E+02  0.22763790671E+01  0.16409860438E+02  0.00000000000E+00 0. -1.
</event>
<event>
 7    1  0.5479172E-013  0.5052886E+02  0.7816164E-02  0.1300439E+00
        -11   -1    0    0    0    0  0.00000000000E+00  0.00000000000E+00  0.45593999997E+02  0.45594000000E+02  0.51100000000E-03 0.  1.
         11   -1    0    0    0    0 -0.00000000000E+00 -0.00000000000E+00 -0.45593999997E+02  0.45594000000E+02  0.51100000000E-03 0. -1.
    9900012    2    1    2    0    0  0.36257880074E+02 -0.16861708375E+01  0.18321796919E+02  0.50528864718E+02  0.30000014797E+02 0.  0.
         12    1    1    2    0    0 -0.36257880074E+02  0.16861708375E+01 -0.18321796919E+02  0.40659135282E+02  0.00000000000E+00 0. -1.
         11    1    3    3    0    0  0.68985830555E+01 -0.92649611742E+01 -0.19461596466E+01  0.11713986997E+02  0.51100000000E-03 0. -1.
        -11    1    3    3    0    0  0.24908730034E+01 -0.30417725362E+01  0.90268633602E+00  0.40338159803E+01  0.51100000000E-03 0.  1.
        -12    1    3    3    0    0  0.26868424015E+02  0.10620562873E+02  0.19365270229E+02  0.34781061741E+02  0.00000000000E+00 0.  1.
</event>
<event>
 7    1  0.5479172E-013  0.5052886E+02  0.7816164E-02  0.1300439E+00
        -11   -1    0    0    0    0  0.00000000000E+00  0.00000000000E+00  0.45593999997E+02  0.45594000000E+02  0.51100000000E-03 0.  1.
         11   -1    0    0    0    0 -0.00000000000E+00 -0.00000000000E+00 -0.45593999997E+02  0.45594000000E+02  0.51100000000E-03 0. -1.
    9900012    2    1    2    0    0 -0.33257415951E+02 -0.55281371130E+01  0.22727729330E+02  0.50528859623E+02  0.29999999311E+02 0.  0.
         12    1    1    2    0    0  0.33257415951E+02  0.55281371130E+01 -0.22727729330E+02  0.40659140377E+02  0.00000000000E+00 0. -1.
         11    1    3    3    0    0 -0.66243781998E+01 -0.85208982147E+01 -0.16359968216E+01  0.10916252964E+02  0.51100000000E-03 0. -1.
        -11    1    3    3    0    0 -0.30970397239E+01 -0.17266712611E+00 -0.23335102049E+01  0.38815897678E+01  0.51100000000E-03 0.  1.
         12    1    3    3    0    0 -0.23535998027E+02  0.31654282278E+01  0.26697236356E+02  0.35731016891E+02  0.00000000000E+00 0. -1.
</event>
<event>
 7    1  0.5479172E-013  0.5052885E+02  0.7816164E-02  0.1300439E+00
        -11   -1    0    0    0    0  0.00000000000E+00  0.00000000000E+00  0.45593999997E+02  0.45594000000E+02  0.51100000000E-03 0.  1.
         11   -1    0    0    0    0 -0.00000000000E+00 -0.00000000000E+00 -0.45593999997E+02  0.45594000000E+02  0.51100000000E-03 0. -1.
    9900012    2    1    2    0    0  0.82687145497E+01  0.38281891726E+02 -0.10922070620E+02  0.50528849726E+02  0.29999969226E+02 0.  0.
         12    1    1    2    0    0 -0.82687145497E+01 -0.38281891726E+02  0.10922070620E+02  0.40659150274E+02  0.00000000000E+00 0. -1.
         11    1    3    3    0    0  0.72798248343E+01  0.86760618693E+01  0.50555827728E+01  0.12402774553E+02  0.51100000000E-03 0. -1.
        -11    1    3    3    0    0  0.94558605097E+01  0.16350714472E+02 -0.87006107776E+01  0.20795667575E+02  0.51100000000E-03 0.  1.
         12    1    3    3    0    0 -0.84669707943E+01  0.13255115384E+02 -0.72770426148E+01  0.17330407598E+02  0.00000000000E+00 0. -1.
</event>
<event>
 7    1  0.5479172E-013  0.5052886E+02  0.7816164E-02  0.1300439E+00
        -11   -1    0    0    0    0  0.00000000000E+00  0.00000000000E+00  0.45593999997E+02  0.45594000000E+02  0.51100000000E-03 0.  1.
         11   -1    0    0    0    0 -0.00000000000E+00 -0.00000000000E+00 -0.45593999997E+02  0.45594000000E+02  0.51100000000E-03 0. -1.
    9900012    2    1    2    0    0  0.28214265418E+02  0.20964423022E+02  0.20435610009E+02  0.50528856353E+02  0.29999989370E+02 0.  0.
         12    1    1    2    0    0 -0.28214265418E+02 -0.20964423022E+02 -0.20435610009E+02  0.40659143647E+02  0.00000000000E+00 0. -1.
         11    1    3    3    0    0  0.69178126570E+00  0.95378708982E+00  0.43790163113E+01  0.45347607708E+01  0.51100000000E-03 0. -1.
        -11    1    3    3    0    0 -0.30088648342E+01  0.47902619374E+01 -0.35187639283E+01  0.66619499296E+01  0.51100000000E-03 0.  1.
        -12    1    3    3    0    0  0.30531348986E+02  0.15220373994E+02  0.19575357626E+02  0.39332145652E+02  0.00000000000E+00 0.  1.
</event>
<event>
 7    1  0.5479172E-013  0.5052890E+02  0.7816164E-02  0.1300439E+00
        -11   -1    0    0    0    0  0.00000000000E+00  0.00000000000E+00  0.45593999997E+02  0.45594000000E+02  0.51100000000E-03 0. -1.
         11   -1    0    0    0    0 -0.00000000000E+00 -0.00000000000E+00 -0.45593999997E+02  0.45594000000E+02  0.51100000000E-03 0.  1.
    9900012    2    1    2    0    0 -0.16761145798E+00 -0.38466469167E+01 -0.40476382392E+02  0.50528901171E+02  0.30000125598E+02 0.  0.
         12    1    1    2    0    0  0.16761145798E+00  0.38466469167E+01  0.40476382392E+02  0.40659098829E+02  0.00000000000E+00 0. -1.
         11    1    3    3    0    0  0.50608338474E+01 -0.39697114952E+01 -0.12818288802E+02  0.14341519329E+02  0.51100000000E-03 0. -1.
        -11    1    3    3    0    0  0.84537756651E+01 -0.35264148690E+01 -0.10226350450E+02  0.13728807982E+02  0.51100000000E-03 0.  1.
         12    1    3    3    0    0 -0.13682220970E+02  0.36494794475E+01 -0.17431743139E+02  0.22458573859E+02  0.00000000000E+00 0. -1.
</event>
<event>
 7    1  0.5479172E-013  0.5052886E+02  0.7816164E-02  0.1300439E+00
        -11   -1    0    0    0    0  0.00000000000E+00  0.00000000000E+00  0.45593999997E+02  0.45594000000E+02  0.51100000000E-03 0. -1.
         11   -1    0    0    0    0 -0.00000000000E+00 -0.00000000000E+00 -0.45593999997E+02  0.45594000000E+02  0.51100000000E-03 0.  1.
    9900012    2    1    2    0    0  0.55097184357E+01  0.35400527584E+02 -0.19225283029E+02  0.50528857633E+02  0.29999993261E+02 0.  0.
         12    1    1    2    0    0 -0.55097184357E+01 -0.35400527584E+02  0.19225283029E+02  0.40659142367E+02  0.00000000000E+00 0. -1.
         11    1    3    3    0    0  0.73077021452E+01  0.32597410175E+01 -0.13511991605E+02  0.15703577285E+02  0.51100000000E-03 0. -1.
        -11    1    3    3    0    0  0.76966738094E+00  0.92107060243E+01 -0.71820554609E+01  0.11705187493E+02  0.51100000000E-03 0.  1.
         12    1    3    3    0    0 -0.25676510904E+01  0.22930080542E+02  0.14687640371E+01  0.23120092855E+02  0.00000000000E+00 0. -1.
</event>
<event>
 7    1  0.5479172E-013  0.5052887E+02  0.7816164E-02  0.1300439E+00
        -11   -1    0    0    0    0  0.00000000000E+00  0.00000000000E+00  0.45593999997E+02  0.45594000000E+02  0.51100000000E-03 0. -1.
         11   -1    0    0    0    0 -0.00000000000E+00 -0.00000000000E+00 -0.45593999997E+02  0.45594000000E+02  0.51100000000E-03 0.  1.
    9900012    2    1    2    0    0  0.38536957216E+02 -0.92837651962E+00 -0.12930818672E+02  0.50528867865E+02  0.30000024363E+02 0.  0.
         12    1    1    2    0    0 -0.38536957216E+02  0.92837651962E+00  0.12930818672E+02  0.40659132135E+02  0.00000000000E+00 0. -1.
         11    1    3    3    0    0  0.12879441074E+01 -0.20063540264E+01  0.43984084752E+01  0.50030244732E+01  0.51100000000E-03 0. -1.
        -11    1    3    3    0    0  0.23097604388E+02  0.11315352317E+00  0.43693281383E-01  0.23097922884E+02  0.51100000000E-03 0.  1.
        -12    1    3    3    0    0  0.14151408720E+02  0.96482398362E+00 -0.17372920429E+02  0.22427920508E+02  0.00000000000E+00 0.  1.
</event>
<event>
 7    1  0.5479172E-013  0.5052881E+02  0.7816164E-02  0.1300439E+00
        -11   -1    0    0    0    0  0.00000000000E+00  0.00000000000E+00  0.45593999997E+02  0.45594000000E+02  0.51100000000E-03 0. -1.
         11   -1    0    0    0    0 -0.00000000000E+00 -0.00000000000E+00 -0.45593999997E+02  0.45594000000E+02  0.51100000000E-03 0.  1.
    9900012    2    1    2    0    0  0.67905034805E+01 -0.36981922307E+02 -0.15472445079E+02  0.50528805815E+02  0.29999835755E+02 0.  0.
         12    1    1    2    0    0 -0.67905034805E+01  0.36981922307E+02  0.15472445079E+02  0.40659194185E+02  0.00000000000E+00 0. -1.
         11    1    3    3    0    0  0.26206988281E+01  0.39172153441E+01 -0.12083004966E+01  0.48654525741E+01  0.51100000000E-03 0. -1.
        -11    1    3    3    0    0  0.24782586985E+01 -0.42563483723E+01 -0.65230151010E+01  0.81736157184E+01  0.51100000000E-03 0.  1.
        -12    1    3    3    0    0  0.16915459540E+01 -0.36642789279E+02 -0.77411294810E+01  0.37489737522E+02  0.00000000000E+00 0.  1.
</event>
<event>
 7    1  0.5479172E-013  0.5052886E+02  0.7816164E-02  0.1300439E+00
        -11   -1    0    0    0    0  0.00000000000E+00  0.00000000000E+00  0.45593999997E+02  0.45594000000E+02  0.51100000000E-03 0.  1.
         11   -1    0    0    0    0 -0.00000000000E+00 -0.00000000000E+00 -0.45593999997E+02  0.45594000000E+02  0.51100000000E-03 0. -1.
    9900012    2    1    2    0    0  0.73152130990E+01  0.18095350485E+02  0.35668074949E+02  0.50528860530E+02  0.30000002068E+02 0.  0.
         12    1    1    2    0    0 -0.73152130990E+01 -0.18095350485E+02 -0.35668074949E+02  0.40659139470E+02  0.00000000000E+00 0. -1.
         11    1    3    3    0    0 -0.21788750540E+01 -0.57502210961E-01  0.83890454975E+01  0.86675768023E+01  0.51100000000E-03 0. -1.
        -11    1    3    3    0    0 -0.80218720346E+01  0.33540353239E+01  0.58769084785E+01  0.10494667094E+02  0.51100000000E-03 0.  1.
        -12    1    3    3    0    0  0.17515960188E+02  0.14798817372E+02  0.21402120973E+02  0.31366616634E+02  0.00000000000E+00 0.  1.
</event>
<event>
 7    1  0.5479172E-013  0.5052885E+02  0.7816164E-02  0.1300439E+00
        -11   -1    0    0    0    0  0.00000000000E+00  0.00000000000E+00  0.45593999997E+02  0.45594000000E+02  0.51100000000E-03 0.  1.
         11   -1    0    0    0    0 -0.00000000000E+00 -0.00000000000E+00 -0.45593999997E+02  0.45594000000E+02  0.51100000000E-03 0. -1.
    9900012    2    1    2    0    0 -0.18069928104E+02  0.15625345711E+02  0.32901258631E+02  0.50528849126E+02  0.29999967404E+02 0.  0.
         12    1    1    2    0    0  0.18069928104E+02 -0.15625345711E+02 -0.32901258631E+02  0.40659150874E+02  0.00000000000E+00 0. -1.
         11    1    3    3    0    0 -0.54831025342E+01  0.12991157764E+02  0.14627667011E+02  0.20317559791E+02  0.51100000000E-03 0.  1.
        -11    1    3    3    0    0 -0.11412711659E+02 -0.37640042430E+01  0.20131999138E+02  0.23446004028E+02  0.51100000000E-03 0. -1.
         12    1    3    3    0    0 -0.11741139110E+01  0.63981921904E+01 -0.18584075174E+01  0.67652853068E+01  0.00000000000E+00 0. -1.
</event>
<event>
 7    1  0.5479172E-013  0.5052887E+02  0.7816164E-02  0.1300439E+00
        -11   -1    0    0    0    0  0.00000000000E+00  0.00000000000E+00  0.45593999997E+02  0.45594000000E+02  0.51100000000E-03 0. -1.
         11   -1    0    0    0    0 -0.00000000000E+00 -0.00000000000E+00 -0.45593999997E+02  0.45594000000E+02  0.51100000000E-03 0.  1.
    9900012    2    1    2    0    0  0.33082491461E+02  0.24602954498E+01 -0.23508740300E+02  0.50528866149E+02  0.30000019148E+02 0.  0.
         12    1    1    2    0    0 -0.33082491461E+02 -0.24602954498E+01  0.23508740300E+02  0.40659133851E+02  0.00000000000E+00 0. -1.
         11    1    3    3    0    0  0.14459982999E+02 -0.28684815071E+01 -0.15800654671E+02  0.21609719637E+02  0.51100000000E-03 0. -1.
        -11    1    3    3    0    0  0.65051360317E+01  0.39566734413E+01 -0.13438112848E+02  0.15445223750E+02  0.51100000000E-03 0.  1.
         12    1    3    3    0    0  0.12117372431E+02  0.13721035156E+01  0.57300272191E+01  0.13473922763E+02  0.00000000000E+00 0. -1.
</event>
<event>
 7    1  0.5479172E-013  0.5052885E+02  0.7816164E-02  0.1300439E+00
        -11   -1    0    0    0    0  0.00000000000E+00  0.00000000000E+00  0.45593999997E+02  0.45594000000E+02  0.51100000000E-03 0.  1.
         11   -1    0    0    0    0 -0.00000000000E+00 -0.00000000000E+00 -0.45593999997E+02  0.45594000000E+02  0.51100000000E-03 0. -1.
    9900012    2    1    2    0    0 -0.32558731809E+02  0.17068500620E+02  0.17371285225E+02  0.50528852434E+02  0.29999977458E+02 0.  0.
         12    1    1    2    0    0  0.32558731809E+02 -0.17068500620E+02 -0.17371285225E+02  0.40659147566E+02  0.00000000000E+00 0. -1.
         11    1    3    3    0    0 -0.32160998559E+01  0.16270067473E+00 -0.16558882507E+01  0.36210131114E+01  0.51100000000E-03 0. -1.
        -11    1    3    3    0    0  0.19824260635E+00  0.12792465597E+02  0.34099035274E+01  0.13240616244E+02  0.51100000000E-03 0.  1.
        -12    1    3    3    0    0 -0.29540874560E+02  0.41133343479E+01  0.15617269948E+02  0.33667223079E+02  0.00000000000E+00 0.  1.
</event>
<event>
 7    1  0.5479172E-013  0.5052886E+02  0.7816164E-02  0.1300439E+00
        -11   -1    0    0    0    0  0.00000000000E+00  0.00000000000E+00  0.45593999997E+02  0.45594000000E+02  0.51100000000E-03 0.  1.
         11   -1    0    0    0    0 -0.00000000000E+00 -0.00000000000E+00 -0.45593999997E+02  0.45594000000E+02  0.51100000000E-03 0. -1.
    9900012    2    1    2    0    0 -0.15145961445E+02  0.24690484276E+02  0.28533241992E+02  0.50528855143E+02  0.29999985694E+02 0.  0.
         12    1    1    2    0    0  0.15145961445E+02 -0.24690484276E+02 -0.28533241992E+02  0.40659144857E+02  0.00000000000E+00 0. -1.
         11    1    3    3    0    0 -0.25471883348E+01  0.12651563673E+02  0.91479390113E+01  0.15818818546E+02  0.51100000000E-03 0. -1.
        -11    1    3    3    0    0 -0.13424490907E+01  0.15714511695E+02  0.60915049815E+01  0.16907231606E+02  0.51100000000E-03 0.  1.
        -12    1    3    3    0    0 -0.11256324020E+02 -0.36755910919E+01  0.13293797999E+02  0.17802804991E+02  0.00000000000E+00 0.  1.
</event>
<event>
 7    1  0.5479172E-013  0.5052885E+02  0.7816164E-02  0.1300439E+00
        -11   -1    0    0    0    0  0.00000000000E+00  0.00000000000E+00  0.45593999997E+02  0.45594000000E+02  0.51100000000E-03 0.  1.
         11   -1    0    0    0    0 -0.00000000000E+00 -0.00000000000E+00 -0.45593999997E+02  0.45594000000E+02  0.51100000000E-03 0. -1.
    9900012    2    1    2    0    0 -0.11980624619E+02 -0.12280038978E+02  0.36862335882E+02  0.50528849366E+02  0.29999968133E+02 0.  0.
         12    1    1    2    0    0  0.11980624619E+02  0.12280038978E+02 -0.36862335882E+02  0.40659150634E+02  0.00000000000E+00 0. -1.
         11    1    3    3    0    0 -0.83986164515E+01 -0.14595055605E+02  0.27223383399E+02  0.32010389101E+02  0.51100000000E-03 0. -1.
        -11    1    3    3    0    0 -0.69335325667E+00 -0.36091389547E+01  0.11164052677E+02  0.11753412065E+02  0.51100000000E-03 0.  1.
         12    1    3    3    0    0 -0.28886549107E+01  0.59241555817E+01 -0.15251001942E+01  0.67650482002E+01  0.00000000000E+00 0. -1.
</event>
<event>
 7    1  0.6173531E-013  0.5052885E+02  0.7816164E-02  0.1300439E+00
        -11   -1    0    0    0    0  0.00000000000E+00  0.00000000000E+00  0.45593999997E+02  0.45594000000E+02  0.51100000000E-03 0. -1.
         11   -1    0    0    0    0 -0.00000000000E+00 -0.00000000000E+00 -0.45593999997E+02  0.45594000000E+02  0.51100000000E-03 0.  1.
    9900012    2    1    2    0    0  0.31490660980E+02  0.27898582106E+01 -0.25567969409E+02  0.50528854688E+02  0.29999984308E+02 0.  0.
         12    1    1    2    0    0 -0.31490660980E+02 -0.27898582106E+01  0.25567969409E+02  0.40659145312E+02  0.00000000000E+00 0. -1.
         11    1    3    3    0    0  0.86602620966E+01 -0.29810164751E+01  0.26026326509E+01  0.95215700272E+01  0.51100000000E-03 0. -1.
        -11    1    3    3    0    0 -0.20132624466E+01  0.43483533831E+01 -0.60041737185E+01  0.76818946313E+01  0.51100000000E-03 0.  1.
        -12    1    3    3    0    0  0.24843661330E+02  0.14225213026E+01 -0.22166428342E+02  0.33325390029E+02  0.00000000000E+00 0.  1.
</event>
<event>
 7    1  0.5479172E-013  0.5052885E+02  0.7816164E-02  0.1300439E+00
        -11   -1    0    0    0    0  0.00000000000E+00  0.00000000000E+00  0.45593999997E+02  0.45594000000E+02  0.51100000000E-03 0.  1.
         11   -1    0    0    0    0 -0.00000000000E+00 -0.00000000000E+00 -0.45593999997E+02  0.45594000000E+02  0.51100000000E-03 0. -1.
    9900012    2    1    2    0    0 -0.13554831876E+02  0.14364584286E+02  0.35540001920E+02  0.50528849918E+02  0.29999969812E+02 0.  0.
         12    1    1    2    0    0  0.13554831876E+02 -0.14364584286E+02 -0.35540001920E+02  0.40659150082E+02  0.00000000000E+00 0. -1.
         11    1    3    3    0    0  0.29284281386E+01  0.28582556422E+01 -0.45883919773E+00  0.41177482134E+01  0.51100000000E-03 0. -1.
        -11    1    3    3    0    0  0.41773019581E+01 -0.13136727150E+01  0.94210511777E+01  0.10389022726E+02  0.51100000000E-03 0.  1.
        -12    1    3    3    0    0 -0.20660561973E+02  0.12820001359E+02  0.26577789940E+02  0.36022078979E+02  0.00000000000E+00 0.  1.
</event>
<event>
 7    1  0.5479172E-013  0.5052880E+02  0.7816164E-02  0.1300439E+00
        -11   -1    0    0    0    0  0.00000000000E+00  0.00000000000E+00  0.45593999997E+02  0.45594000000E+02  0.51100000000E-03 0. -1.
         11   -1    0    0    0    0 -0.00000000000E+00 -0.00000000000E+00 -0.45593999997E+02  0.45594000000E+02  0.51100000000E-03 0.  1.
    9900012    2    1    2    0    0 -0.16449823059E+02 -0.36939128444E+02 -0.42514124706E+01  0.50528801817E+02  0.29999823603E+02 0.  0.
         12    1    1    2    0    0  0.16449823059E+02  0.36939128444E+02  0.42514124706E+01  0.40659198183E+02  0.00000000000E+00 0. -1.
         11    1    3    3    0    0  0.32459303161E+01 -0.55461988737E+01  0.11817149946E+01  0.65339755244E+01  0.51100000000E-03 0. -1.
        -11    1    3    3    0    0  0.45400766942E+01 -0.10906499306E+01 -0.18688614123E+01  0.50293594920E+01  0.51100000000E-03 0.  1.
        -12    1    3    3    0    0 -0.24235830069E+02 -0.30302279640E+02 -0.35642660529E+01  0.38965466801E+02  0.00000000000E+00 0.  1.
</event>
<event>
 7    1  0.5479172E-013  0.5052886E+02  0.7816164E-02  0.1300439E+00
        -11   -1    0    0    0    0  0.00000000000E+00  0.00000000000E+00  0.45593999997E+02  0.45594000000E+02  0.51100000000E-03 0. -1.
         11   -1    0    0    0    0 -0.00000000000E+00 -0.00000000000E+00 -0.45593999997E+02  0.45594000000E+02  0.51100000000E-03 0.  1.
    9900012    2    1    2    0    0 -0.36222810916E+02  0.42281616160E+01  0.17977666718E+02  0.50528857339E+02  0.29999992367E+02 0.  0.
         12    1    1    2    0    0  0.36222810916E+02 -0.42281616160E+01 -0.17977666718E+02  0.40659142661E+02  0.00000000000E+00 0. -1.
         11    1    3    3    0    0  0.13328450620E+01  0.43539726523E+01 -0.46166145295E+01  0.64843414308E+01  0.51100000000E-03 0. -1.
        -11    1    3    3    0    0 -0.21470756343E+01  0.79529231366E+00  0.66169314921E+00  0.23833299663E+01  0.51100000000E-03 0.  1.
         12    1    3    3    0    0 -0.35408580344E+02 -0.92110334994E+00  0.21932588099E+02  0.41661185941E+02  0.00000000000E+00 0. -1.
</event>
<event>
 7    1  0.5479172E-013  0.5052886E+02  0.7816164E-02  0.1300439E+00
        -11   -1    0    0    0    0  0.00000000000E+00  0.00000000000E+00  0.45593999997E+02  0.45594000000E+02  0.51100000000E-03 0.  1.
         11   -1    0    0    0    0 -0.00000000000E+00 -0.00000000000E+00 -0.45593999997E+02  0.45594000000E+02  0.51100000000E-03 0. -1.
    9900012    2    1    2    0    0 -0.21396917337E+02 -0.21729574789E+02  0.26891695755E+02  0.50528858437E+02  0.29999995706E+02 0.  0.
         12    1    1    2    0    0  0.21396917337E+02  0.21729574789E+02 -0.26891695755E+02  0.40659141563E+02  0.00000000000E+00 0. -1.
         11    1    3    3    0    0 -0.87992856405E+01 -0.13478907833E+02  0.81632853013E+01  0.18048479474E+02  0.51100000000E-03 0. -1.
        -11    1    3    3    0    0 -0.11196741020E+02 -0.81476350921E+01  0.14927794873E+00  0.13848221952E+02  0.51100000000E-03 0.  1.
         12    1    3    3    0    0 -0.14008906763E+01 -0.10303186363E+00  0.18579132505E+02  0.18632157011E+02  0.00000000000E+00 0. -1.
</event>
<event>
 7    1  0.5479172E-013  0.5052887E+02  0.7816164E-02  0.1300439E+00
        -11   -1    0    0    0    0  0.00000000000E+00  0.00000000000E+00  0.45593999997E+02  0.45594000000E+02  0.51100000000E-03 0. -1.
         11   -1    0    0    0    0 -0.00000000000E+00 -0.00000000000E+00 -0.45593999997E+02  0.45594000000E+02  0.51100000000E-03 0.  1.
    9900012    2    1    2    0    0 -0.16395563527E+02  0.35731132923E+02  0.10374781265E+02  0.50528874952E+02  0.30000045905E+02 0.  0.
         12    1    1    2    0    0  0.16395563527E+02 -0.35731132923E+02 -0.10374781265E+02  0.40659125048E+02  0.00000000000E+00 0. -1.
         11    1    3    3    0    0 -0.69093251656E+01  0.15845720050E+02  0.81508027989E+01  0.19111807991E+02  0.51100000000E-03 0.  1.
        -11    1    3    3    0    0 -0.18994086431E+01  0.13412475503E+02 -0.91065307131E+01  0.16322718959E+02  0.51100000000E-03 0. -1.
         12    1    3    3    0    0 -0.75868297179E+01  0.64729373697E+01  0.11330509179E+02  0.15094348002E+02  0.00000000000E+00 0. -1.
</event>
<event>
 7    1  0.5479172E-013  0.5052886E+02  0.7816164E-02  0.1300439E+00
        -11   -1    0    0    0    0  0.00000000000E+00  0.00000000000E+00  0.45593999997E+02  0.45594000000E+02  0.51100000000E-03 0. -1.
         11   -1    0    0    0    0 -0.00000000000E+00 -0.00000000000E+00 -0.45593999997E+02  0.45594000000E+02  0.51100000000E-03 0.  1.
    9900012    2    1    2    0    0 -0.21152317525E+02  0.14259250010E+02 -0.31660996587E+02  0.50528862620E+02  0.30000008421E+02 0.  0.
         12    1    1    2    0    0  0.21152317525E+02 -0.14259250010E+02  0.31660996587E+02  0.40659137380E+02  0.00000000000E+00 0. -1.
         11    1    3    3    0    0 -0.12380505144E+02  0.35230986168E+00 -0.75266061289E+01  0.14493130439E+02  0.51100000000E-03 0.  1.
        -11    1    3    3    0    0 -0.10545726979E+02  0.18716529693E+02 -0.17889712108E+02  0.27956441849E+02  0.51100000000E-03 0. -1.
         12    1    3    3    0    0  0.17739145977E+01 -0.48095895440E+01 -0.62446783502E+01  0.80792903327E+01  0.00000000000E+00 0. -1.
</event>
<event>
 7    1  0.5479172E-013  0.5052885E+02  0.7816164E-02  0.1300439E+00
        -11   -1    0    0    0    0  0.00000000000E+00  0.00000000000E+00  0.45593999997E+02  0.45594000000E+02  0.51100000000E-03 0.  1.
         11   -1    0    0    0    0 -0.00000000000E+00 -0.00000000000E+00 -0.45593999997E+02  0.45594000000E+02  0.51100000000E-03 0. -1.
    9900012    2    1    2    0    0 -0.35029206541E+02 -0.19465163051E+02  0.68722955619E+01  0.50528851832E+02  0.29999975628E+02 0.  0.
         12    1    1    2    0    0  0.35029206541E+02  0.19465163051E+02 -0.68722955619E+01  0.40659148168E+02  0.00000000000E+00 0. -1.
         11    1    3    3    0    0 -0.93999007968E+01  0.28322723662E+01 -0.52885919956E+01  0.11151193089E+02  0.51100000000E-03 0. -1.
        -11    1    3    3    0    0 -0.80733122258E+01 -0.60465749504E+00  0.75930804756E+01  0.11099497842E+02  0.51100000000E-03 0.  1.
        -12    1    3    3    0    0 -0.17555993518E+02 -0.21692777922E+02  0.45678070818E+01  0.28278160901E+02  0.00000000000E+00 0.  1.
</event>
<event>
 7    1  0.5479172E-013  0.5052886E+02  0.7816164E-02  0.1300439E+00
        -11   -1    0    0    0    0  0.00000000000E+00  0.00000000000E+00  0.45593999997E+02  0.45594000000E+02  0.51100000000E-03 0. -1.
         11   -1    0    0    0    0 -0.00000000000E+00 -0.00000000000E+00 -0.45593999997E+02  0.45594000000E+02  0.51100000000E-03 0.  1.
    9900012    2    1    2    0    0 -0.32048209096E+02 -0.13865219140E+02 -0.20828667247E+02  0.50528863420E+02  0.30000010852E+02 0.  0.
         12    1    1    2    0    0  0.32048209096E+02  0.13865219140E+02  0.20828667247E+02  0.40659136580E+02  0.00000000000E+00 0. -1.
         11    1    3    3    0    0 -0.20287567604E+02 -0.10233200152E+01 -0.10763023378E+02  0.22988589683E+02  0.51100000000E-03 0. -1.
        -11    1    3    3    0    0 -0.15360517558E+02 -0.58324500662E+01 -0.25059617648E+01  0.16620554083E+02  0.51100000000E-03 0.  1.
        -12    1    3    3    0    0  0.35998760648E+01 -0.70094490589E+01 -0.75596821045E+01  0.10919719654E+02  0.00000000000E+00 0.  1.
</event>
<event>
 7    1  0.5479172E-013  0.5052886E+02  0.7816164E-02  0.1300439E+00
        -11   -1    0    0    0    0  0.00000000000E+00  0.00000000000E+00  0.45593999997E+02  0.45594000000E+02  0.51100000000E-03 0.  1.
         11   -1    0    0    0    0 -0.00000000000E+00 -0.00000000000E+00 -0.45593999997E+02  0.45594000000E+02  0.51100000000E-03 0. -1.
    9900012    2    1    2    0    0  0.31072970674E+02 -0.19518361316E+02  0.17511991001E+02  0.50528858792E+02  0.29999996784E+02 0.  0.
         12    1    1    2    0    0 -0.31072970674E+02  0.19518361316E+02 -0.17511991001E+02  0.40659141208E+02  0.00000000000E+00 0. -1.
         11    1    3    3    0    0  0.90688899511E+00 -0.15339507461E+01 -0.13398293999E+01  0.22294832636E+01  0.51100000000E-03 0. -1.
        -11    1    3    3    0    0  0.16052635674E+02 -0.19231090982E+02  0.42343355717E+00  0.25053967125E+02  0.51100000000E-03 0.  1.
         12    1    3    3    0    0  0.14113446006E+02  0.12466804127E+01  0.18428386843E+02  0.23245408404E+02  0.00000000000E+00 0. -1.
</event>
<event>
 7    1  0.5479172E-013  0.5052886E+02  0.7816164E-02  0.1300439E+00
        -11   -1    0    0    0    0  0.00000000000E+00  0.00000000000E+00  0.45593999997E+02  0.45594000000E+02  0.51100000000E-03 0.  1.
         11   -1    0    0    0    0 -0.00000000000E+00 -0.00000000000E+00 -0.45593999997E+02  0.45594000000E+02  0.51100000000E-03 0. -1.
    9900012    2    1    2    0    0  0.49919820130E+01  0.24941437964E+02  0.31720189587E+02  0.50528860319E+02  0.30000001425E+02 0.  0.
         12    1    1    2    0    0 -0.49919820130E+01 -0.24941437964E+02 -0.31720189587E+02  0.40659139681E+02  0.00000000000E+00 0. -1.
         11    1    3    3    0    0  0.85176743944E+01  0.10981129228E+02  0.10023139260E+02  0.17134739481E+02  0.51100000000E-03 0. -1.
        -11    1    3    3    0    0  0.41712635477E+01 -0.38294151173E+01  0.27742973816E+01  0.63055995708E+01  0.51100000000E-03 0.  1.
         12    1    3    3    0    0 -0.76969559291E+01  0.17789723854E+02  0.18922752945E+02  0.27088521267E+02  0.00000000000E+00 0. -1.
</event>
<event>
 7    1  0.5479172E-013  0.5052886E+02  0.7816164E-02  0.1300439E+00
        -11   -1    0    0    0    0  0.00000000000E+00  0.00000000000E+00  0.45593999997E+02  0.45594000000E+02  0.51100000000E-03 0.  1.
         11   -1    0    0    0    0 -0.00000000000E+00 -0.00000000000E+00 -0.45593999997E+02  0.45594000000E+02  0.51100000000E-03 0. -1.
    9900012    2    1    2    0    0  0.11679385018E+02  0.13112731192E+02  0.36671702242E+02  0.50528862047E+02  0.30000006679E+02 0.  0.
         12    1    1    2    0    0 -0.11679385018E+02 -0.13112731192E+02 -0.36671702242E+02  0.40659137953E+02  0.00000000000E+00 0. -1.
         11    1    3    3    0    0 -0.63771125388E+00  0.14928600150E+02  0.16021546845E+02  0.21907983514E+02  0.51100000000E-03 0. -1.
        -11    1    3    3    0    0  0.15009777327E+01  0.49623653840E+01  0.12352693895E+02  0.13396531308E+02  0.51100000000E-03 0.  1.
         12    1    3    3    0    0  0.10816118539E+02 -0.67782343423E+01  0.82974615023E+01  0.15224347225E+02  0.00000000000E+00 0. -1.
</event>
<event>
 7    1  0.5479172E-013  0.5052886E+02  0.7816164E-02  0.1300439E+00
        -11   -1    0    0    0    0  0.00000000000E+00  0.00000000000E+00  0.45593999997E+02  0.45594000000E+02  0.51100000000E-03 0. -1.
         11   -1    0    0    0    0 -0.00000000000E+00 -0.00000000000E+00 -0.45593999997E+02  0.45594000000E+02  0.51100000000E-03 0.  1.
    9900012    2    1    2    0    0 -0.41864710185E+01  0.20089604466E+02 -0.35100525236E+02  0.50528860572E+02  0.30000002193E+02 0.  0.
         12    1    1    2    0    0  0.41864710185E+01 -0.20089604466E+02  0.35100525236E+02  0.40659139428E+02  0.00000000000E+00 0. -1.
         11    1    3    3    0    0  0.19350592575E+01 -0.18088899081E+01 -0.10585076959E+02  0.10911479805E+02  0.51100000000E-03 0. -1.
        -11    1    3    3    0    0 -0.24159608279E+01  0.17006018943E+02 -0.27783277955E+02  0.32664232445E+02  0.51100000000E-03 0.  1.
        -12    1    3    3    0    0 -0.37055694481E+01  0.48924754319E+01  0.32678296784E+01  0.69531483224E+01  0.00000000000E+00 0.  1.
</event>
<event>
 7    1  0.5479172E-013  0.5052886E+02  0.7816164E-02  0.1300439E+00
        -11   -1    0    0    0    0  0.00000000000E+00  0.00000000000E+00  0.45593999997E+02  0.45594000000E+02  0.51100000000E-03 0.  1.
         11   -1    0    0    0    0 -0.00000000000E+00 -0.00000000000E+00 -0.45593999997E+02  0.45594000000E+02  0.51100000000E-03 0. -1.
    9900012    2    1    2    0    0 -0.72631966251E+01 -0.22144098930E+02  0.33317416376E+02  0.50528863553E+02  0.30000011255E+02 0.  0.
         12    1    1    2    0    0  0.72631966251E+01  0.22144098930E+02 -0.33317416376E+02  0.40659136447E+02  0.00000000000E+00 0. -1.
         11    1    3    3    0    0 -0.23821717470E+01  0.29124134693E+01  0.51947436980E+01  0.64142230081E+01  0.51100000000E-03 0. -1.
        -11    1    3    3    0    0 -0.91220764814E+01 -0.16752684507E+01  0.35480637677E+01  0.99301339606E+01  0.51100000000E-03 0.  1.
         12    1    3    3    0    0  0.42410516033E+01 -0.23381243949E+02  0.24574608911E+02  0.34184506584E+02  0.00000000000E+00 0. -1.
</event>
<event>
 7    1  0.5479172E-013  0.5052888E+02  0.7816164E-02  0.1300439E+00
        -11   -1    0    0    0    0  0.00000000000E+00  0.00000000000E+00  0.45593999997E+02  0.45594000000E+02  0.51100000000E-03 0.  1.
         11   -1    0    0    0    0 -0.00000000000E+00 -0.00000000000E+00 -0.45593999997E+02  0.45594000000E+02  0.51100000000E-03 0. -1.
    9900012    2    1    2    0    0 -0.32992623411E+02 -0.13196309091E+02  0.19761275321E+02  0.50528883242E+02  0.30000071103E+02 0.  0.
         12    1    1    2    0    0  0.32992623411E+02  0.13196309091E+02 -0.19761275321E+02  0.40659116758E+02  0.00000000000E+00 0. -1.
         11    1    3    3    0    0 -0.12027501310E+02 -0.26324545380E+01  0.20403125857E+02  0.23830194075E+02  0.51100000000E-03 0. -1.
        -11    1    3    3    0    0 -0.11106141344E+01 -0.20072814628E+01  0.39768023700E+01  0.45910347393E+01  0.51100000000E-03 0.  1.
        -12    1    3    3    0    0 -0.19854507967E+02 -0.85565730898E+01 -0.46186529054E+01  0.22107654428E+02  0.00000000000E+00 0.  1.
</event>
<event>
 7    1  0.5479172E-013  0.5052886E+02  0.7816164E-02  0.1300439E+00
        -11   -1    0    0    0    0  0.00000000000E+00  0.00000000000E+00  0.45593999997E+02  0.45594000000E+02  0.51100000000E-03 0. -1.
         11   -1    0    0    0    0 -0.00000000000E+00 -0.00000000000E+00 -0.45593999997E+02  0.45594000000E+02  0.51100000000E-03 0.  1.
    9900012    2    1    2    0    0 -0.40333589217E+02 -0.16209778537E+01 -0.48723166947E+01  0.50528862549E+02  0.30000008203E+02 0.  0.
         12    1    1    2    0    0  0.40333589217E+02  0.16209778537E+01  0.48723166947E+01  0.40659137451E+02  0.00000000000E+00 0. -1.
         11    1    3    3    0    0 -0.37938130011E+01  0.80716338289E+00 -0.18198638032E+01  0.42844409597E+01  0.51100000000E-03 0.  1.
        -11    1    3    3    0    0 -0.14665140548E+02 -0.13321937440E+02 -0.79027297643E+01  0.21330576702E+02  0.51100000000E-03 0. -1.
         12    1    3    3    0    0 -0.21874635668E+02  0.10893796203E+02  0.48502768727E+01  0.24913844887E+02  0.00000000000E+00 0. -1.
</event>
<event>
 7    1  0.5479172E-013  0.5052887E+02  0.7816164E-02  0.1300439E+00
        -11   -1    0    0    0    0  0.00000000000E+00  0.00000000000E+00  0.45593999997E+02  0.45594000000E+02  0.51100000000E-03 0.  1.
         11   -1    0    0    0    0 -0.00000000000E+00 -0.00000000000E+00 -0.45593999997E+02  0.45594000000E+02  0.51100000000E-03 0. -1.
    9900012    2    1    2    0    0 -0.23224507689E+02  0.14929053728E+02  0.29848125353E+02  0.50528868311E+02  0.30000025719E+02 0.  0.
         12    1    1    2    0    0  0.23224507689E+02 -0.14929053728E+02 -0.29848125353E+02  0.40659131689E+02  0.00000000000E+00 0. -1.
         11    1    3    3    0    0 -0.43443746657E+01  0.20322736149E+01  0.46505029582E+00  0.48187134508E+01  0.51100000000E-03 0.  1.
        -11    1    3    3    0    0 -0.18258666406E+02  0.12951744374E+02  0.71955780192E+01  0.23513887908E+02  0.51100000000E-03 0. -1.
        -12    1    3    3    0    0 -0.62146661758E+00 -0.54964261037E-01  0.22187497038E+02  0.22196266953E+02  0.00000000000E+00 0.  1.
</event>
<event>
 7    1  0.5479172E-013  0.5052883E+02  0.7816164E-02  0.1300439E+00
        -11   -1    0    0    0    0  0.00000000000E+00  0.00000000000E+00  0.45593999997E+02  0.45594000000E+02  0.51100000000E-03 0.  1.
         11   -1    0    0    0    0 -0.00000000000E+00 -0.00000000000E+00 -0.45593999997E+02  0.45594000000E+02  0.51100000000E-03 0. -1.
    9900012    2    1    2    0    0 -0.30085180189E+02  0.14152534468E+02  0.23404185363E+02  0.50528828939E+02  0.29999906041E+02 0.  0.
         12    1    1    2    0    0  0.30085180189E+02 -0.14152534468E+02 -0.23404185363E+02  0.40659171061E+02  0.00000000000E+00 0. -1.
         11    1    3    3    0    0 -0.45963759085E+01  0.11278442030E+02  0.13889372431E+02  0.18472806850E+02  0.51100000000E-03 0. -1.
        -11    1    3    3    0    0 -0.86465882184E+01  0.51579849802E+01  0.11099950522E+02  0.14985899997E+02  0.51100000000E-03 0.  1.
        -12    1    3    3    0    0 -0.16842216062E+02 -0.22838925427E+01 -0.15851375897E+01  0.17070122091E+02  0.00000000000E+00 0.  1.
</event>
<event>
 7    1  0.5479172E-013  0.5052886E+02  0.7816164E-02  0.1300439E+00
        -11   -1    0    0    0    0  0.00000000000E+00  0.00000000000E+00  0.45593999997E+02  0.45594000000E+02  0.51100000000E-03 0.  1.
         11   -1    0    0    0    0 -0.00000000000E+00 -0.00000000000E+00 -0.45593999997E+02  0.45594000000E+02  0.51100000000E-03 0. -1.
    9900012    2    1    2    0    0 -0.90345083536E+01 -0.84479370676E+01  0.38732101704E+02  0.50528859769E+02  0.29999999754E+02 0.  0.
         12    1    1    2    0    0  0.90345083536E+01  0.84479370676E+01 -0.38732101704E+02  0.40659140231E+02  0.00000000000E+00 0. -1.
         11    1    3    3    0    0  0.30876387851E+00 -0.10222610838E+02  0.26282485428E+02  0.28202236578E+02  0.51100000000E-03 0. -1.
        -11    1    3    3    0    0 -0.21716223960E+01 -0.68042819442E+01  0.65158033144E+01  0.96679827110E+01  0.51100000000E-03 0.  1.
         12    1    3    3    0    0 -0.71716498361E+01  0.85789557150E+01  0.59338129622E+01  0.12658640480E+02  0.00000000000E+00 0. -1.
</event>
<event>
 7    1  0.5479172E-013  0.5052887E+02  0.7816164E-02  0.1300439E+00
        -11   -1    0    0    0    0  0.00000000000E+00  0.00000000000E+00  0.45593999997E+02  0.45594000000E+02  0.51100000000E-03 0. -1.
         11   -1    0    0    0    0 -0.00000000000E+00 -0.00000000000E+00 -0.45593999997E+02  0.45594000000E+02  0.51100000000E-03 0.  1.
    9900012    2    1    2    0    0  0.59643326018E+01  0.28468736450E+02 -0.28409903999E+02  0.50528869861E+02  0.30000030431E+02 0.  0.
         12    1    1    2    0    0 -0.59643326018E+01 -0.28468736450E+02  0.28409903999E+02  0.40659130139E+02  0.00000000000E+00 0. -1.
         11    1    3    3    0    0  0.82274700075E+00  0.83590294296E+01 -0.52559627978E+01  0.99083515695E+01  0.51100000000E-03 0. -1.
        -11    1    3    3    0    0  0.55786108772E+01  0.21943755126E+02 -0.60814827869E+01  0.23444268415E+02  0.51100000000E-03 0.  1.
        -12    1    3    3    0    0 -0.43702527608E+00 -0.18340481061E+01 -0.17072458414E+02  0.17176249877E+02  0.00000000000E+00 0.  1.
</event>
<event>
 7    1  0.5479172E-013  0.5052886E+02  0.7816164E-02  0.1300439E+00
        -11   -1    0    0    0    0  0.00000000000E+00  0.00000000000E+00  0.45593999997E+02  0.45594000000E+02  0.51100000000E-03 0.  1.
         11   -1    0    0    0    0 -0.00000000000E+00 -0.00000000000E+00 -0.45593999997E+02  0.45594000000E+02  0.51100000000E-03 0. -1.
    9900012    2    1    2    0    0  0.12873013632E+02 -0.16225901213E+02  0.34988161720E+02  0.50528858215E+02  0.29999995030E+02 0.  0.
         12    1    1    2    0    0 -0.12873013632E+02  0.16225901213E+02 -0.34988161720E+02  0.40659141785E+02  0.00000000000E+00 0. -1.
         11    1    3    3    0    0  0.22525837451E+01 -0.96058323427E+01  0.16493929171E+02  0.19219673470E+02  0.51100000000E-03 0. -1.
        -11    1    3    3    0    0  0.85573033135E+01 -0.10985121283E+02  0.21504753288E+02  0.25619421223E+02  0.51100000000E-03 0.  1.
         12    1    3    3    0    0  0.20631265730E+01  0.43650524122E+01 -0.30105207385E+01  0.56897635219E+01  0.00000000000E+00 0. -1.
</event>
<event>
 7    1  0.5479172E-013  0.5052885E+02  0.7816164E-02  0.1300439E+00
        -11   -1    0    0    0    0  0.00000000000E+00  0.00000000000E+00  0.45593999997E+02  0.45594000000E+02  0.51100000000E-03 0. -1.
         11   -1    0    0    0    0 -0.00000000000E+00 -0.00000000000E+00 -0.45593999997E+02  0.45594000000E+02  0.51100000000E-03 0.  1.
    9900012    2    1    2    0    0 -0.33493831197E+02 -0.11532081661E+02 -0.19958473271E+02  0.50528852308E+02  0.29999977077E+02 0.  0.
         12    1    1    2    0    0  0.33493831197E+02  0.11532081661E+02  0.19958473271E+02  0.40659147692E+02  0.00000000000E+00 0. -1.
         11    1    3    3    0    0 -0.16696881368E+02 -0.82762958448E+01 -0.37098024586E+01  0.19001198774E+02  0.51100000000E-03 0. -1.
        -11    1    3    3    0    0 -0.25325257207E+01 -0.10608875212E+02 -0.55261721977E+01  0.12227039675E+02  0.51100000000E-03 0.  1.
         12    1    3    3    0    0 -0.14264424109E+02  0.73530893958E+01 -0.10722498615E+02  0.19300613860E+02  0.00000000000E+00 0. -1.
</event>
<event>
 7    1  0.5479172E-013  0.5052884E+02  0.7816164E-02  0.1300439E+00
        -11   -1    0    0    0    0  0.00000000000E+00  0.00000000000E+00  0.45593999997E+02  0.45594000000E+02  0.51100000000E-03 0. -1.
         11   -1    0    0    0    0 -0.00000000000E+00 -0.00000000000E+00 -0.45593999997E+02  0.45594000000E+02  0.51100000000E-03 0.  1.
    9900012    2    1    2    0    0 -0.19980409557E+02 -0.30107999894E+02 -0.18640244598E+02  0.50528841839E+02  0.29999945253E+02 0.  0.
         12    1    1    2    0    0  0.19980409557E+02  0.30107999894E+02  0.18640244598E+02  0.40659158161E+02  0.00000000000E+00 0. -1.
         11    1    3    3    0    0  0.28045137148E+01 -0.49090234705E+01 -0.15010756701E+01  0.58495330616E+01  0.51100000000E-03 0. -1.
        -11    1    3    3    0    0 -0.34677369127E+01 -0.25601178812E+01  0.57135301952E+01  0.71570825351E+01  0.51100000000E-03 0.  1.
        -12    1    3    3    0    0 -0.19317186359E+02 -0.22638858543E+02 -0.22852699123E+02  0.37522226242E+02  0.00000000000E+00 0.  1.
</event>
<event>
 7    1  0.5479172E-013  0.5052886E+02  0.7816164E-02  0.1300439E+00
        -11   -1    0    0    0    0  0.00000000000E+00  0.00000000000E+00  0.45593999997E+02  0.45594000000E+02  0.51100000000E-03 0.  1.
         11   -1    0    0    0    0 -0.00000000000E+00 -0.00000000000E+00 -0.45593999997E+02  0.45594000000E+02  0.51100000000E-03 0. -1.
    9900012    2    1    2    0    0  0.11645882256E+02  0.15455479632E+02  0.35758461668E+02  0.50528855825E+02  0.29999987767E+02 0.  0.
         12    1    1    2    0    0 -0.11645882256E+02 -0.15455479632E+02 -0.35758461668E+02  0.40659144175E+02  0.00000000000E+00 0. -1.
         11    1    3    3    0    0  0.96568951625E+01 -0.15413441783E+01  0.15591024494E+02  0.18404113972E+02  0.51100000000E-03 0. -1.
        -11    1    3    3    0    0  0.51881734758E+01 -0.20997471614E+01  0.37314290680E+01  0.67267856594E+01  0.51100000000E-03 0.  1.
         12    1    3    3    0    0 -0.31991863827E+01  0.19096570972E+02  0.16436008106E+02  0.25397956194E+02  0.00000000000E+00 0. -1.
</event>
<event>
 7    1  0.5479172E-013  0.5052886E+02  0.7816164E-02  0.1300439E+00
        -11   -1    0    0    0    0  0.00000000000E+00  0.00000000000E+00  0.45593999997E+02  0.45594000000E+02  0.51100000000E-03 0. -1.
         11   -1    0    0    0    0 -0.00000000000E+00 -0.00000000000E+00 -0.45593999997E+02  0.45594000000E+02  0.51100000000E-03 0.  1.
    9900012    2    1    2    0    0 -0.28414786647E+02 -0.20110401836E+02  0.21008036981E+02  0.50528856133E+02  0.29999988702E+02 0.  0.
         12    1    1    2    0    0  0.28414786647E+02  0.20110401836E+02 -0.21008036981E+02  0.40659143867E+02  0.00000000000E+00 0. -1.
         11    1    3    3    0    0 -0.19850102210E+02 -0.10675233132E+02  0.11439669767E+02  0.25275545588E+02  0.51100000000E-03 0. -1.
        -11    1    3    3    0    0 -0.14151104928E+02 -0.48116231371E+01  0.10008807585E+02  0.17988377287E+02  0.51100000000E-03 0.  1.
        -12    1    3    3    0    0  0.55864204910E+01 -0.46235455674E+01 -0.44044037082E+00  0.72649332575E+01  0.00000000000E+00 0.  1.
</event>
<event>
 7    1  0.5479172E-013  0.5052887E+02  0.7816164E-02  0.1300439E+00
        -11   -1    0    0    0    0  0.00000000000E+00  0.00000000000E+00  0.45593999997E+02  0.45594000000E+02  0.51100000000E-03 0.  1.
         11   -1    0    0    0    0 -0.00000000000E+00 -0.00000000000E+00 -0.45593999997E+02  0.45594000000E+02  0.51100000000E-03 0. -1.
    9900012    2    1    2    0    0 -0.16490882862E+02  0.30761652942E+02  0.20855134804E+02  0.50528866254E+02  0.30000019465E+02 0.  0.
         12    1    1    2    0    0  0.16490882862E+02 -0.30761652942E+02 -0.20855134804E+02  0.40659133746E+02  0.00000000000E+00 0. -1.
         11    1    3    3    0    0 -0.79092514908E+00  0.19167041781E+01 -0.17913355010E+01  0.27401096030E+01  0.51100000000E-03 0. -1.
        -11    1    3    3    0    0 -0.51084184269E+01  0.30234862942E+01 -0.55420889912E+01  0.81210934512E+01  0.51100000000E-03 0.  1.
        -12    1    3    3    0    0 -0.10591539286E+02  0.25821462470E+02  0.28188559296E+02  0.39667663200E+02  0.00000000000E+00 0.  1.
</event>
<event>
 7    1  0.5479172E-013  0.5052887E+02  0.7816164E-02  0.1300439E+00
        -11   -1    0    0    0    0  0.00000000000E+00  0.00000000000E+00  0.45593999997E+02  0.45594000000E+02  0.51100000000E-03 0.  1.
         11   -1    0    0    0    0 -0.00000000000E+00 -0.00000000000E+00 -0.45593999997E+02  0.45594000000E+02  0.51100000000E-03 0. -1.
    9900012    2    1    2    0    0 -0.64440005329E+01  0.39279012416E+02 -0.82945248945E+01  0.50528866924E+02  0.30000021502E+02 0.  0.
         12    1    1    2    0    0  0.64440005329E+01 -0.39279012416E+02  0.82945248945E+01  0.40659133076E+02  0.00000000000E+00 0. -1.
         11    1    3    3    0    0  0.78318101914E+00  0.14401443106E+00 -0.18227331909E+01  0.19890875324E+01  0.51100000000E-03 0. -1.
        -11    1    3    3    0    0 -0.83747237560E+01  0.17634374836E+02 -0.15761030278E+02  0.25090182333E+02  0.51100000000E-03 0.  1.
        -12    1    3    3    0    0  0.11475422039E+01  0.21500623150E+02  0.92892385739E+01  0.23449597059E+02  0.00000000000E+00 0.  1.
</event>
<event>
 7    1  0.5479172E-013  0.5052885E+02  0.7816164E-02  0.1300439E+00
        -11   -1    0    0    0    0  0.00000000000E+00  0.00000000000E+00  0.45593999997E+02  0.45594000000E+02  0.51100000000E-03 0.  1.
         11   -1    0    0    0    0 -0.00000000000E+00 -0.00000000000E+00 -0.45593999997E+02  0.45594000000E+02  0.51100000000E-03 0. -1.
    9900012    2    1    2    0    0  0.59165199724E+01  0.11637840600E+02  0.38506124608E+02  0.50528853738E+02  0.29999981422E+02 0.  0.
         12    1    1    2    0    0 -0.59165199724E+01 -0.11637840600E+02 -0.38506124608E+02  0.40659146262E+02  0.00000000000E+00 0. -1.
         11    1    3    3    0    0  0.11225062842E+02  0.87999335505E+01  0.19852814673E+02  0.24445349599E+02  0.51100000000E-03 0. -1.
        -11    1    3    3    0    0 -0.36742411037E+01 -0.25419391553E+01  0.19840163130E+02  0.20337000163E+02  0.51100000000E-03 0.  1.
         12    1    3    3    0    0 -0.16343017656E+01  0.53798462044E+01 -0.11868531948E+01  0.57465039763E+01  0.00000000000E+00 0. -1.
</event>
<event>
 7    1  0.5479172E-013  0.5052886E+02  0.7816164E-02  0.1300439E+00
        -11   -1    0    0    0    0  0.00000000000E+00  0.00000000000E+00  0.45593999997E+02  0.45594000000E+02  0.51100000000E-03 0. -1.
         11   -1    0    0    0    0 -0.00000000000E+00 -0.00000000000E+00 -0.45593999997E+02  0.45594000000E+02  0.51100000000E-03 0.  1.
    9900012    2    1    2    0    0  0.67763261033E+01  0.36094759802E+02  0.17447510508E+02  0.50528857073E+02  0.29999991558E+02 0.  0.
         12    1    1    2    0    0 -0.67763261033E+01 -0.36094759802E+02 -0.17447510508E+02  0.40659142927E+02  0.00000000000E+00 0. -1.
         11    1    3    3    0    0  0.14232974490E+01  0.99871286276E+00 -0.29181242077E+01  0.33968591615E+01  0.51100000000E-03 0. -1.
        -11    1    3    3    0    0  0.13559917645E+02  0.17510479461E+02  0.15773048393E+02  0.27189654528E+02  0.51100000000E-03 0.  1.
        -12    1    3    3    0    0 -0.82068889909E+01  0.17585567479E+02  0.45925863229E+01  0.19942343383E+02  0.00000000000E+00 0.  1.
</event>
<event>
 7    1  0.5479172E-013  0.5052886E+02  0.7816164E-02  0.1300439E+00
        -11   -1    0    0    0    0  0.00000000000E+00  0.00000000000E+00  0.45593999997E+02  0.45594000000E+02  0.51100000000E-03 0. -1.
         11   -1    0    0    0    0 -0.00000000000E+00 -0.00000000000E+00 -0.45593999997E+02  0.45594000000E+02  0.51100000000E-03 0.  1.
    9900012    2    1    2    0    0 -0.76236899549E+01 -0.39804180623E+02  0.32667940418E+01  0.50528863426E+02  0.30000010871E+02 0.  0.
         12    1    1    2    0    0  0.76236899549E+01  0.39804180623E+02 -0.32667940418E+01  0.40659136574E+02  0.00000000000E+00 0. -1.
         11    1    3    3    0    0  0.32176880548E+01 -0.41058724664E+00  0.20351043354E+01  0.38293273851E+01  0.51100000000E-03 0. -1.
        -11    1    3    3    0    0 -0.37672802331E+01 -0.13665947229E+02  0.11353398904E+02  0.18161778023E+02  0.51100000000E-03 0.  1.
        -12    1    3    3    0    0 -0.70740977765E+01 -0.25727646148E+02 -0.10121709198E+02  0.28537758019E+02  0.00000000000E+00 0.  1.
</event>
<event>
 7    1  0.5479172E-013  0.5052880E+02  0.7816164E-02  0.1300439E+00
        -11   -1    0    0    0    0  0.00000000000E+00  0.00000000000E+00  0.45593999997E+02  0.45594000000E+02  0.51100000000E-03 0.  1.
         11   -1    0    0    0    0 -0.00000000000E+00 -0.00000000000E+00 -0.45593999997E+02  0.45594000000E+02  0.51100000000E-03 0. -1.
    9900012    2    1    2    0    0 -0.22830964021E+01 -0.18000340102E+02  0.36386061117E+02  0.50528804035E+02  0.29999830343E+02 0.  0.
         12    1    1    2    0    0  0.22830964021E+01  0.18000340102E+02 -0.36386061117E+02  0.40659195965E+02  0.00000000000E+00 0. -1.
         11    1    3    3    0    0 -0.12005735541E+02 -0.12568642129E+01  0.12761203290E+02  0.17566038347E+02  0.51100000000E-03 0. -1.
        -11    1    3    3    0    0  0.15162456110E+01 -0.39817508937E+01  0.14820369977E+02  0.15420658463E+02  0.51100000000E-03 0.  1.
        -12    1    3    3    0    0  0.82063935276E+01 -0.12761724995E+02  0.88044878501E+01  0.17542107225E+02  0.00000000000E+00 0.  1.
</event>
<event>
 7    1  0.5479172E-013  0.5052886E+02  0.7816164E-02  0.1300439E+00
        -11   -1    0    0    0    0  0.00000000000E+00  0.00000000000E+00  0.45593999997E+02  0.45594000000E+02  0.51100000000E-03 0. -1.
         11   -1    0    0    0    0 -0.00000000000E+00 -0.00000000000E+00 -0.45593999997E+02  0.45594000000E+02  0.51100000000E-03 0.  1.
    9900012    2    1    2    0    0 -0.20226563123E+02 -0.24979777857E+02  0.24901049225E+02  0.50528863142E+02  0.30000010006E+02 0.  0.
         12    1    1    2    0    0  0.20226563123E+02  0.24979777857E+02 -0.24901049225E+02  0.40659136858E+02  0.00000000000E+00 0. -1.
         11    1    3    3    0    0 -0.22892154919E+01  0.43865781648E+01  0.21960563919E+01  0.54134313981E+01  0.51100000000E-03 0. -1.
        -11    1    3    3    0    0 -0.12195519542E+02 -0.38036072437E+01  0.69382061028E+01  0.14537428561E+02  0.51100000000E-03 0.  1.
         12    1    3    3    0    0 -0.57418280890E+01 -0.25562748778E+02  0.15766786730E+02  0.30578003183E+02  0.00000000000E+00 0. -1.
</event>
<event>
 7    1  0.5479172E-013  0.5052886E+02  0.7816164E-02  0.1300439E+00
        -11   -1    0    0    0    0  0.00000000000E+00  0.00000000000E+00  0.45593999997E+02  0.45594000000E+02  0.51100000000E-03 0.  1.
         11   -1    0    0    0    0 -0.00000000000E+00 -0.00000000000E+00 -0.45593999997E+02  0.45594000000E+02  0.51100000000E-03 0. -1.
    9900012    2    1    2    0    0 -0.31037101850E+02 -0.63214179565E+01  0.25493202183E+02  0.50528863588E+02  0.30000011362E+02 0.  0.
         12    1    1    2    0    0  0.31037101850E+02  0.63214179565E+01 -0.25493202183E+02  0.40659136412E+02  0.00000000000E+00 0. -1.
         11    1    3    3    0    0 -0.52868004718E+00  0.13740502435E+01 -0.20526046918E+01  0.25260053337E+01  0.51100000000E-03 0. -1.
        -11    1    3    3    0    0 -0.10599572449E+02 -0.10489828072E+02  0.13384199808E+01  0.14972601557E+02  0.51100000000E-03 0.  1.
        -12    1    3    3    0    0 -0.19908849354E+02  0.27943598717E+01  0.26207386894E+02  0.33030256697E+02  0.00000000000E+00 0.  1.
</event>
<event>
 7    1  0.5565091E-013  0.5052886E+02  0.7816164E-02  0.1300439E+00
        -11   -1    0    0    0    0  0.00000000000E+00  0.00000000000E+00  0.45593999997E+02  0.45594000000E+02  0.51100000000E-03 0.  1.
         11   -1    0    0    0    0 -0.00000000000E+00 -0.00000000000E+00 -0.45593999997E+02  0.45594000000E+02  0.51100000000E-03 0. -1.
    9900012    2    1    2    0    0 -0.25496620789E+02  0.31364500358E+02  0.43995471956E+01  0.50528861176E+02  0.30000004030E+02 0.  0.
         12    1    1    2    0    0  0.25496620789E+02 -0.31364500358E+02 -0.43995471956E+01  0.40659138824E+02  0.00000000000E+00 0. -1.
         11    1    3    3    0    0 -0.18161650738E+02  0.23158486279E+01  0.50878025806E+01  0.19002485304E+02  0.51100000000E-03 0. -1.
        -11    1    3    3    0    0 -0.32529469216E+01  0.14678245983E+02  0.45304363279E+01  0.15702147063E+02  0.51100000000E-03 0.  1.
        -12    1    3    3    0    0 -0.40820231297E+01  0.14370405748E+02 -0.52186917130E+01  0.15824228808E+02  0.00000000000E+00 0.  1.
</event>
<event>
 7    1  0.5479172E-013  0.5052886E+02  0.7816164E-02  0.1300439E+00
        -11   -1    0    0    0    0  0.00000000000E+00  0.00000000000E+00  0.45593999997E+02  0.45594000000E+02  0.51100000000E-03 0. -1.
         11   -1    0    0    0    0 -0.00000000000E+00 -0.00000000000E+00 -0.45593999997E+02  0.45594000000E+02  0.51100000000E-03 0.  1.
    9900012    2    1    2    0    0 -0.83618227987E+01  0.39006126206E+01 -0.39598370451E+02  0.50528858325E+02  0.29999995365E+02 0.  0.
         12    1    1    2    0    0  0.83618227987E+01 -0.39006126206E+01  0.39598370451E+02  0.40659141675E+02  0.00000000000E+00 0. -1.
         11    1    3    3    0    0 -0.53010950138E+01  0.70114910941E+00 -0.18606618143E+02  0.19359738051E+02  0.51100000000E-03 0. -1.
        -11    1    3    3    0    0 -0.12041533375E+02  0.46876007113E+01 -0.16670940527E+02  0.21092472230E+02  0.51100000000E-03 0.  1.
        -12    1    3    3    0    0  0.89808055897E+01 -0.14881372002E+01 -0.43208117813E+01  0.10076648045E+02  0.00000000000E+00 0.  1.
</event>
<event>
 7    1  0.5479172E-013  0.5052886E+02  0.7816164E-02  0.1300439E+00
        -11   -1    0    0    0    0  0.00000000000E+00  0.00000000000E+00  0.45593999997E+02  0.45594000000E+02  0.51100000000E-03 0.  1.
         11   -1    0    0    0    0 -0.00000000000E+00 -0.00000000000E+00 -0.45593999997E+02  0.45594000000E+02  0.51100000000E-03 0. -1.
    9900012    2    1    2    0    0  0.38145732597E+02  0.64808533611E+00  0.14058769653E+02  0.50528856697E+02  0.29999990417E+02 0.  0.
         12    1    1    2    0    0 -0.38145732597E+02 -0.64808533611E+00 -0.14058769653E+02  0.40659143303E+02  0.00000000000E+00 0. -1.
         11    1    3    3    0    0  0.46316314992E+01  0.14532983587E+01 -0.69673313897E+00  0.49040313816E+01  0.51100000000E-03 0. -1.
        -11    1    3    3    0    0  0.37026765379E+02 -0.31150519433E+01  0.16997004010E+02  0.40860531674E+02  0.51100000000E-03 0.  1.
        -12    1    3    3    0    0 -0.35126642817E+01  0.23098389207E+01 -0.22415012184E+01  0.47642936420E+01  0.00000000000E+00 0.  1.
</event>
<event>
 7    1  0.5479172E-013  0.5052887E+02  0.7816164E-02  0.1300439E+00
        -11   -1    0    0    0    0  0.00000000000E+00  0.00000000000E+00  0.45593999997E+02  0.45594000000E+02  0.51100000000E-03 0.  1.
         11   -1    0    0    0    0 -0.00000000000E+00 -0.00000000000E+00 -0.45593999997E+02  0.45594000000E+02  0.51100000000E-03 0. -1.
    9900012    2    1    2    0    0 -0.21493700900E+02  0.33296887197E+02 -0.90831172914E+01  0.50528869474E+02  0.30000029252E+02 0.  0.
         12    1    1    2    0    0  0.21493700900E+02 -0.33296887197E+02  0.90831172914E+01  0.40659130526E+02  0.00000000000E+00 0. -1.
         11    1    3    3    0    0 -0.22216555700E+01  0.18453013709E+01 -0.26814084954E+01  0.39409189793E+01  0.51100000000E-03 0. -1.
        -11    1    3    3    0    0 -0.18830488721E+02  0.72148017313E+01  0.33824682818E+01  0.20447047744E+02  0.51100000000E-03 0.  1.
         12    1    3    3    0    0 -0.44155660909E+00  0.24236784095E+02 -0.97841770778E+01  0.26140902750E+02  0.00000000000E+00 0. -1.
</event>
<event>
 7    1  0.5479172E-013  0.5052886E+02  0.7816164E-02  0.1300439E+00
        -11   -1    0    0    0    0  0.00000000000E+00  0.00000000000E+00  0.45593999997E+02  0.45594000000E+02  0.51100000000E-03 0. -1.
         11   -1    0    0    0    0 -0.00000000000E+00 -0.00000000000E+00 -0.45593999997E+02  0.45594000000E+02  0.51100000000E-03 0.  1.
    9900012    2    1    2    0    0  0.20307841766E+02 -0.20859059446E+02 -0.28384100696E+02  0.50528856250E+02  0.29999989057E+02 0.  0.
         12    1    1    2    0    0 -0.20307841766E+02  0.20859059446E+02  0.28384100696E+02  0.40659143750E+02  0.00000000000E+00 0. -1.
         11    1    3    3    0    0  0.12685270424E+02 -0.62501431854E+01 -0.21390830364E+02  0.25642698756E+02  0.51100000000E-03 0. -1.
        -11    1    3    3    0    0  0.83482221980E+01 -0.16596446883E+02 -0.10085845300E+02  0.21139042994E+02  0.51100000000E-03 0.  1.
         12    1    3    3    0    0 -0.72565085523E+00  0.19875306227E+01  0.30925749684E+01  0.37471144999E+01  0.00000000000E+00 0. -1.
</event>
<event>
 7    1  0.5479172E-013  0.5052886E+02  0.7816164E-02  0.1300439E+00
        -11   -1    0    0    0    0  0.00000000000E+00  0.00000000000E+00  0.45593999997E+02  0.45594000000E+02  0.51100000000E-03 0.  1.
         11   -1    0    0    0    0 -0.00000000000E+00 -0.00000000000E+00 -0.45593999997E+02  0.45594000000E+02  0.51100000000E-03 0. -1.
    9900012    2    1    2    0    0 -0.16245468398E+02  0.12754078575E+02  0.35022623461E+02  0.50528856898E+02  0.29999991026E+02 0.  0.
         12    1    1    2    0    0  0.16245468398E+02 -0.12754078575E+02 -0.35022623461E+02  0.40659143102E+02  0.00000000000E+00 0. -1.
         11    1    3    3    0    0  0.55424416532E+00  0.78756680101E+01  0.92359636132E+01  0.12150570247E+02  0.51100000000E-03 0. -1.
        -11    1    3    3    0    0 -0.11104413251E+02  0.13699211078E+02  0.13449590669E+02  0.22178094311E+02  0.51100000000E-03 0.  1.
        -12    1    3    3    0    0 -0.56952993124E+01 -0.88208005133E+01  0.12337069178E+02  0.16200192340E+02  0.00000000000E+00 0.  1.
</event>
<event>
 7    1  0.5479172E-013  0.5052889E+02  0.7816164E-02  0.1300439E+00
        -11   -1    0    0    0    0  0.00000000000E+00  0.00000000000E+00  0.45593999997E+02  0.45594000000E+02  0.51100000000E-03 0.  1.
         11   -1    0    0    0    0 -0.00000000000E+00 -0.00000000000E+00 -0.45593999997E+02  0.45594000000E+02  0.51100000000E-03 0. -1.
    9900012    2    1    2    0    0 -0.20418612324E+02  0.26940066671E+02  0.22593729624E+02  0.50528886141E+02  0.30000079913E+02 0.  0.
         12    1    1    2    0    0  0.20418612324E+02 -0.26940066671E+02 -0.22593729624E+02  0.40659113859E+02  0.00000000000E+00 0. -1.
         11    1    3    3    0    0 -0.14200663520E+01  0.79902087753E+01 -0.50038793944E+01  0.95340879989E+01  0.51100000000E-03 0. -1.
        -11    1    3    3    0    0  0.12878560167E+00 -0.19404234745E+01  0.12573644784E+01  0.23157708618E+01  0.51100000000E-03 0.  1.
        -12    1    3    3    0    0 -0.19127331574E+02  0.20890281371E+02  0.26340244540E+02  0.38679027280E+02  0.00000000000E+00 0.  1.
</event>
<event>
 7    1  0.5479172E-013  0.5052886E+02  0.7816164E-02  0.1300439E+00
        -11   -1    0    0    0    0  0.00000000000E+00  0.00000000000E+00  0.45593999997E+02  0.45594000000E+02  0.51100000000E-03 0.  1.
         11   -1    0    0    0    0 -0.00000000000E+00 -0.00000000000E+00 -0.45593999997E+02  0.45594000000E+02  0.51100000000E-03 0. -1.
    9900012    2    1    2    0    0  0.76713025600E+01  0.54671310699E+01  0.39552836770E+02  0.50528864475E+02  0.30000014059E+02 0.  0.
         12    1    1    2    0    0 -0.76713025600E+01 -0.54671310699E+01 -0.39552836770E+02  0.40659135525E+02  0.00000000000E+00 0. -1.
         11    1    3    3    0    0 -0.51557843790E+01  0.46823622657E+01  0.10890257456E+02  0.12926884260E+02  0.51100000000E-03 0. -1.
        -11    1    3    3    0    0  0.71003151280E+01 -0.99180043273E+01  0.14103118849E+02  0.18646159023E+02  0.51100000000E-03 0.  1.
         12    1    3    3    0    0  0.57267718111E+01  0.10702773131E+02  0.14559460464E+02  0.18955821193E+02  0.00000000000E+00 0. -1.
</event>
<event>
 7    1  0.5479172E-013  0.5052885E+02  0.7816164E-02  0.1300439E+00
        -11   -1    0    0    0    0  0.00000000000E+00  0.00000000000E+00  0.45593999997E+02  0.45594000000E+02  0.51100000000E-03 0.  1.
         11   -1    0    0    0    0 -0.00000000000E+00 -0.00000000000E+00 -0.45593999997E+02  0.45594000000E+02  0.51100000000E-03 0. -1.
    9900012    2    1    2    0    0  0.27647434352E+02 -0.17690719287E+02  0.23996337911E+02  0.50528850866E+02  0.29999972692E+02 0.  0.
         12    1    1    2    0    0 -0.27647434352E+02  0.17690719287E+02 -0.23996337911E+02  0.40659149134E+02  0.00000000000E+00 0. -1.
         11    1    3    3    0    0  0.39099710183E+01 -0.85502583252E+01  0.31427321731E+01  0.99132011260E+01  0.51100000000E-03 0.  1.
        -11    1    3    3    0    0  0.12885693893E+02 -0.15075601374E+02  0.20079983826E+02  0.28222696799E+02  0.51100000000E-03 0. -1.
         12    1    3    3    0    0  0.10851769441E+02  0.59351404128E+01  0.77362191218E+00  0.12392952941E+02  0.00000000000E+00 0. -1.
</event>
<event>
 7    1  0.5479172E-013  0.5052889E+02  0.7816164E-02  0.1300439E+00
        -11   -1    0    0    0    0  0.00000000000E+00  0.00000000000E+00  0.45593999997E+02  0.45594000000E+02  0.51100000000E-03 0.  1.
         11   -1    0    0    0    0 -0.00000000000E+00 -0.00000000000E+00 -0.45593999997E+02  0.45594000000E+02  0.51100000000E-03 0. -1.
    9900012    2    1    2    0    0  0.29006409627E+02  0.24728486683E+02  0.14152516916E+02  0.50528885547E+02  0.30000078107E+02 0.  0.
         12    1    1    2    0    0 -0.29006409627E+02 -0.24728486683E+02 -0.14152516916E+02  0.40659114453E+02  0.00000000000E+00 0. -1.
         11    1    3    3    0    0  0.14652583040E+01  0.33657025803E+01 -0.65911402039E+01  0.75444062195E+01  0.51100000000E-03 0. -1.
        -11    1    3    3    0    0  0.49477594841E+01 -0.16075356988E+01  0.13356285240E+01  0.53710705405E+01  0.51100000000E-03 0.  1.
        -12    1    3    3    0    0  0.22593391839E+02  0.22970319802E+02  0.19408028596E+02  0.37613408787E+02  0.00000000000E+00 0.  1.
</event>
<event>
 7    1  0.5479172E-013  0.5052887E+02  0.7816164E-02  0.1300439E+00
        -11   -1    0    0    0    0  0.00000000000E+00  0.00000000000E+00  0.45593999997E+02  0.45594000000E+02  0.51100000000E-03 0.  1.
         11   -1    0    0    0    0 -0.00000000000E+00 -0.00000000000E+00 -0.45593999997E+02  0.45594000000E+02  0.51100000000E-03 0. -1.
    9900012    2    1    2    0    0  0.39473231222E+02  0.92382335637E+01 -0.31119625529E+01  0.50528865068E+02  0.30000015861E+02 0.  0.
         12    1    1    2    0    0 -0.39473231222E+02 -0.92382335637E+01  0.31119625529E+01  0.40659134932E+02  0.00000000000E+00 0. -1.
         11    1    3    3    0    0  0.37051678828E+01 -0.94207468055E+00  0.47337639201E+01  0.60847592275E+01  0.51100000000E-03 0. -1.
        -11    1    3    3    0    0  0.12437213918E+02 -0.69211474996E+01  0.79029368262E+00  0.14255214384E+02  0.51100000000E-03 0.  1.
        -12    1    3    3    0    0  0.23330849421E+02  0.17101455744E+02 -0.86360201557E+01  0.30188891457E+02  0.00000000000E+00 0.  1.
</event>
<event>
 7    1  0.5479172E-013  0.5052886E+02  0.7816164E-02  0.1300439E+00
        -11   -1    0    0    0    0  0.00000000000E+00  0.00000000000E+00  0.45593999997E+02  0.45594000000E+02  0.51100000000E-03 0.  1.
         11   -1    0    0    0    0 -0.00000000000E+00 -0.00000000000E+00 -0.45593999997E+02  0.45594000000E+02  0.51100000000E-03 0. -1.
    9900012    2    1    2    0    0  0.28187846619E+02 -0.17416668379E+02  0.23564176031E+02  0.50528862940E+02  0.30000009393E+02 0.  0.
         12    1    1    2    0    0 -0.28187846619E+02  0.17416668379E+02 -0.23564176031E+02  0.40659137060E+02  0.00000000000E+00 0. -1.
         11    1    3    3    0    0  0.66308788335E+01 -0.15335794089E+02 -0.14822183129E+00  0.16708593729E+02  0.51100000000E-03 0. -1.
        -11    1    3    3    0    0  0.10842496463E+02  0.45949118883E+00  0.46510672825E+01  0.11806916991E+02  0.51100000000E-03 0.  1.
        -12    1    3    3    0    0  0.10714471322E+02 -0.25403654793E+01  0.19061330580E+02  0.22013352220E+02  0.00000000000E+00 0.  1.
</event>
<event>
 7    1  0.5479172E-013  0.5052886E+02  0.7816164E-02  0.1300439E+00
        -11   -1    0    0    0    0  0.00000000000E+00  0.00000000000E+00  0.45593999997E+02  0.45594000000E+02  0.51100000000E-03 0. -1.
         11   -1    0    0    0    0 -0.00000000000E+00 -0.00000000000E+00 -0.45593999997E+02  0.45594000000E+02  0.51100000000E-03 0.  1.
    9900012    2    1    2    0    0 -0.78846032797E+01 -0.25389993225E+01 -0.39806434510E+02  0.50528859394E+02  0.29999998614E+02 0.  0.
         12    1    1    2    0    0  0.78846032797E+01  0.25389993225E+01  0.39806434510E+02  0.40659140606E+02  0.00000000000E+00 0. -1.
         11    1    3    3    0    0  0.34108192952E+01  0.57926138894E+01 -0.13765239823E+02  0.15318938983E+02  0.51100000000E-03 0. -1.
        -11    1    3    3    0    0 -0.50822402965E-01 -0.14844164506E+01  0.29869288245E+01  0.33358386021E+01  0.51100000000E-03 0.  1.
         12    1    3    3    0    0 -0.11244600172E+02 -0.68471967613E+01 -0.29028123512E+02  0.31874081808E+02  0.00000000000E+00 0. -1.
</event>
<event>
 7    1  0.5479172E-013  0.5052886E+02  0.7816164E-02  0.1300439E+00
        -11   -1    0    0    0    0  0.00000000000E+00  0.00000000000E+00  0.45593999997E+02  0.45594000000E+02  0.51100000000E-03 0.  1.
         11   -1    0    0    0    0 -0.00000000000E+00 -0.00000000000E+00 -0.45593999997E+02  0.45594000000E+02  0.51100000000E-03 0. -1.
    9900012    2    1    2    0    0  0.20699044337E+01  0.37448368744E+02  0.15700346500E+02  0.50528859500E+02  0.29999998936E+02 0.  0.
         12    1    1    2    0    0 -0.20699044337E+01 -0.37448368744E+02 -0.15700346500E+02  0.40659140500E+02  0.00000000000E+00 0. -1.
         11    1    3    3    0    0 -0.24916635688E+01  0.12797357637E+02  0.80998182302E+00  0.13062802940E+02  0.51100000000E-03 0. -1.
        -11    1    3    3    0    0 -0.96579340051E+01  0.11388423438E+02  0.67206853936E+01  0.16374965345E+02  0.51100000000E-03 0.  1.
         12    1    3    3    0    0  0.14219502008E+02  0.13262587669E+02  0.81696792833E+01  0.21091091215E+02  0.00000000000E+00 0. -1.
</event>
<event>
 7    1  0.5479172E-013  0.5052886E+02  0.7816164E-02  0.1300439E+00
        -11   -1    0    0    0    0  0.00000000000E+00  0.00000000000E+00  0.45593999997E+02  0.45594000000E+02  0.51100000000E-03 0. -1.
         11   -1    0    0    0    0 -0.00000000000E+00 -0.00000000000E+00 -0.45593999997E+02  0.45594000000E+02  0.51100000000E-03 0.  1.
    9900012    2    1    2    0    0 -0.15903435452E+02  0.32284610053E+02  0.18919578125E+02  0.50528859061E+02  0.29999997602E+02 0.  0.
         12    1    1    2    0    0  0.15903435452E+02 -0.32284610053E+02 -0.18919578125E+02  0.40659140939E+02  0.00000000000E+00 0. -1.
         11    1    3    3    0    0 -0.80766385729E+00  0.18393549744E+02  0.10681704663E+02  0.21285530481E+02  0.51100000000E-03 0. -1.
        -11    1    3    3    0    0 -0.75117347826E+01  0.17919131945E+02  0.49727517081E+01  0.20056163863E+02  0.51100000000E-03 0.  1.
        -12    1    3    3    0    0 -0.75840368121E+01 -0.40280716356E+01  0.32651217538E+01  0.91871647169E+01  0.00000000000E+00 0.  1.
</event>
<event>
 7    1  0.5479172E-013  0.5052884E+02  0.7816164E-02  0.1300439E+00
        -11   -1    0    0    0    0  0.00000000000E+00  0.00000000000E+00  0.45593999997E+02  0.45594000000E+02  0.51100000000E-03 0.  1.
         11   -1    0    0    0    0 -0.00000000000E+00 -0.00000000000E+00 -0.45593999997E+02  0.45594000000E+02  0.51100000000E-03 0. -1.
    9900012    2    1    2    0    0 -0.94019381227E+00  0.10707790295E+02  0.39212577328E+02  0.50528844105E+02  0.29999952141E+02 0.  0.
         12    1    1    2    0    0  0.94019381227E+00 -0.10707790295E+02 -0.39212577328E+02  0.40659155895E+02  0.00000000000E+00 0. -1.
         11    1    3    3    0    0 -0.46983874435E+01  0.54840539033E+00 -0.71754758391E+00  0.47843983778E+01  0.51100000000E-03 0. -1.
        -11    1    3    3    0    0 -0.61128450262E+01 -0.20931248549E+01  0.95290131565E+01  0.11513042081E+02  0.51100000000E-03 0.  1.
        -12    1    3    3    0    0  0.98710386574E+01  0.12252509759E+02  0.30401111755E+02  0.34231403646E+02  0.00000000000E+00 0.  1.
</event>
<event>
 7    1  0.5479172E-013  0.5052886E+02  0.7816164E-02  0.1300439E+00
        -11   -1    0    0    0    0  0.00000000000E+00  0.00000000000E+00  0.45593999997E+02  0.45594000000E+02  0.51100000000E-03 0.  1.
         11   -1    0    0    0    0 -0.00000000000E+00 -0.00000000000E+00 -0.45593999997E+02  0.45594000000E+02  0.51100000000E-03 0. -1.
    9900012    2    1    2    0    0 -0.33176750807E+02  0.54576135928E+01  0.22862267011E+02  0.50528860891E+02  0.30000003164E+02 0.  0.
         12    1    1    2    0    0  0.33176750807E+02 -0.54576135928E+01 -0.22862267011E+02  0.40659139109E+02  0.00000000000E+00 0. -1.
         11    1    3    3    0    0  0.14719989499E+01  0.12849548885E+01  0.93758972963E+01  0.95773347204E+01  0.51100000000E-03 0. -1.
        -11    1    3    3    0    0  0.17638954706E+01 -0.60272503522E+00  0.12409198863E+01  0.22393050540E+01  0.51100000000E-03 0.  1.
         12    1    3    3    0    0 -0.36412645227E+02  0.47753837395E+01  0.12245449828E+02  0.38712221117E+02  0.00000000000E+00 0. -1.
</event>
<event>
 7    1  0.5479172E-013  0.5052886E+02  0.7816164E-02  0.1300439E+00
        -11   -1    0    0    0    0  0.00000000000E+00  0.00000000000E+00  0.45593999997E+02  0.45594000000E+02  0.51100000000E-03 0.  1.
         11   -1    0    0    0    0 -0.00000000000E+00 -0.00000000000E+00 -0.45593999997E+02  0.45594000000E+02  0.51100000000E-03 0. -1.
    9900012    2    1    2    0    0 -0.20670440931E+02 -0.27956863614E+02  0.21078718017E+02  0.50528859520E+02  0.29999998996E+02 0.  0.
         12    1    1    2    0    0  0.20670440931E+02  0.27956863614E+02 -0.21078718017E+02  0.40659140480E+02  0.00000000000E+00 0. -1.
         11    1    3    3    0    0 -0.66937975977E+01 -0.97869167842E+01  0.72012807753E+01  0.13872602910E+02  0.51100000000E-03 0. -1.
        -11    1    3    3    0    0 -0.82795191789E+01 -0.17935795101E+02  0.20123312294E+02  0.28199129094E+02  0.51100000000E-03 0.  1.
         12    1    3    3    0    0 -0.56971241539E+01 -0.23415172834E+00 -0.62458750519E+01  0.84571275160E+01  0.00000000000E+00 0. -1.
</event>
<event>
 7    1  0.5479172E-013  0.5052887E+02  0.7816164E-02  0.1300439E+00
        -11   -1    0    0    0    0  0.00000000000E+00  0.00000000000E+00  0.45593999997E+02  0.45594000000E+02  0.51100000000E-03 0.  1.
         11   -1    0    0    0    0 -0.00000000000E+00 -0.00000000000E+00 -0.45593999997E+02  0.45594000000E+02  0.51100000000E-03 0. -1.
    9900012    2    1    2    0    0  0.31625226603E+01 -0.28383464049E+02  0.28940328034E+02  0.50528866122E+02  0.30000019066E+02 0.  0.
         12    1    1    2    0    0 -0.31625226603E+01  0.28383464049E+02 -0.28940328034E+02  0.40659133878E+02  0.00000000000E+00 0. -1.
         11    1    3    3    0    0  0.19896580821E+01  0.18799429823E+01  0.33151320084E+01  0.42991889229E+01  0.51100000000E-03 0. -1.
        -11    1    3    3    0    0  0.73462036339E+01 -0.27875569054E+02  0.26968729822E+02  0.39475643711E+02  0.51100000000E-03 0.  1.
         12    1    3    3    0    0 -0.61733390556E+01 -0.23878379774E+01 -0.13435337972E+01  0.67540334887E+01  0.00000000000E+00 0. -1.
</event>
<event>
 7    1  0.5479172E-013  0.5052886E+02  0.7816164E-02  0.1300439E+00
        -11   -1    0    0    0    0  0.00000000000E+00  0.00000000000E+00  0.45593999997E+02  0.45594000000E+02  0.51100000000E-03 0.  1.
         11   -1    0    0    0    0 -0.00000000000E+00 -0.00000000000E+00 -0.45593999997E+02  0.45594000000E+02  0.51100000000E-03 0. -1.
    9900012    2    1    2    0    0  0.50434809172E+01  0.20741784963E+02  0.34605022078E+02  0.50528857163E+02  0.29999991833E+02 0.  0.
         12    1    1    2    0    0 -0.50434809172E+01 -0.20741784963E+02 -0.34605022078E+02  0.40659142837E+02  0.00000000000E+00 0. -1.
         11    1    3    3    0    0  0.35919732968E+00 -0.26491342878E+01  0.77436045866E+01  0.81920905422E+01  0.51100000000E-03 0. -1.
        -11    1    3    3    0    0  0.38264649211E+01 -0.15083334537E+01 -0.16872780799E+01  0.44456508162E+01  0.51100000000E-03 0.  1.
        -12    1    3    3    0    0  0.85781866645E+00  0.24899252705E+02  0.28548695571E+02  0.37891115805E+02  0.00000000000E+00 0.  1.
</event>
<event>
 7    1  0.5479172E-013  0.5052886E+02  0.7816164E-02  0.1300439E+00
        -11   -1    0    0    0    0  0.00000000000E+00  0.00000000000E+00  0.45593999997E+02  0.45594000000E+02  0.51100000000E-03 0. -1.
         11   -1    0    0    0    0 -0.00000000000E+00 -0.00000000000E+00 -0.45593999997E+02  0.45594000000E+02  0.51100000000E-03 0.  1.
    9900012    2    1    2    0    0 -0.12367645509E+02  0.26631230640E+02 -0.28124454800E+02  0.50528855166E+02  0.29999985763E+02 0.  0.
         12    1    1    2    0    0  0.12367645509E+02 -0.26631230640E+02  0.28124454800E+02  0.40659144834E+02  0.00000000000E+00 0. -1.
         11    1    3    3    0    0 -0.41804495568E+01  0.72034721415E+01  0.11016932025E+01  0.84011842953E+01  0.51100000000E-03 0. -1.
        -11    1    3    3    0    0 -0.97507125275E+01  0.20997822663E+02 -0.14678987804E+02  0.27412727602E+02  0.51100000000E-03 0.  1.
        -12    1    3    3    0    0  0.15635165754E+01 -0.15700641644E+01 -0.14547160199E+02  0.14714943269E+02  0.00000000000E+00 0.  1.
</event>
<event>
 7    1  0.5479172E-013  0.5052886E+02  0.7816164E-02  0.1300439E+00
        -11   -1    0    0    0    0  0.00000000000E+00  0.00000000000E+00  0.45593999997E+02  0.45594000000E+02  0.51100000000E-03 0.  1.
         11   -1    0    0    0    0 -0.00000000000E+00 -0.00000000000E+00 -0.45593999997E+02  0.45594000000E+02  0.51100000000E-03 0. -1.
    9900012    2    1    2    0    0 -0.12203697079E+02  0.37525145489E+02  0.98029842875E+01  0.50528864897E+02  0.30000015340E+02 0.  0.
         12    1    1    2    0    0  0.12203697079E+02 -0.37525145489E+02 -0.98029842875E+01  0.40659135103E+02  0.00000000000E+00 0. -1.
         11    1    3    3    0    0 -0.15427219012E+02  0.29711331207E+02  0.20216945828E+01  0.33538776629E+02  0.51100000000E-03 0. -1.
        -11    1    3    3    0    0 -0.30274835508E+01  0.82302253162E+01  0.53339357054E+01  0.10264167564E+02  0.51100000000E-03 0.  1.
         12    1    3    3    0    0  0.62510054843E+01 -0.41641103385E+00  0.24473539993E+01  0.67259207036E+01  0.00000000000E+00 0. -1.
</event>
<event>
 7    1  0.5479172E-013  0.5052886E+02  0.7816164E-02  0.1300439E+00
        -11   -1    0    0    0    0  0.00000000000E+00  0.00000000000E+00  0.45593999997E+02  0.45594000000E+02  0.51100000000E-03 0. -1.
         11   -1    0    0    0    0 -0.00000000000E+00 -0.00000000000E+00 -0.45593999997E+02  0.45594000000E+02  0.51100000000E-03 0.  1.
    9900012    2    1    2    0    0  0.23886285000E+02 -0.27738549758E+02  0.17696999028E+02  0.50528861687E+02  0.30000005584E+02 0.  0.
         12    1    1    2    0    0 -0.23886285000E+02  0.27738549758E+02 -0.17696999028E+02  0.40659138313E+02  0.00000000000E+00 0. -1.
         11    1    3    3    0    0  0.51020991225E+01  0.23754468148E+01  0.34956194261E+01  0.66252183707E+01  0.51100000000E-03 0. -1.
        -11    1    3    3    0    0  0.47382553256E+01  0.26399096219E+01  0.42815491253E+01  0.69102713055E+01  0.51100000000E-03 0.  1.
        -12    1    3    3    0    0  0.14045930552E+02 -0.32753906194E+02  0.99198304765E+01  0.36993372011E+02  0.00000000000E+00 0.  1.
</event>
<event>
 7    1  0.5479172E-013  0.5052886E+02  0.7816164E-02  0.1300439E+00
        -11   -1    0    0    0    0  0.00000000000E+00  0.00000000000E+00  0.45593999997E+02  0.45594000000E+02  0.51100000000E-03 0. -1.
         11   -1    0    0    0    0 -0.00000000000E+00 -0.00000000000E+00 -0.45593999997E+02  0.45594000000E+02  0.51100000000E-03 0.  1.
    9900012    2    1    2    0    0 -0.20160571121E+02 -0.31008540383E+02  0.16887502476E+02  0.50528856570E+02  0.29999990029E+02 0.  0.
         12    1    1    2    0    0  0.20160571121E+02  0.31008540383E+02 -0.16887502476E+02  0.40659143430E+02  0.00000000000E+00 0. -1.
         11    1    3    3    0    0  0.15370932202E+01 -0.15078307328E+02  0.12671472495E+02  0.19755612441E+02  0.51100000000E-03 0. -1.
        -11    1    3    3    0    0  0.63040038852E+00 -0.47452850074E+01 -0.17513323657E+01  0.50972835675E+01  0.51100000000E-03 0.  1.
        -12    1    3    3    0    0 -0.22328064729E+02 -0.11184948048E+02  0.59673623465E+01  0.25675960562E+02  0.00000000000E+00 0.  1.
</event>
<event>
 7    1  0.5479172E-013  0.5052887E+02  0.7816164E-02  0.1300439E+00
        -11   -1    0    0    0    0  0.00000000000E+00  0.00000000000E+00  0.45593999997E+02  0.45594000000E+02  0.51100000000E-03 0. -1.
         11   -1    0    0    0    0 -0.00000000000E+00 -0.00000000000E+00 -0.45593999997E+02  0.45594000000E+02  0.51100000000E-03 0.  1.
    9900012    2    1    2    0    0 -0.45576387916E+01  0.76255971790E+01 -0.39676729154E+02  0.50528872611E+02  0.30000038787E+02 0.  0.
         12    1    1    2    0    0  0.45576387916E+01 -0.76255971790E+01  0.39676729154E+02  0.40659127389E+02  0.00000000000E+00 0. -1.
         11    1    3    3    0    0  0.96019125089E+01  0.69404555025E+01 -0.14899616655E+02  0.19035893022E+02  0.51100000000E-03 0. -1.
        -11    1    3    3    0    0  0.18614127289E+01  0.26925069382E+01 -0.36557986633E+01  0.49070678706E+01  0.51100000000E-03 0.  1.
        -12    1    3    3    0    0 -0.16020964029E+02 -0.20073652617E+01 -0.21121313836E+02  0.26585911718E+02  0.00000000000E+00 0.  1.
</event>
<event>
 7    1  0.5479172E-013  0.5052882E+02  0.7816164E-02  0.1300439E+00
        -11   -1    0    0    0    0  0.00000000000E+00  0.00000000000E+00  0.45593999997E+02  0.45594000000E+02  0.51100000000E-03 0.  1.
         11   -1    0    0    0    0 -0.00000000000E+00 -0.00000000000E+00 -0.45593999997E+02  0.45594000000E+02  0.51100000000E-03 0. -1.
    9900012    2    1    2    0    0  0.33480217426E+01 -0.22846459081E+02  0.33466381960E+02  0.50528823132E+02  0.29999888391E+02 0.  0.
         12    1    1    2    0    0 -0.33480217426E+01  0.22846459081E+02 -0.33466381960E+02  0.40659176868E+02  0.00000000000E+00 0. -1.
         11    1    3    3    0    0 -0.15963786060E+01  0.28316495194E+01  0.35432546946E+01  0.48084631376E+01  0.51100000000E-03 0. -1.
        -11    1    3    3    0    0 -0.66287456167E+01 -0.30271241218E+00  0.66682340325E+01  0.94072976263E+01  0.51100000000E-03 0.  1.
        -12    1    3    3    0    0  0.11573145965E+02 -0.25375396189E+02  0.23254893233E+02  0.36313062368E+02  0.00000000000E+00 0.  1.
</event>
<event>
 7    1  0.5479172E-013  0.5052883E+02  0.7816164E-02  0.1300439E+00
        -11   -1    0    0    0    0  0.00000000000E+00  0.00000000000E+00  0.45593999997E+02  0.45594000000E+02  0.51100000000E-03 0.  1.
         11   -1    0    0    0    0 -0.00000000000E+00 -0.00000000000E+00 -0.45593999997E+02  0.45594000000E+02  0.51100000000E-03 0. -1.
    9900012    2    1    2    0    0  0.21604855621E+01  0.30172622288E+02  0.27168240794E+02  0.50528829553E+02  0.29999907909E+02 0.  0.
         12    1    1    2    0    0 -0.21604855621E+01 -0.30172622288E+02 -0.27168240794E+02  0.40659170447E+02  0.00000000000E+00 0. -1.
         11    1    3    3    0    0  0.14813913217E+01 -0.23461937990E+01  0.69536572130E+01  0.74868213874E+01  0.51100000000E-03 0. -1.
        -11    1    3    3    0    0  0.50176484467E+01  0.36191667583E+00  0.45592601370E+00  0.50513016546E+01  0.51100000000E-03 0.  1.
        -12    1    3    3    0    0 -0.43385542063E+01  0.32156899411E+02  0.19758657568E+02  0.37990706511E+02  0.00000000000E+00 0.  1.
</event>
<event>
 7    1  0.5479172E-013  0.5052887E+02  0.7816164E-02  0.1300439E+00
        -11   -1    0    0    0    0  0.00000000000E+00  0.00000000000E+00  0.45593999997E+02  0.45594000000E+02  0.51100000000E-03 0. -1.
         11   -1    0    0    0    0 -0.00000000000E+00 -0.00000000000E+00 -0.45593999997E+02  0.45594000000E+02  0.51100000000E-03 0.  1.
    9900012    2    1    2    0    0 -0.32820721164E+02  0.17667474898E+02  0.16242714279E+02  0.50528866042E+02  0.30000018823E+02 0.  0.
         12    1    1    2    0    0  0.32820721164E+02 -0.17667474898E+02 -0.16242714279E+02  0.40659133958E+02  0.00000000000E+00 0. -1.
         11    1    3    3    0    0 -0.60301368446E+01 -0.60501018212E+00  0.11044917346E+01  0.61602345684E+01  0.51100000000E-03 0. -1.
        -11    1    3    3    0    0 -0.28570357805E+02  0.14915677909E+02  0.38506352660E+01  0.32458745890E+02  0.51100000000E-03 0.  1.
         12    1    3    3    0    0  0.17797734851E+01  0.33568071720E+01  0.11287587278E+02  0.11909885584E+02  0.00000000000E+00 0. -1.
</event>
<event>
 7    1  0.5479172E-013  0.5052886E+02  0.7816164E-02  0.1300439E+00
        -11   -1    0    0    0    0  0.00000000000E+00  0.00000000000E+00  0.45593999997E+02  0.45594000000E+02  0.51100000000E-03 0. -1.
         11   -1    0    0    0    0 -0.00000000000E+00 -0.00000000000E+00 -0.45593999997E+02  0.45594000000E+02  0.51100000000E-03 0.  1.
    9900012    2    1    2    0    0 -0.29013208079E+02 -0.24078417879E+02 -0.15219374741E+02  0.50528858124E+02  0.29999994753E+02 0.  0.
         12    1    1    2    0    0  0.29013208079E+02  0.24078417879E+02  0.15219374741E+02  0.40659141876E+02  0.00000000000E+00 0. -1.
         11    1    3    3    0    0 -0.18189035519E+02 -0.21502994182E+01 -0.12162248786E+02  0.21986020479E+02  0.51100000000E-03 0. -1.
        -11    1    3    3    0    0 -0.10525715654E+01  0.17619539229E+01 -0.20439728230E+01  0.28965865582E+01  0.51100000000E-03 0.  1.
         12    1    3    3    0    0 -0.97716009949E+01 -0.23690072384E+02 -0.10131531318E+01  0.25646251087E+02  0.00000000000E+00 0. -1.
</event>
<event>
 7    1  0.5479172E-013  0.5052885E+02  0.7816164E-02  0.1300439E+00
        -11   -1    0    0    0    0  0.00000000000E+00  0.00000000000E+00  0.45593999997E+02  0.45594000000E+02  0.51100000000E-03 0.  1.
         11   -1    0    0    0    0 -0.00000000000E+00 -0.00000000000E+00 -0.45593999997E+02  0.45594000000E+02  0.51100000000E-03 0. -1.
    9900012    2    1    2    0    0  0.29640706601E+02 -0.82334829931E+01  0.26585793140E+02  0.50528854327E+02  0.29999983211E+02 0.  0.
         12    1    1    2    0    0 -0.29640706601E+02  0.82334829931E+01 -0.26585793140E+02  0.40659145673E+02  0.00000000000E+00 0. -1.
         11    1    3    3    0    0  0.99492591654E+01 -0.20704495993E+01  0.12229144051E+02  0.15900518355E+02  0.51100000000E-03 0. -1.
        -11    1    3    3    0    0  0.13870147839E+02 -0.71692690241E+01  0.20720871490E+02  0.25944824821E+02  0.51100000000E-03 0.  1.
         12    1    3    3    0    0  0.58212995973E+01  0.10062356303E+01 -0.63642224007E+01  0.86835111510E+01  0.00000000000E+00 0. -1.
</event>
<event>
 7    1  0.5479172E-013  0.5052883E+02  0.7816164E-02  0.1300439E+00
        -11   -1    0    0    0    0  0.00000000000E+00  0.00000000000E+00  0.45593999997E+02  0.45594000000E+02  0.51100000000E-03 0.  1.
         11   -1    0    0    0    0 -0.00000000000E+00 -0.00000000000E+00 -0.45593999997E+02  0.45594000000E+02  0.51100000000E-03 0. -1.
    9900012    2    1    2    0    0  0.22694765748E+02  0.90342032982E+01  0.32503823767E+02  0.50528833984E+02  0.29999921378E+02 0.  0.
         12    1    1    2    0    0 -0.22694765748E+02 -0.90342032982E+01 -0.32503823767E+02  0.40659166016E+02  0.00000000000E+00 0. -1.
         11    1    3    3    0    0  0.11775732423E+02 -0.98334335229E+00  0.11043295177E+01  0.11868208887E+02  0.51100000000E-03 0. -1.
        -11    1    3    3    0    0  0.32980231501E+01 -0.44262942507E+01  0.12613985657E+02  0.13768866036E+02  0.51100000000E-03 0.  1.
        -12    1    3    3    0    0  0.76210101755E+01  0.14443840901E+02  0.18785508593E+02  0.24891759061E+02  0.00000000000E+00 0.  1.
</event>
<event>
 7    1  0.5479172E-013  0.5052886E+02  0.7816164E-02  0.1300439E+00
        -11   -1    0    0    0    0  0.00000000000E+00  0.00000000000E+00  0.45593999997E+02  0.45594000000E+02  0.51100000000E-03 0. -1.
         11   -1    0    0    0    0 -0.00000000000E+00 -0.00000000000E+00 -0.45593999997E+02  0.45594000000E+02  0.51100000000E-03 0.  1.
    9900012    2    1    2    0    0  0.29989514549E+02 -0.21669374141E+02 -0.16859204809E+02  0.50528861478E+02  0.30000004950E+02 0.  0.
         12    1    1    2    0    0 -0.29989514549E+02  0.21669374141E+02  0.16859204809E+02  0.40659138522E+02  0.00000000000E+00 0. -1.
         11    1    3    3    0    0 -0.46129006867E+01 -0.73761803403E+00  0.35584741783E+00  0.46850358329E+01  0.51100000000E-03 0. -1.
        -11    1    3    3    0    0  0.66837975697E+01 -0.52192871377E+01 -0.98014640998E+01  0.12960818143E+02  0.51100000000E-03 0.  1.
        -12    1    3    3    0    0  0.27918617666E+02 -0.15712468969E+02 -0.74135881268E+01  0.32883007502E+02  0.00000000000E+00 0.  1.
</event>
<event>
 7    1  0.5479172E-013  0.5052886E+02  0.7816164E-02  0.1300439E+00
        -11   -1    0    0    0    0  0.00000000000E+00  0.00000000000E+00  0.45593999997E+02  0.45594000000E+02  0.51100000000E-03 0.  1.
         11   -1    0    0    0    0 -0.00000000000E+00 -0.00000000000E+00 -0.45593999997E+02  0.45594000000E+02  0.51100000000E-03 0. -1.
    9900012    2    1    2    0    0 -0.88784739383E+01  0.18331232953E+02  0.35189544382E+02  0.50528862837E+02  0.30000009079E+02 0.  0.
         12    1    1    2    0    0  0.88784739383E+01 -0.18331232953E+02 -0.35189544382E+02  0.40659137163E+02  0.00000000000E+00 0. -1.
         11    1    3    3    0    0  0.37989522719E+01  0.13216839998E+01  0.37322256423E+01  0.54871117599E+01  0.51100000000E-03 0. -1.
        -11    1    3    3    0    0 -0.10063989016E+02 -0.33060367017E+01  0.53774783503E+01  0.11879858049E+02  0.51100000000E-03 0.  1.
        -12    1    3    3    0    0 -0.26134371941E+01  0.20315585655E+02  0.26079840389E+02  0.33161893028E+02  0.00000000000E+00 0.  1.
</event>
<event>
 7    1  0.5479172E-013  0.5052886E+02  0.7816164E-02  0.1300439E+00
        -11   -1    0    0    0    0  0.00000000000E+00  0.00000000000E+00  0.45593999997E+02  0.45594000000E+02  0.51100000000E-03 0.  1.
         11   -1    0    0    0    0 -0.00000000000E+00 -0.00000000000E+00 -0.45593999997E+02  0.45594000000E+02  0.51100000000E-03 0. -1.
    9900012    2    1    2    0    0  0.74395037333E+01  0.28744410272E+02  0.27777292970E+02  0.50528863973E+02  0.30000012533E+02 0.  0.
         12    1    1    2    0    0 -0.74395037333E+01 -0.28744410272E+02 -0.27777292970E+02  0.40659136027E+02  0.00000000000E+00 0. -1.
         11    1    3    3    0    0  0.38574114925E+01  0.24136781772E+02  0.11506722397E+02  0.27016078885E+02  0.51100000000E-03 0. -1.
        -11    1    3    3    0    0  0.32610972492E+01  0.10144064012E+02  0.13817369387E+02  0.17448681525E+02  0.51100000000E-03 0.  1.
         12    1    3    3    0    0  0.32099499158E+00 -0.55364355118E+01  0.24532011870E+01  0.60641035632E+01  0.00000000000E+00 0. -1.
</event>
<event>
 7    1  0.5479172E-013  0.5052888E+02  0.7816164E-02  0.1300439E+00
        -11   -1    0    0    0    0  0.00000000000E+00  0.00000000000E+00  0.45593999997E+02  0.45594000000E+02  0.51100000000E-03 0.  1.
         11   -1    0    0    0    0 -0.00000000000E+00 -0.00000000000E+00 -0.45593999997E+02  0.45594000000E+02  0.51100000000E-03 0. -1.
    9900012    2    1    2    0    0  0.12125726642E+01 -0.23153300965E+02  0.33400868373E+02  0.50528884342E+02  0.30000074445E+02 0.  0.
         12    1    1    2    0    0 -0.12125726642E+01  0.23153300965E+02 -0.33400868373E+02  0.40659115658E+02  0.00000000000E+00 0. -1.
         11    1    3    3    0    0 -0.42008989808E+01 -0.57335229829E+01  0.10621589492E+02  0.12780414768E+02  0.51100000000E-03 0. -1.
        -11    1    3    3    0    0 -0.30724998156E+01  0.37505106962E+00  0.16892413730E+02  0.17173658908E+02  0.51100000000E-03 0.  1.
         12    1    3    3    0    0  0.84859714607E+01 -0.17794829052E+02  0.58868651516E+01  0.20574810666E+02  0.00000000000E+00 0. -1.
</event>
<event>
 7    1  0.5479172E-013  0.5052886E+02  0.7816164E-02  0.1300439E+00
        -11   -1    0    0    0    0  0.00000000000E+00  0.00000000000E+00  0.45593999997E+02  0.45594000000E+02  0.51100000000E-03 0.  1.
         11   -1    0    0    0    0 -0.00000000000E+00 -0.00000000000E+00 -0.45593999997E+02  0.45594000000E+02  0.51100000000E-03 0. -1.
    9900012    2    1    2    0    0  0.40300279026E+02  0.19824974354E+01  0.50122410820E+01  0.50528863926E+02  0.30000012389E+02 0.  0.
         12    1    1    2    0    0 -0.40300279026E+02 -0.19824974354E+01 -0.50122410820E+01  0.40659136074E+02  0.00000000000E+00 0. -1.
         11    1    3    3    0    0  0.45385344460E+01  0.86291694233E+01 -0.40526099345E+01  0.10558622419E+02  0.51100000000E-03 0. -1.
        -11    1    3    3    0    0  0.20188600346E+02 -0.79755081351E+01 -0.37668782569E+00  0.21710140670E+02  0.51100000000E-03 0.  1.
        -12    1    3    3    0    0  0.15573144234E+02  0.13288361472E+01  0.94415388421E+01  0.18260100836E+02  0.00000000000E+00 0.  1.
</event>
<event>
 7    1  0.5479172E-013  0.5052887E+02  0.7816164E-02  0.1300439E+00
        -11   -1    0    0    0    0  0.00000000000E+00  0.00000000000E+00  0.45593999997E+02  0.45594000000E+02  0.51100000000E-03 0.  1.
         11   -1    0    0    0    0 -0.00000000000E+00 -0.00000000000E+00 -0.45593999997E+02  0.45594000000E+02  0.51100000000E-03 0. -1.
    9900012    2    1    2    0    0 -0.25413991411E+02  0.14967837701E+02  0.27986748020E+02  0.50528865852E+02  0.30000018244E+02 0.  0.
         12    1    1    2    0    0  0.25413991411E+02 -0.14967837701E+02 -0.27986748020E+02  0.40659134148E+02  0.00000000000E+00 0. -1.
         11    1    3    3    0    0 -0.19652239231E+01  0.11408021664E+02  0.11974465633E+02  0.16655116055E+02  0.51100000000E-03 0. -1.
        -11    1    3    3    0    0 -0.81073543843E+01  0.10110052070E+02  0.50262980948E+01  0.13899856862E+02  0.51100000000E-03 0.  1.
         12    1    3    3    0    0 -0.15341413104E+02 -0.65502360334E+01  0.10985984293E+02  0.19973892935E+02  0.00000000000E+00 0. -1.
</event>
<event>
 7    1  0.5479172E-013  0.5052886E+02  0.7816164E-02  0.1300439E+00
        -11   -1    0    0    0    0  0.00000000000E+00  0.00000000000E+00  0.45593999997E+02  0.45594000000E+02  0.51100000000E-03 0.  1.
         11   -1    0    0    0    0 -0.00000000000E+00 -0.00000000000E+00 -0.45593999997E+02  0.45594000000E+02  0.51100000000E-03 0. -1.
    9900012    2    1    2    0    0 -0.53191261688E-01  0.30483945359E+02  0.26905243228E+02  0.50528857522E+02  0.29999992923E+02 0.  0.
         12    1    1    2    0    0  0.53191261688E-01 -0.30483945359E+02 -0.26905243228E+02  0.40659142478E+02  0.00000000000E+00 0. -1.
         11    1    3    3    0    0  0.32175400170E+01  0.18671804784E+02  0.12389739357E+01  0.18987467296E+02  0.51100000000E-03 0. -1.
        -11    1    3    3    0    0 -0.17289287751E+01 -0.29147628448E+01  0.33957554284E+01  0.47975193945E+01  0.51100000000E-03 0.  1.
        -12    1    3    3    0    0 -0.15418025036E+01  0.14726903420E+02  0.22270513864E+02  0.26743870831E+02  0.00000000000E+00 0.  1.
</event>
<event>
 7    1  0.5479172E-013  0.5052886E+02  0.7816164E-02  0.1300439E+00
        -11   -1    0    0    0    0  0.00000000000E+00  0.00000000000E+00  0.45593999997E+02  0.45594000000E+02  0.51100000000E-03 0. -1.
         11   -1    0    0    0    0 -0.00000000000E+00 -0.00000000000E+00 -0.45593999997E+02  0.45594000000E+02  0.51100000000E-03 0.  1.
    9900012    2    1    2    0    0 -0.40456606061E+02  0.18447217634E+01  0.36091391127E+01  0.50528857640E+02  0.29999993282E+02 0.  0.
         12    1    1    2    0    0  0.40456606061E+02 -0.18447217634E+01 -0.36091391127E+01  0.40659142360E+02  0.00000000000E+00 0. -1.
         11    1    3    3    0    0 -0.20138898932E+02  0.13793688217E+02  0.19647323789E+01  0.24488798631E+02  0.51100000000E-03 0. -1.
        -11    1    3    3    0    0 -0.98766337216E+01 -0.21211091472E+00  0.28589111630E+01  0.10284272362E+02  0.51100000000E-03 0.  1.
         12    1    3    3    0    0 -0.10441073407E+02 -0.11736855539E+02 -0.12145044293E+01  0.15755786646E+02  0.00000000000E+00 0. -1.
</event>
<event>
 7    1  0.5479172E-013  0.5052879E+02  0.7816164E-02  0.1300439E+00
        -11   -1    0    0    0    0  0.00000000000E+00  0.00000000000E+00  0.45593999997E+02  0.45594000000E+02  0.51100000000E-03 0.  1.
         11   -1    0    0    0    0 -0.00000000000E+00 -0.00000000000E+00 -0.45593999997E+02  0.45594000000E+02  0.51100000000E-03 0. -1.
    9900012    2    1    2    0    0  0.45617956126E+01 -0.36943790233E+02 -0.16355972982E+02  0.50528788643E+02  0.29999783558E+02 0.  0.
         12    1    1    2    0    0 -0.45617956126E+01  0.36943790233E+02  0.16355972982E+02  0.40659211357E+02  0.00000000000E+00 0. -1.
         11    1    3    3    0    0 -0.81757915989E+01 -0.40223490704E+01 -0.60121545575E+01  0.10916449194E+02  0.51100000000E-03 0. -1.
        -11    1    3    3    0    0  0.36796598446E+01 -0.26584036375E+02 -0.97075913686E+01  0.28539239952E+02  0.51100000000E-03 0.  1.
        -12    1    3    3    0    0  0.90579273669E+01 -0.63374047870E+01 -0.63622705609E+00  0.11073099498E+02  0.00000000000E+00 0.  1.
</event>
<event>
 7    1  0.5479172E-013  0.5052886E+02  0.7816164E-02  0.1300439E+00
        -11   -1    0    0    0    0  0.00000000000E+00  0.00000000000E+00  0.45593999997E+02  0.45594000000E+02  0.51100000000E-03 0.  1.
         11   -1    0    0    0    0 -0.00000000000E+00 -0.00000000000E+00 -0.45593999997E+02  0.45594000000E+02  0.51100000000E-03 0. -1.
    9900012    2    1    2    0    0  0.14101747843E+02 -0.15304339762E+02  0.34929697237E+02  0.50528857647E+02  0.29999993305E+02 0.  0.
         12    1    1    2    0    0 -0.14101747843E+02  0.15304339762E+02 -0.34929697237E+02  0.40659142353E+02  0.00000000000E+00 0. -1.
         11    1    3    3    0    0  0.39345510555E+01 -0.32587680908E+01  0.77679123080E+01  0.92973503410E+01  0.51100000000E-03 0.  1.
        -11    1    3    3    0    0 -0.10877845953E+01 -0.14978641813E+01  0.25667710668E+02  0.25734378633E+02  0.51100000000E-03 0. -1.
        -12    1    3    3    0    0  0.11254981383E+02 -0.10547707490E+02  0.14940742610E+01  0.15497128674E+02  0.00000000000E+00 0.  1.
</event>
<event>
 7    1  0.5479172E-013  0.5052888E+02  0.7816164E-02  0.1300439E+00
        -11   -1    0    0    0    0  0.00000000000E+00  0.00000000000E+00  0.45593999997E+02  0.45594000000E+02  0.51100000000E-03 0.  1.
         11   -1    0    0    0    0 -0.00000000000E+00 -0.00000000000E+00 -0.45593999997E+02  0.45594000000E+02  0.51100000000E-03 0. -1.
    9900012    2    1    2    0    0  0.21935703901E+02  0.28625587249E+02  0.18776714069E+02  0.50528876273E+02  0.30000049919E+02 0.  0.
         12    1    1    2    0    0 -0.21935703901E+02 -0.28625587249E+02 -0.18776714069E+02  0.40659123727E+02  0.00000000000E+00 0. -1.
         11    1    3    3    0    0  0.86198831962E+01  0.27457567276E+01  0.68921403178E+01  0.11372913644E+02  0.51100000000E-03 0. -1.
        -11    1    3    3    0    0  0.16855912497E+02  0.78281232027E+01  0.85635568091E+01  0.20463035075E+02  0.51100000000E-03 0.  1.
         12    1    3    3    0    0 -0.35400917922E+01  0.18051707319E+02  0.33210169424E+01  0.18692927555E+02  0.00000000000E+00 0. -1.
</event>
<event>
 7    1  0.5718705E-013  0.5052886E+02  0.7816164E-02  0.1300439E+00
        -11   -1    0    0    0    0  0.00000000000E+00  0.00000000000E+00  0.45593999997E+02  0.45594000000E+02  0.51100000000E-03 0. -1.
         11   -1    0    0    0    0 -0.00000000000E+00 -0.00000000000E+00 -0.45593999997E+02  0.45594000000E+02  0.51100000000E-03 0.  1.
    9900012    2    1    2    0    0 -0.26394430114E+02  0.77518139546E+01 -0.29940086743E+02  0.50528863821E+02  0.30000012070E+02 0.  0.
         12    1    1    2    0    0  0.26394430114E+02 -0.77518139546E+01  0.29940086743E+02  0.40659136179E+02  0.00000000000E+00 0. -1.
         11    1    3    3    0    0 -0.14349828174E+02  0.10327696099E+02 -0.12985397399E+01  0.17727523264E+02  0.51100000000E-03 0. -1.
        -11    1    3    3    0    0 -0.27921749593E+01 -0.53993080538E+01 -0.84178464030E+01  0.10383106798E+02  0.51100000000E-03 0.  1.
        -12    1    3    3    0    0 -0.92524269808E+01  0.28234259094E+01 -0.20223700600E+02  0.22418233759E+02  0.00000000000E+00 0.  1.
</event>
<event>
 7    1  0.5479172E-013  0.5052887E+02  0.7816164E-02  0.1300439E+00
        -11   -1    0    0    0    0  0.00000000000E+00  0.00000000000E+00  0.45593999997E+02  0.45594000000E+02  0.51100000000E-03 0. -1.
         11   -1    0    0    0    0 -0.00000000000E+00 -0.00000000000E+00 -0.45593999997E+02  0.45594000000E+02  0.51100000000E-03 0.  1.
    9900012    2    1    2    0    0 -0.18163690057E+02  0.36284812457E+02 -0.25803041587E+01  0.50528865466E+02  0.30000017069E+02 0.  0.
         12    1    1    2    0    0  0.18163690057E+02 -0.36284812457E+02  0.25803041587E+01  0.40659134534E+02  0.00000000000E+00 0. -1.
         11    1    3    3    0    0 -0.35733859238E+01  0.98517152066E+01 -0.74862601731E+01  0.12879032227E+02  0.51100000000E-03 0.  1.
        -11    1    3    3    0    0 -0.12934119102E+02  0.24109616128E+01  0.46876424863E+00  0.13165254005E+02  0.51100000000E-03 0. -1.
         12    1    3    3    0    0 -0.16561850313E+01  0.24022135638E+02  0.44371917657E+01  0.24484579233E+02  0.00000000000E+00 0. -1.
</event>
<event>
 7    1  0.5479172E-013  0.5052885E+02  0.7816164E-02  0.1300439E+00
        -11   -1    0    0    0    0  0.00000000000E+00  0.00000000000E+00  0.45593999997E+02  0.45594000000E+02  0.51100000000E-03 0.  1.
         11   -1    0    0    0    0 -0.00000000000E+00 -0.00000000000E+00 -0.45593999997E+02  0.45594000000E+02  0.51100000000E-03 0. -1.
    9900012    2    1    2    0    0  0.80515026028E+01 -0.23148917279E+02  0.32441757600E+02  0.50528847260E+02  0.29999961731E+02 0.  0.
         12    1    1    2    0    0 -0.80515026028E+01  0.23148917279E+02 -0.32441757600E+02  0.40659152740E+02  0.00000000000E+00 0. -1.
         11    1    3    3    0    0 -0.20952146569E+01  0.35729681397E+01  0.70161887810E+01  0.81475720959E+01  0.51100000000E-03 0. -1.
        -11    1    3    3    0    0  0.62963874889E+01  0.54630764126E+00  0.56541902793E+01  0.84801424177E+01  0.51100000000E-03 0.  1.
        -12    1    3    3    0    0  0.38503297708E+01 -0.27268193060E+02  0.19771378540E+02  0.33901132746E+02  0.00000000000E+00 0.  1.
</event>
<event>
 7    1  0.5479172E-013  0.5052886E+02  0.7816164E-02  0.1300439E+00
        -11   -1    0    0    0    0  0.00000000000E+00  0.00000000000E+00  0.45593999997E+02  0.45594000000E+02  0.51100000000E-03 0.  1.
         11   -1    0    0    0    0 -0.00000000000E+00 -0.00000000000E+00 -0.45593999997E+02  0.45594000000E+02  0.51100000000E-03 0. -1.
    9900012    2    1    2    0    0 -0.38530375819E+02  0.16666907603E+01 -0.12876252852E+02  0.50528860728E+02  0.30000002670E+02 0.  0.
         12    1    1    2    0    0  0.38530375819E+02 -0.16666907603E+01  0.12876252852E+02  0.40659139272E+02  0.00000000000E+00 0. -1.
         11    1    3    3    0    0 -0.34674990076E+00 -0.30281881997E+00  0.49769341903E+01  0.49981805616E+01  0.51100000000E-03 0. -1.
        -11    1    3    3    0    0 -0.55797486035E+01 -0.11474663802E+01  0.32594557752E+01  0.65631033653E+01  0.51100000000E-03 0.  1.
         12    1    3    3    0    0 -0.32603877314E+02  0.31169759605E+01 -0.21112642817E+02  0.38967576801E+02  0.00000000000E+00 0. -1.
</event>
<event>
 7    1  0.5479172E-013  0.5052887E+02  0.7816164E-02  0.1300439E+00
        -11   -1    0    0    0    0  0.00000000000E+00  0.00000000000E+00  0.45593999997E+02  0.45594000000E+02  0.51100000000E-03 0.  1.
         11   -1    0    0    0    0 -0.00000000000E+00 -0.00000000000E+00 -0.45593999997E+02  0.45594000000E+02  0.51100000000E-03 0. -1.
    9900012    2    1    2    0    0  0.23122327630E+02 -0.23247638497E+02  0.24043094886E+02  0.50528866433E+02  0.30000020009E+02 0.  0.
         12    1    1    2    0    0 -0.23122327630E+02  0.23247638497E+02 -0.24043094886E+02  0.40659133567E+02  0.00000000000E+00 0. -1.
         11    1    3    3    0    0 -0.67747259930E+01 -0.24127373805E+01  0.24581031171E+01  0.76000319172E+01  0.51100000000E-03 0. -1.
        -11    1    3    3    0    0  0.82588012105E+00 -0.13919709220E+01 -0.33600443500E+00  0.16530457536E+01  0.51100000000E-03 0.  1.
        -12    1    3    3    0    0  0.29071173502E+02 -0.19442930195E+02  0.21920996204E+02  0.41275788762E+02  0.00000000000E+00 0.  1.
</event>
<event>
 7    1  0.5479172E-013  0.5052886E+02  0.7816164E-02  0.1300439E+00
        -11   -1    0    0    0    0  0.00000000000E+00  0.00000000000E+00  0.45593999997E+02  0.45594000000E+02  0.51100000000E-03 0.  1.
         11   -1    0    0    0    0 -0.00000000000E+00 -0.00000000000E+00 -0.45593999997E+02  0.45594000000E+02  0.51100000000E-03 0. -1.
    9900012    2    1    2    0    0  0.29110698872E+02  0.15993215217E+02  0.23451010362E+02  0.50528860698E+02  0.30000002577E+02 0.  0.
         12    1    1    2    0    0 -0.29110698872E+02 -0.15993215217E+02 -0.23451010362E+02  0.40659139302E+02  0.00000000000E+00 0. -1.
         11    1    3    3    0    0  0.14279813233E+02  0.13488908679E+02  0.34135734532E+01  0.19937808488E+02  0.51100000000E-03 0. -1.
        -11    1    3    3    0    0  0.14583522711E+02  0.36927963698E+01  0.55224613771E+01  0.16025400451E+02  0.51100000000E-03 0.  1.
        -12    1    3    3    0    0  0.24736292856E+00 -0.11884898317E+01  0.14514975531E+02  0.14565651759E+02  0.00000000000E+00 0.  1.
</event>
<event>
 7    1  0.5479172E-013  0.5052885E+02  0.7816164E-02  0.1300439E+00
        -11   -1    0    0    0    0  0.00000000000E+00  0.00000000000E+00  0.45593999997E+02  0.45594000000E+02  0.51100000000E-03 0.  1.
         11   -1    0    0    0    0 -0.00000000000E+00 -0.00000000000E+00 -0.45593999997E+02  0.45594000000E+02  0.51100000000E-03 0. -1.
    9900012    2    1    2    0    0  0.26605613638E+02 -0.12689005615E+02  0.28005298603E+02  0.50528852316E+02  0.29999977099E+02 0.  0.
         12    1    1    2    0    0 -0.26605613638E+02  0.12689005615E+02 -0.28005298603E+02  0.40659147684E+02  0.00000000000E+00 0. -1.
         11    1    3    3    0    0 -0.27973974732E+01  0.12150492234E+01  0.20223558561E+01  0.36594672711E+01  0.51100000000E-03 0. -1.
        -11    1    3    3    0    0  0.46130960658E+01  0.41164898885E+01  0.11311631725E+02  0.12891049486E+02  0.51100000000E-03 0.  1.
         12    1    3    3    0    0  0.24789915045E+02 -0.18020544727E+02  0.14671311022E+02  0.33978335559E+02  0.00000000000E+00 0. -1.
</event>
<event>
 7    1  0.5479172E-013  0.5052886E+02  0.7816164E-02  0.1300439E+00
        -11   -1    0    0    0    0  0.00000000000E+00  0.00000000000E+00  0.45593999997E+02  0.45594000000E+02  0.51100000000E-03 0. -1.
         11   -1    0    0    0    0 -0.00000000000E+00 -0.00000000000E+00 -0.45593999997E+02  0.45594000000E+02  0.51100000000E-03 0.  1.
    9900012    2    1    2    0    0 -0.36411979365E+02 -0.10810910944E+02 -0.14507167140E+02  0.50528856685E+02  0.29999990380E+02 0.  0.
         12    1    1    2    0    0  0.36411979365E+02  0.10810910944E+02  0.14507167140E+02  0.40659143315E+02  0.00000000000E+00 0. -1.
         11    1    3    3    0    0 -0.29371801515E+02 -0.66543389932E+01 -0.53217334322E+01  0.30582736939E+02  0.51100000000E-03 0. -1.
        -11    1    3    3    0    0 -0.37042056415E+01  0.18169249832E+01 -0.11892737185E+02  0.12588071887E+02  0.51100000000E-03 0.  1.
         12    1    3    3    0    0 -0.33359722078E+01 -0.59734969335E+01  0.27073034764E+01  0.73580478593E+01  0.00000000000E+00 0. -1.
</event>
<event>
 7    1  0.5479172E-013  0.5052882E+02  0.7816164E-02  0.1300439E+00
        -11   -1    0    0    0    0  0.00000000000E+00  0.00000000000E+00  0.45593999997E+02  0.45594000000E+02  0.51100000000E-03 0. -1.
         11   -1    0    0    0    0 -0.00000000000E+00 -0.00000000000E+00 -0.45593999997E+02  0.45594000000E+02  0.51100000000E-03 0.  1.
    9900012    2    1    2    0    0  0.40597307331E+02  0.92689915573E+00 -0.20417604888E+01  0.50528815423E+02  0.29999864958E+02 0.  0.
         12    1    1    2    0    0 -0.40597307331E+02 -0.92689915573E+00  0.20417604888E+01  0.40659184577E+02  0.00000000000E+00 0. -1.
         11    1    3    3    0    0  0.68721665104E+01 -0.32379457782E-01 -0.82909203725E+01  0.10768801320E+02  0.51100000000E-03 0.  1.
        -11    1    3    3    0    0 -0.38934431721E+00 -0.46053230100E+01 -0.67482656669E-01  0.46222443892E+01  0.51100000000E-03 0. -1.
        -12    1    3    3    0    0  0.34114485138E+02  0.55646016235E+01  0.63166425403E+01  0.35137769714E+02  0.00000000000E+00 0.  1.
</event>
<event>
 7    1  0.5479172E-013  0.5052887E+02  0.7816164E-02  0.1300439E+00
        -11   -1    0    0    0    0  0.00000000000E+00  0.00000000000E+00  0.45593999997E+02  0.45594000000E+02  0.51100000000E-03 0.  1.
         11   -1    0    0    0    0 -0.00000000000E+00 -0.00000000000E+00 -0.45593999997E+02  0.45594000000E+02  0.51100000000E-03 0. -1.
    9900012    2    1    2    0    0 -0.35018058665E+02  0.43875465753E+01  0.20190345455E+02  0.50528867604E+02  0.30000023568E+02 0.  0.
         12    1    1    2    0    0  0.35018058665E+02 -0.43875465753E+01 -0.20190345455E+02  0.40659132396E+02  0.00000000000E+00 0. -1.
         11    1    3    3    0    0 -0.10934289224E+02  0.72991095544E+01  0.15272115328E+01  0.13235106968E+02  0.51100000000E-03 0. -1.
        -11    1    3    3    0    0 -0.16999036866E+02  0.78043913646E+01  0.14881172403E+02  0.23902407228E+02  0.51100000000E-03 0.  1.
         12    1    3    3    0    0 -0.70847325746E+01 -0.10715954344E+02  0.37819615193E+01  0.13391353407E+02  0.00000000000E+00 0. -1.
</event>
<event>
 7    1  0.5479172E-013  0.5052884E+02  0.7816164E-02  0.1300439E+00
        -11   -1    0    0    0    0  0.00000000000E+00  0.00000000000E+00  0.45593999997E+02  0.45594000000E+02  0.51100000000E-03 0. -1.
         11   -1    0    0    0    0 -0.00000000000E+00 -0.00000000000E+00 -0.45593999997E+02  0.45594000000E+02  0.51100000000E-03 0.  1.
    9900012    2    1    2    0    0  0.10454028202E+02  0.22372770999E+02 -0.32300766844E+02  0.50528842033E+02  0.29999945844E+02 0.  0.
         12    1    1    2    0    0 -0.10454028202E+02 -0.22372770999E+02  0.32300766844E+02  0.40659157967E+02  0.00000000000E+00 0. -1.
         11    1    3    3    0    0  0.47596778858E+01  0.49755162026E+01 -0.23128828977E+02  0.24131991736E+02  0.51100000000E-03 0. -1.
        -11    1    3    3    0    0  0.40815297136E+01  0.11870900344E+02 -0.14057372918E+02  0.18846402664E+02  0.51100000000E-03 0.  1.
         12    1    3    3    0    0  0.16128206026E+01  0.55263544522E+01  0.48854350499E+01  0.75504476327E+01  0.00000000000E+00 0. -1.
</event>
<event>
 7    1  0.5479172E-013  0.5052885E+02  0.7816164E-02  0.1300439E+00
        -11   -1    0    0    0    0  0.00000000000E+00  0.00000000000E+00  0.45593999997E+02  0.45594000000E+02  0.51100000000E-03 0.  1.
         11   -1    0    0    0    0 -0.00000000000E+00 -0.00000000000E+00 -0.45593999997E+02  0.45594000000E+02  0.51100000000E-03 0. -1.
    9900012    2    1    2    0    0 -0.19675032555E+02  0.10391476211E+00  0.35581575326E+02  0.50528853341E+02  0.29999980216E+02 0.  0.
         12    1    1    2    0    0  0.19675032555E+02 -0.10391476211E+00 -0.35581575326E+02  0.40659146659E+02  0.00000000000E+00 0. -1.
         11    1    3    3    0    0 -0.48583180770E+00  0.32687842534E+01  0.55567287761E+01  0.64651541353E+01  0.51100000000E-03 0. -1.
        -11    1    3    3    0    0  0.25236381776E+01 -0.26158376187E+01  0.19667944094E+02  0.20000984507E+02  0.51100000000E-03 0.  1.
        -12    1    3    3    0    0 -0.21712838925E+02 -0.54903187256E+00  0.10356902456E+02  0.24062714699E+02  0.00000000000E+00 0.  1.
</event>
<event>
 7    1  0.5479172E-013  0.5052882E+02  0.7816164E-02  0.1300439E+00
        -11   -1    0    0    0    0  0.00000000000E+00  0.00000000000E+00  0.45593999997E+02  0.45594000000E+02  0.51100000000E-03 0.  1.
         11   -1    0    0    0    0 -0.00000000000E+00 -0.00000000000E+00 -0.45593999997E+02  0.45594000000E+02  0.51100000000E-03 0. -1.
    9900012    2    1    2    0    0 -0.41033507356E+01  0.16359479439E+02  0.36995924922E+02  0.50528824951E+02  0.29999893922E+02 0.  0.
         12    1    1    2    0    0  0.41033507356E+01 -0.16359479439E+02 -0.36995924922E+02  0.40659175049E+02  0.00000000000E+00 0. -1.
         11    1    3    3    0    0 -0.40584704234E+01  0.59682659841E+01  0.14614549854E+02  0.16299584312E+02  0.51100000000E-03 0.  1.
        -11    1    3    3    0    0  0.66137616671E+01  0.84453108856E+01  0.24688781568E+02  0.26918414792E+02  0.51100000000E-03 0. -1.
         12    1    3    3    0    0 -0.66586419794E+01  0.19459025693E+01 -0.23074065000E+01  0.73108258477E+01  0.00000000000E+00 0. -1.
</event>
<event>
 7    1  0.5479172E-013  0.5052886E+02  0.7816164E-02  0.1300439E+00
        -11   -1    0    0    0    0  0.00000000000E+00  0.00000000000E+00  0.45593999997E+02  0.45594000000E+02  0.51100000000E-03 0. -1.
         11   -1    0    0    0    0 -0.00000000000E+00 -0.00000000000E+00 -0.45593999997E+02  0.45594000000E+02  0.51100000000E-03 0.  1.
    9900012    2    1    2    0    0 -0.33999195296E+02 -0.14071454801E+02 -0.17297829274E+02  0.50528855659E+02  0.29999987260E+02 0.  0.
         12    1    1    2    0    0  0.33999195296E+02  0.14071454801E+02  0.17297829274E+02  0.40659144341E+02  0.00000000000E+00 0. -1.
         11    1    3    3    0    0 -0.15574129352E+02 -0.85931578565E+01 -0.10129621875E+02  0.20469614227E+02  0.51100000000E-03 0.  1.
        -11    1    3    3    0    0 -0.17357261117E+02 -0.12549801470E+02 -0.26074505371E+01  0.21577090374E+02  0.51100000000E-03 0. -1.
         12    1    3    3    0    0 -0.10678048263E+01  0.70715045256E+01 -0.45607568617E+01  0.84821510571E+01  0.00000000000E+00 0. -1.
</event>
<event>
 7    1  0.5479172E-013  0.5052886E+02  0.7816164E-02  0.1300439E+00
        -11   -1    0    0    0    0  0.00000000000E+00  0.00000000000E+00  0.45593999997E+02  0.45594000000E+02  0.51100000000E-03 0. -1.
         11   -1    0    0    0    0 -0.00000000000E+00 -0.00000000000E+00 -0.45593999997E+02  0.45594000000E+02  0.51100000000E-03 0.  1.
    9900012    2    1    2    0    0 -0.34889533695E+02  0.20302715036E+02 -0.48668514382E+01  0.50528855369E+02  0.29999986378E+02 0.  0.
         12    1    1    2    0    0  0.34889533695E+02 -0.20302715036E+02  0.48668514382E+01  0.40659144631E+02  0.00000000000E+00 0. -1.
         11    1    3    3    0    0 -0.55906411960E+01  0.50527965003E+01 -0.28664681153E+01  0.80624227856E+01  0.51100000000E-03 0. -1.
        -11    1    3    3    0    0 -0.13251290163E+02  0.21448904809E+02 -0.14704657076E+01  0.25254989173E+02  0.51100000000E-03 0.  1.
        -12    1    3    3    0    0 -0.16047602336E+02 -0.61989862741E+01 -0.52991761533E+00  0.17211443410E+02  0.00000000000E+00 0.  1.
</event>
<event>
 7    1  0.5479172E-013  0.5052886E+02  0.7816164E-02  0.1300439E+00
        -11   -1    0    0    0    0  0.00000000000E+00  0.00000000000E+00  0.45593999997E+02  0.45594000000E+02  0.51100000000E-03 0.  1.
         11   -1    0    0    0    0 -0.00000000000E+00 -0.00000000000E+00 -0.45593999997E+02  0.45594000000E+02  0.51100000000E-03 0. -1.
    9900012    2    1    2    0    0 -0.13922141298E+02  0.66998020350E+01  0.37609204828E+02  0.50528860149E+02  0.30000000908E+02 0.  0.
         12    1    1    2    0    0  0.13922141298E+02 -0.66998020350E+01 -0.37609204828E+02  0.40659139851E+02  0.00000000000E+00 0. -1.
         11    1    3    3    0    0  0.70041254556E+01  0.31062164085E+01  0.16064344684E+02  0.17798020232E+02  0.51100000000E-03 0. -1.
        -11    1    3    3    0    0 -0.50358631662E+01  0.26831765457E+01 -0.28665331673E+00  0.57132761695E+01  0.51100000000E-03 0.  1.
        -12    1    3    3    0    0 -0.15890403587E+02  0.91040908078E+00  0.21831513461E+02  0.27017563748E+02  0.00000000000E+00 0.  1.
</event>
<event>
 7    1  0.5479172E-013  0.5052886E+02  0.7816164E-02  0.1300439E+00
        -11   -1    0    0    0    0  0.00000000000E+00  0.00000000000E+00  0.45593999997E+02  0.45594000000E+02  0.51100000000E-03 0. -1.
         11   -1    0    0    0    0 -0.00000000000E+00 -0.00000000000E+00 -0.45593999997E+02  0.45594000000E+02  0.51100000000E-03 0.  1.
    9900012    2    1    2    0    0 -0.23960637425E+02  0.21662285363E+02 -0.24694107496E+02  0.50528859601E+02  0.29999999243E+02 0.  0.
         12    1    1    2    0    0  0.23960637425E+02 -0.21662285363E+02  0.24694107496E+02  0.40659140399E+02  0.00000000000E+00 0. -1.
         11    1    3    3    0    0 -0.13489801037E+02  0.34501930884E+00  0.17955610966E+01  0.13613148433E+02  0.51100000000E-03 0. -1.
        -11    1    3    3    0    0 -0.35016626167E+01  0.13068409408E+01 -0.12065614996E+01  0.39275011444E+01  0.51100000000E-03 0.  1.
        -12    1    3    3    0    0 -0.69691737713E+01  0.20010425114E+02 -0.25283107093E+02  0.32988210024E+02  0.00000000000E+00 0.  1.
</event>
<event>
 7    1  0.5479172E-013  0.5052885E+02  0.7816164E-02  0.1300439E+00
        -11   -1    0    0    0    0  0.00000000000E+00  0.00000000000E+00  0.45593999997E+02  0.45594000000E+02  0.51100000000E-03 0.  1.
         11   -1    0    0    0    0 -0.00000000000E+00 -0.00000000000E+00 -0.45593999997E+02  0.45594000000E+02  0.51100000000E-03 0. -1.
    9900012    2    1    2    0    0  0.37915993858E+02 -0.97469763124E+01  0.10979092763E+02  0.50528848320E+02  0.29999964952E+02 0.  0.
         12    1    1    2    0    0 -0.37915993858E+02  0.97469763124E+01 -0.10979092763E+02  0.40659151680E+02  0.00000000000E+00 0. -1.
         11    1    3    3    0    0  0.15702140380E+02 -0.39881275343E+01  0.34581159693E+01  0.16565655437E+02  0.51100000000E-03 0. -1.
        -11    1    3    3    0    0  0.17682213931E+02 -0.13427241212E+02  0.10514444779E+02  0.24566339681E+02  0.51100000000E-03 0.  1.
         12    1    3    3    0    0  0.45316395463E+01  0.76683924339E+01 -0.29934679851E+01  0.93968532008E+01  0.00000000000E+00 0. -1.
</event>
<event>
 7    1  0.5479172E-013  0.5052886E+02  0.7816164E-02  0.1300439E+00
        -11   -1    0    0    0    0  0.00000000000E+00  0.00000000000E+00  0.45593999997E+02  0.45594000000E+02  0.51100000000E-03 0.  1.
         11   -1    0    0    0    0 -0.00000000000E+00 -0.00000000000E+00 -0.45593999997E+02  0.45594000000E+02  0.51100000000E-03 0. -1.
    9900012    2    1    2    0    0  0.33696887741E+02 -0.22056186454E+02  0.55866009219E+01  0.50528859402E+02  0.29999998638E+02 0.  0.
         12    1    1    2    0    0 -0.33696887741E+02  0.22056186454E+02 -0.55866009219E+01  0.40659140598E+02  0.00000000000E+00 0. -1.
         11    1    3    3    0    0 -0.11462611282E+01 -0.21870370877E+00  0.38747326464E+01  0.40466404867E+01  0.51100000000E-03 0. -1.
        -11    1    3    3    0    0  0.59270743471E+01 -0.50842204093E+01  0.93698692303E+01  0.12197293025E+02  0.51100000000E-03 0.  1.
        -12    1    3    3    0    0  0.28916074522E+02 -0.16753262336E+02 -0.76580009549E+01  0.34284925890E+02  0.00000000000E+00 0.  1.
</event>
<event>
 7    1  0.5479172E-013  0.5052884E+02  0.7816164E-02  0.1300439E+00
        -11   -1    0    0    0    0  0.00000000000E+00  0.00000000000E+00  0.45593999997E+02  0.45594000000E+02  0.51100000000E-03 0.  1.
         11   -1    0    0    0    0 -0.00000000000E+00 -0.00000000000E+00 -0.45593999997E+02  0.45594000000E+02  0.51100000000E-03 0. -1.
    9900012    2    1    2    0    0 -0.36104127450E+02  0.12171763612E+02  0.14195341391E+02  0.50528836635E+02  0.29999929434E+02 0.  0.
         12    1    1    2    0    0  0.36104127450E+02 -0.12171763612E+02 -0.14195341391E+02  0.40659163365E+02  0.00000000000E+00 0. -1.
         11    1    3    3    0    0 -0.19272846384E+02  0.78274220944E+01  0.62013412802E+01  0.21706399479E+02  0.51100000000E-03 0. -1.
        -11    1    3    3    0    0 -0.21536569587E+02  0.24268467507E+01  0.33334852318E+01  0.21927734466E+02  0.51100000000E-03 0.  1.
         12    1    3    3    0    0  0.47052885214E+01  0.19174947669E+01  0.46605148786E+01  0.68947026900E+01  0.00000000000E+00 0. -1.
</event>
<event>
 7    1  0.5479172E-013  0.5052885E+02  0.7816164E-02  0.1300439E+00
        -11   -1    0    0    0    0  0.00000000000E+00  0.00000000000E+00  0.45593999997E+02  0.45594000000E+02  0.51100000000E-03 0.  1.
         11   -1    0    0    0    0 -0.00000000000E+00 -0.00000000000E+00 -0.45593999997E+02  0.45594000000E+02  0.51100000000E-03 0. -1.
    9900012    2    1    2    0    0 -0.10975118031E+02 -0.26684664867E+02  0.28646843250E+02  0.50528853636E+02  0.29999981112E+02 0.  0.
         12    1    1    2    0    0  0.10975118031E+02  0.26684664867E+02 -0.28646843250E+02  0.40659146364E+02  0.00000000000E+00 0. -1.
         11    1    3    3    0    0  0.57901695781E+00  0.91549905736E+00 -0.51849913718E-01  0.10844758347E+01  0.51100000000E-03 0. -1.
        -11    1    3    3    0    0  0.46553856556E+01 -0.55363364498E+01 -0.27585265592E+01  0.77416474944E+01  0.51100000000E-03 0.  1.
        -12    1    3    3    0    0 -0.16209520645E+02 -0.22063827475E+02  0.31457219723E+02  0.41702730307E+02  0.00000000000E+00 0.  1.
</event>
<event>
 7    1  0.5479172E-013  0.5052886E+02  0.7816164E-02  0.1300439E+00
        -11   -1    0    0    0    0  0.00000000000E+00  0.00000000000E+00  0.45593999997E+02  0.45594000000E+02  0.51100000000E-03 0. -1.
         11   -1    0    0    0    0 -0.00000000000E+00 -0.00000000000E+00 -0.45593999997E+02  0.45594000000E+02  0.51100000000E-03 0.  1.
    9900012    2    1    2    0    0  0.18851683716E+02  0.34263364518E+02  0.11126611968E+02  0.50528860549E+02  0.30000002124E+02 0.  0.
         12    1    1    2    0    0 -0.18851683716E+02 -0.34263364518E+02 -0.11126611968E+02  0.40659139451E+02  0.00000000000E+00 0. -1.
         11    1    3    3    0    0  0.46805207021E+01  0.78347120971E+01 -0.32813802888E+01  0.96983217387E+01  0.51100000000E-03 0. -1.
        -11    1    3    3    0    0  0.16751698549E+02  0.29661794716E+02  0.12717465921E+02  0.36361730016E+02  0.51100000000E-03 0.  1.
         12    1    3    3    0    0 -0.25805355349E+01 -0.32331422951E+01  0.16905263356E+01  0.44688087941E+01  0.00000000000E+00 0. -1.
</event>
<event>
 7    1  0.5479172E-013  0.5052883E+02  0.7816164E-02  0.1300439E+00
        -11   -1    0    0    0    0  0.00000000000E+00  0.00000000000E+00  0.45593999997E+02  0.45594000000E+02  0.51100000000E-03 0.  1.
         11   -1    0    0    0    0 -0.00000000000E+00 -0.00000000000E+00 -0.45593999997E+02  0.45594000000E+02  0.51100000000E-03 0. -1.
    9900012    2    1    2    0    0  0.36491723428E+00 -0.40545660256E+02  0.30140261320E+01  0.50528830263E+02  0.29999910068E+02 0.  0.
         12    1    1    2    0    0 -0.36491723428E+00  0.40545660256E+02 -0.30140261320E+01  0.40659169737E+02  0.00000000000E+00 0. -1.
         11    1    3    3    0    0  0.13508644486E+01 -0.24054661897E+02 -0.79247059472E+01  0.25362424141E+02  0.51100000000E-03 0. -1.
        -11    1    3    3    0    0 -0.80750181404E+01 -0.64128191360E+01  0.43253301428E+01  0.11182068160E+02  0.51100000000E-03 0.  1.
        -12    1    3    3    0    0  0.70890709261E+01 -0.10078179223E+02  0.66134019364E+01  0.13984337961E+02  0.00000000000E+00 0.  1.
</event>
<event>
 7    1  0.5479172E-013  0.5052886E+02  0.7816164E-02  0.1300439E+00
        -11   -1    0    0    0    0  0.00000000000E+00  0.00000000000E+00  0.45593999997E+02  0.45594000000E+02  0.51100000000E-03 0.  1.
         11   -1    0    0    0    0 -0.00000000000E+00 -0.00000000000E+00 -0.45593999997E+02  0.45594000000E+02  0.51100000000E-03 0. -1.
    9900012    2    1    2    0    0 -0.38175104064E+01 -0.27258363634E+02  0.29926136845E+02  0.50528862772E+02  0.30000008881E+02 0.  0.
         12    1    1    2    0    0  0.38175104064E+01  0.27258363634E+02 -0.29926136845E+02  0.40659137228E+02  0.00000000000E+00 0. -1.
         11    1    3    3    0    0 -0.60918056276E+01 -0.31055755995E+02  0.25919719686E+02  0.40907235852E+02  0.51100000000E-03 0.  1.
        -11    1    3    3    0    0  0.25706050943E+01 -0.33479683264E+00 -0.12915257596E+01  0.28962283264E+01  0.51100000000E-03 0. -1.
        -12    1    3    3    0    0 -0.29630987320E+00  0.41321891936E+01  0.52979429180E+01  0.67253985930E+01  0.00000000000E+00 0.  1.
</event>
<event>
 7    1  0.5479172E-013  0.5052887E+02  0.7816164E-02  0.1300439E+00
        -11   -1    0    0    0    0  0.00000000000E+00  0.00000000000E+00  0.45593999997E+02  0.45594000000E+02  0.51100000000E-03 0.  1.
         11   -1    0    0    0    0 -0.00000000000E+00 -0.00000000000E+00 -0.45593999997E+02  0.45594000000E+02  0.51100000000E-03 0. -1.
    9900012    2    1    2    0    0  0.15500848805E+02  0.20029634638E+02  0.31807271771E+02  0.50528866771E+02  0.30000021038E+02 0.  0.
         12    1    1    2    0    0 -0.15500848805E+02 -0.20029634638E+02 -0.31807271771E+02  0.40659133229E+02  0.00000000000E+00 0. -1.
         11    1    3    3    0    0  0.75299269039E+01  0.74932651621E+01  0.85277264019E+01  0.13622442505E+02  0.51100000000E-03 0. -1.
        -11    1    3    3    0    0  0.12979239737E+02  0.10138434373E+02  0.25957589404E+02  0.30741583623E+02  0.51100000000E-03 0.  1.
         12    1    3    3    0    0 -0.50083178353E+01  0.23979351030E+01 -0.26780440356E+01  0.61648406430E+01  0.00000000000E+00 0. -1.
</event>
<event>
 7    1  0.5479172E-013  0.5052890E+02  0.7816164E-02  0.1300439E+00
        -11   -1    0    0    0    0  0.00000000000E+00  0.00000000000E+00  0.45593999997E+02  0.45594000000E+02  0.51100000000E-03 0.  1.
         11   -1    0    0    0    0 -0.00000000000E+00 -0.00000000000E+00 -0.45593999997E+02  0.45594000000E+02  0.51100000000E-03 0. -1.
    9900012    2    1    2    0    0  0.31918908716E+02  0.10600933499E+02  0.22846578276E+02  0.50528896916E+02  0.30000112667E+02 0.  0.
         12    1    1    2    0    0 -0.31918908716E+02 -0.10600933499E+02 -0.22846578276E+02  0.40659103084E+02  0.00000000000E+00 0. -1.
         11    1    3    3    0    0  0.41134816702E+01  0.70514556231E+01  0.11982834325E+02  0.14499381937E+02  0.51100000000E-03 0. -1.
        -11    1    3    3    0    0  0.20697941414E+02 -0.34403673832E+01  0.14404670266E+02  0.25450646991E+02  0.51100000000E-03 0.  1.
         12    1    3    3    0    0  0.71074856317E+01  0.69898452589E+01 -0.35409263150E+01  0.10578867988E+02  0.00000000000E+00 0. -1.
</event>
<event>
 7    1  0.5479172E-013  0.5052885E+02  0.7816164E-02  0.1300439E+00
        -11   -1    0    0    0    0  0.00000000000E+00  0.00000000000E+00  0.45593999997E+02  0.45594000000E+02  0.51100000000E-03 0. -1.
         11   -1    0    0    0    0 -0.00000000000E+00 -0.00000000000E+00 -0.45593999997E+02  0.45594000000E+02  0.51100000000E-03 0.  1.
    9900012    2    1    2    0    0  0.26217205942E+02  0.35171843621E+01 -0.30878044235E+02  0.50528854793E+02  0.29999984628E+02 0.  0.
         12    1    1    2    0    0 -0.26217205942E+02 -0.35171843621E+01  0.30878044235E+02  0.40659145207E+02  0.00000000000E+00 0. -1.
         11    1    3    3    0    0 -0.10570783307E+01 -0.56222551577E+01 -0.89383847160E+01  0.10612346076E+02  0.51100000000E-03 0. -1.
        -11    1    3    3    0    0  0.60889944106E+00  0.33268207227E+01 -0.91921926386E+01  0.97946363085E+01  0.51100000000E-03 0.  1.
        -12    1    3    3    0    0  0.26665384831E+02  0.58126187971E+01 -0.12747466880E+02  0.30121872408E+02  0.00000000000E+00 0.  1.
</event>
<event>
 7    1  0.5479172E-013  0.5052886E+02  0.7816164E-02  0.1300439E+00
        -11   -1    0    0    0    0  0.00000000000E+00  0.00000000000E+00  0.45593999997E+02  0.45594000000E+02  0.51100000000E-03 0.  1.
         11   -1    0    0    0    0 -0.00000000000E+00 -0.00000000000E+00 -0.45593999997E+02  0.45594000000E+02  0.51100000000E-03 0. -1.
    9900012    2    1    2    0    0 -0.40273497768E+01  0.36100145874E+02  0.18268152719E+02  0.50528862256E+02  0.30000007312E+02 0.  0.
         12    1    1    2    0    0  0.40273497768E+01 -0.36100145874E+02 -0.18268152719E+02  0.40659137744E+02  0.00000000000E+00 0. -1.
         11    1    3    3    0    0 -0.12516314594E+02  0.12355028311E+02  0.14674789930E+01  0.17648182638E+02  0.51100000000E-03 0. -1.
        -11    1    3    3    0    0 -0.30189549235E+01  0.68126381834E+01  0.23207662204E+01  0.78046193987E+01  0.51100000000E-03 0.  1.
        -12    1    3    3    0    0  0.11507919741E+02  0.16932479379E+02  0.14479907506E+02  0.25076060219E+02  0.00000000000E+00 0.  1.
</event>
<event>
 7    1  0.5479172E-013  0.5052886E+02  0.7816164E-02  0.1300439E+00
        -11   -1    0    0    0    0  0.00000000000E+00  0.00000000000E+00  0.45593999997E+02  0.45594000000E+02  0.51100000000E-03 0.  1.
         11   -1    0    0    0    0 -0.00000000000E+00 -0.00000000000E+00 -0.45593999997E+02  0.45594000000E+02  0.51100000000E-03 0. -1.
    9900012    2    1    2    0    0 -0.18755074041E+02 -0.23750366893E+02  0.27153871224E+02  0.50528862623E+02  0.30000008427E+02 0.  0.
         12    1    1    2    0    0  0.18755074041E+02  0.23750366893E+02 -0.27153871224E+02  0.40659137377E+02  0.00000000000E+00 0. -1.
         11    1    3    3    0    0 -0.31602888329E+01  0.17723597437E+00  0.84139999642E+01  0.89896737291E+01  0.51100000000E-03 0. -1.
        -11    1    3    3    0    0  0.53942374329E+01 -0.34613316246E+01 -0.57126593471E+00  0.64346685328E+01  0.51100000000E-03 0.  1.
        -12    1    3    3    0    0 -0.20989022641E+02 -0.20466271243E+02  0.19311137195E+02  0.35104520361E+02  0.00000000000E+00 0.  1.
</event>
<event>
 7    1  0.5479172E-013  0.5052886E+02  0.7816164E-02  0.1300439E+00
        -11   -1    0    0    0    0  0.00000000000E+00  0.00000000000E+00  0.45593999997E+02  0.45594000000E+02  0.51100000000E-03 0.  1.
         11   -1    0    0    0    0 -0.00000000000E+00 -0.00000000000E+00 -0.45593999997E+02  0.45594000000E+02  0.51100000000E-03 0. -1.
    9900012    2    1    2    0    0 -0.29527762863E+02  0.27759454688E+02  0.32694448934E+01  0.50528863583E+02  0.30000011346E+02 0.  0.
         12    1    1    2    0    0  0.29527762863E+02 -0.27759454688E+02 -0.32694448934E+01  0.40659136417E+02  0.00000000000E+00 0. -1.
         11    1    3    3    0    0  0.41968781661E+01  0.52783141871E-01 -0.16824385826E+01  0.45218549563E+01  0.51100000000E-03 0. -1.
        -11    1    3    3    0    0  0.55917719411E+00  0.33371420556E+01  0.17845654912E+01  0.38254242232E+01  0.51100000000E-03 0.  1.
         12    1    3    3    0    0 -0.34283818223E+02  0.24369529491E+02  0.31673179848E+01  0.42181584403E+02  0.00000000000E+00 0. -1.
</event>
<event>
 7    1 -0.9323776E-013  0.5052886E+02  0.7816164E-02  0.1300439E+00
        -11   -1    0    0    0    0  0.00000000000E+00  0.00000000000E+00  0.45593999997E+02  0.45594000000E+02  0.51100000000E-03 0.  1.
         11   -1    0    0    0    0 -0.00000000000E+00 -0.00000000000E+00 -0.45593999997E+02  0.45594000000E+02  0.51100000000E-03 0. -1.
    9900012    2    1    2    0    0  0.38081181692E+02  0.61228022602E+01  0.12864706991E+02  0.50528858438E+02  0.29999995708E+02 0.  0.
         12    1    1    2    0    0 -0.38081181692E+02 -0.61228022602E+01 -0.12864706991E+02  0.40659141562E+02  0.00000000000E+00 0. -1.
         11    1    3    3    0    0  0.26108706943E+02 -0.31563607426E+01 -0.34932775109E+01  0.26529797953E+02  0.51100000000E-03 0. -1.
        -11    1    3    3    0    0  0.67435637299E+01  0.52037215634E+00  0.35926308417E+01  0.76585531001E+01  0.51100000000E-03 0.  1.
         12    1    3    3    0    0  0.52289110191E+01  0.87587908465E+01  0.12765353660E+02  0.16340507385E+02  0.00000000000E+00 0. -1.
</event>
<event>
 7    1  0.5479172E-013  0.5052886E+02  0.7816164E-02  0.1300439E+00
        -11   -1    0    0    0    0  0.00000000000E+00  0.00000000000E+00  0.45593999997E+02  0.45594000000E+02  0.51100000000E-03 0. -1.
         11   -1    0    0    0    0 -0.00000000000E+00 -0.00000000000E+00 -0.45593999997E+02  0.45594000000E+02  0.51100000000E-03 0.  1.
    9900012    2    1    2    0    0 -0.11033542536E+01 -0.29205873430E+02 -0.28265975478E+02  0.50528858308E+02  0.29999995313E+02 0.  0.
         12    1    1    2    0    0  0.11033542536E+01  0.29205873430E+02  0.28265975478E+02  0.40659141692E+02  0.00000000000E+00 0. -1.
         11    1    3    3    0    0 -0.34749095191E+00 -0.41250289324E+01  0.47377394269E+01  0.62914854202E+01  0.51100000000E-03 0. -1.
        -11    1    3    3    0    0  0.16837395292E+01 -0.21813175239E+02 -0.16955644977E+02  0.27679297131E+02  0.51100000000E-03 0.  1.
         12    1    3    3    0    0 -0.24396028309E+01 -0.32676692580E+01 -0.16048069928E+02  0.16558075757E+02  0.00000000000E+00 0. -1.
</event>
<event>
 7    1  0.5479172E-013  0.5052886E+02  0.7816164E-02  0.1300439E+00
        -11   -1    0    0    0    0  0.00000000000E+00  0.00000000000E+00  0.45593999997E+02  0.45594000000E+02  0.51100000000E-03 0. -1.
         11   -1    0    0    0    0 -0.00000000000E+00 -0.00000000000E+00 -0.45593999997E+02  0.45594000000E+02  0.51100000000E-03 0.  1.
    9900012    2    1    2    0    0 -0.18596728348E+02  0.29439124883E+02 -0.20992021863E+02  0.50528863745E+02  0.30000011839E+02 0.  0.
         12    1    1    2    0    0  0.18596728348E+02 -0.29439124883E+02  0.20992021863E+02  0.40659136255E+02  0.00000000000E+00 0. -1.
         11    1    3    3    0    0 -0.92639768828E+01  0.97013391669E+01 -0.19250084062E+02  0.23462800045E+02  0.51100000000E-03 0. -1.
        -11    1    3    3    0    0 -0.64627854426E+01  0.21969680197E+02 -0.32500680281E+01  0.23130010508E+02  0.51100000000E-03 0.  1.
         12    1    3    3    0    0 -0.28699660225E+01 -0.22318944816E+01  0.15081302263E+01  0.39360531916E+01  0.00000000000E+00 0. -1.
</event>
<event>
 7    1  0.5479172E-013  0.5052883E+02  0.7816164E-02  0.1300439E+00
        -11   -1    0    0    0    0  0.00000000000E+00  0.00000000000E+00  0.45593999997E+02  0.45594000000E+02  0.51100000000E-03 0.  1.
         11   -1    0    0    0    0 -0.00000000000E+00 -0.00000000000E+00 -0.45593999997E+02  0.45594000000E+02  0.51100000000E-03 0. -1.
    9900012    2    1    2    0    0 -0.32015390691E+02 -0.16520708779E+02  0.18848048926E+02  0.50528831195E+02  0.29999912899E+02 0.  0.
         12    1    1    2    0    0  0.32015390691E+02  0.16520708779E+02 -0.18848048926E+02  0.40659168805E+02  0.00000000000E+00 0. -1.
         11    1    3    3    0    0 -0.68300727670E+01  0.12302060004E+00 -0.44864231998E+01  0.81726997657E+01  0.51100000000E-03 0.  1.
        -11    1    3    3    0    0  0.20507651612E+01  0.14419379642E+01  0.73824042038E+00  0.26133928175E+01  0.51100000000E-03 0. -1.
        -12    1    3    3    0    0 -0.27236083085E+02 -0.18085667343E+02  0.22596231705E+02  0.39742738611E+02  0.00000000000E+00 0.  1.
</event>
<event>
 7    1  0.5479172E-013  0.5052878E+02  0.7816164E-02  0.1300439E+00
        -11   -1    0    0    0    0  0.00000000000E+00  0.00000000000E+00  0.45593999997E+02  0.45594000000E+02  0.51100000000E-03 0.  1.
         11   -1    0    0    0    0 -0.00000000000E+00 -0.00000000000E+00 -0.45593999997E+02  0.45594000000E+02  0.51100000000E-03 0. -1.
    9900012    2    1    2    0    0  0.27968726456E+02 -0.24629296305E+02  0.16257937440E+02  0.50528776866E+02  0.29999747762E+02 0.  0.
         12    1    1    2    0    0 -0.27968726456E+02  0.24629296305E+02 -0.16257937440E+02  0.40659223134E+02  0.00000000000E+00 0. -1.
         11    1    3    3    0    0  0.10626224314E+02 -0.63171450416E+01 -0.39649663075E+01  0.12982446716E+02  0.51100000000E-03 0. -1.
        -11    1    3    3    0    0  0.40559207705E+01 -0.85733584907E+01 -0.21867720242E+01  0.97331876204E+01  0.51100000000E-03 0.  1.
        -12    1    3    3    0    0  0.13286581371E+02 -0.97387927725E+01  0.22409675772E+02  0.27813142530E+02  0.00000000000E+00 0.  1.
</event>
<event>
 7    1  0.5479172E-013  0.5052887E+02  0.7816164E-02  0.1300439E+00
        -11   -1    0    0    0    0  0.00000000000E+00  0.00000000000E+00  0.45593999997E+02  0.45594000000E+02  0.51100000000E-03 0.  1.
         11   -1    0    0    0    0 -0.00000000000E+00 -0.00000000000E+00 -0.45593999997E+02  0.45594000000E+02  0.51100000000E-03 0. -1.
    9900012    2    1    2    0    0 -0.56709492520E+00  0.16519675823E+02  0.37147590344E+02  0.50528871206E+02  0.30000034518E+02 0.  0.
         12    1    1    2    0    0  0.56709492520E+00 -0.16519675823E+02 -0.37147590344E+02  0.40659128794E+02  0.00000000000E+00 0. -1.
         11    1    3    3    0    0 -0.37296511054E+01 -0.49316153709E+00  0.13539950061E+02  0.14052891289E+02  0.51100000000E-03 0. -1.
        -11    1    3    3    0    0  0.84330636867E+00  0.92038943275E+00  0.19719301833E+02  0.19758773934E+02  0.51100000000E-03 0.  1.
        -12    1    3    3    0    0  0.23192498115E+01  0.16092447927E+02  0.38883384500E+01  0.16717205983E+02  0.00000000000E+00 0.  1.
</event>
<event>
 7    1  0.5479172E-013  0.5052886E+02  0.7816164E-02  0.1300439E+00
        -11   -1    0    0    0    0  0.00000000000E+00  0.00000000000E+00  0.45593999997E+02  0.45594000000E+02  0.51100000000E-03 0.  1.
         11   -1    0    0    0    0 -0.00000000000E+00 -0.00000000000E+00 -0.45593999997E+02  0.45594000000E+02  0.51100000000E-03 0. -1.
    9900012    2    1    2    0    0 -0.16734659376E+02 -0.26973009142E+02  0.25408145312E+02  0.50528857180E+02  0.29999991885E+02 0.  0.
         12    1    1    2    0    0  0.16734659376E+02  0.26973009142E+02 -0.25408145312E+02  0.40659142820E+02  0.00000000000E+00 0. -1.
         11    1    3    3    0    0 -0.28450249202E+01  0.29754525318E+01  0.23235031208E+01  0.47271716257E+01  0.51100000000E-03 0. -1.
        -11    1    3    3    0    0 -0.79454887891E+01 -0.45622398076E+01  0.16558816017E+02  0.18924566370E+02  0.51100000000E-03 0.  1.
        -12    1    3    3    0    0 -0.59441456667E+01 -0.25386221867E+02  0.65258261746E+01  0.26877119184E+02  0.00000000000E+00 0.  1.
</event>
<event>
 7    1  0.5479172E-013  0.5052881E+02  0.7816164E-02  0.1300439E+00
        -11   -1    0    0    0    0  0.00000000000E+00  0.00000000000E+00  0.45593999997E+02  0.45594000000E+02  0.51100000000E-03 0. -1.
         11   -1    0    0    0    0 -0.00000000000E+00 -0.00000000000E+00 -0.45593999997E+02  0.45594000000E+02  0.51100000000E-03 0.  1.
    9900012    2    1    2    0    0  0.12905960387E+02  0.79929012081E+00 -0.38548246990E+02  0.50528806400E+02  0.29999837533E+02 0.  0.
         12    1    1    2    0    0 -0.12905960387E+02 -0.79929012081E+00  0.38548246990E+02  0.40659193600E+02  0.00000000000E+00 0. -1.
         11    1    3    3    0    0  0.11465395526E+01 -0.96059239194E+01 -0.98764375808E+01  0.13825062273E+02  0.51100000000E-03 0. -1.
        -11    1    3    3    0    0 -0.13604320325E+01  0.79088362740E+01 -0.17646506968E+02  0.19385553254E+02  0.51100000000E-03 0.  1.
        -12    1    3    3    0    0  0.13119852867E+02  0.24963777662E+01 -0.11025302441E+02  0.17318190874E+02  0.00000000000E+00 0.  1.
</event>
<event>
 7    1  0.5479172E-013  0.5052886E+02  0.7816164E-02  0.1300439E+00
        -11   -1    0    0    0    0  0.00000000000E+00  0.00000000000E+00  0.45593999997E+02  0.45594000000E+02  0.51100000000E-03 0.  1.
         11   -1    0    0    0    0 -0.00000000000E+00 -0.00000000000E+00 -0.45593999997E+02  0.45594000000E+02  0.51100000000E-03 0. -1.
    9900012    2    1    2    0    0  0.73912220609E+01  0.38927662988E+01  0.39791730249E+02  0.50528860939E+02  0.30000003310E+02 0.  0.
         12    1    1    2    0    0 -0.73912220609E+01 -0.38927662988E+01 -0.39791730249E+02  0.40659139061E+02  0.00000000000E+00 0. -1.
         11    1    3    3    0    0 -0.38093111661E+01  0.44217477247E+01  0.11983825838E+02  0.13329470600E+02  0.51100000000E-03 0. -1.
        -11    1    3    3    0    0 -0.46599621071E+01  0.55997044294E+01  0.11668364185E+02  0.13755822751E+02  0.51100000000E-03 0.  1.
        -12    1    3    3    0    0  0.15860495334E+02 -0.61286858554E+01  0.16139540225E+02  0.23443567588E+02  0.00000000000E+00 0.  1.
</event>
<event>
 7    1  0.5479172E-013  0.5052886E+02  0.7816164E-02  0.1300439E+00
        -11   -1    0    0    0    0  0.00000000000E+00  0.00000000000E+00  0.45593999997E+02  0.45594000000E+02  0.51100000000E-03 0.  1.
         11   -1    0    0    0    0 -0.00000000000E+00 -0.00000000000E+00 -0.45593999997E+02  0.45594000000E+02  0.51100000000E-03 0. -1.
    9900012    2    1    2    0    0 -0.13600151458E+02 -0.35396451898E+02  0.14672860073E+02  0.50528858969E+02  0.29999997322E+02 0.  0.
         12    1    1    2    0    0  0.13600151458E+02  0.35396451898E+02 -0.14672860073E+02  0.40659141031E+02  0.00000000000E+00 0. -1.
         11    1    3    3    0    0  0.19690722256E+01 -0.23285252995E+01  0.46079100681E+00  0.30840888627E+01  0.51100000000E-03 0. -1.
        -11    1    3    3    0    0 -0.70740839702E+01 -0.30394699612E+02  0.19774373616E+02  0.36944638051E+02  0.51100000000E-03 0.  1.
        -12    1    3    3    0    0 -0.84951397133E+01 -0.26732269868E+01 -0.55623045507E+01  0.10500132056E+02  0.00000000000E+00 0.  1.
</event>
<event>
 7    1  0.5479172E-013  0.5052886E+02  0.7816164E-02  0.1300439E+00
        -11   -1    0    0    0    0  0.00000000000E+00  0.00000000000E+00  0.45593999997E+02  0.45594000000E+02  0.51100000000E-03 0. -1.
         11   -1    0    0    0    0 -0.00000000000E+00 -0.00000000000E+00 -0.45593999997E+02  0.45594000000E+02  0.51100000000E-03 0.  1.
    9900012    2    1    2    0    0  0.94233605173E+01  0.35600103575E+02 -0.17233640514E+02  0.50528862487E+02  0.30000008014E+02 0.  0.
         12    1    1    2    0    0 -0.94233605173E+01 -0.35600103575E+02  0.17233640514E+02  0.40659137513E+02  0.00000000000E+00 0. -1.
         11    1    3    3    0    0 -0.75825597777E+00  0.79301889601E+01 -0.12640139514E+01  0.80660139227E+01  0.51100000000E-03 0. -1.
        -11    1    3    3    0    0  0.78121935583E+01  0.32628190953E+02 -0.15468841192E+02  0.36944746056E+02  0.51100000000E-03 0.  1.
         12    1    3    3    0    0  0.23694229368E+01 -0.49582763384E+01 -0.50078537065E+00  0.55181025080E+01  0.00000000000E+00 0. -1.
</event>
<event>
 7    1  0.5479172E-013  0.5052886E+02  0.7816164E-02  0.1300439E+00
        -11   -1    0    0    0    0  0.00000000000E+00  0.00000000000E+00  0.45593999997E+02  0.45594000000E+02  0.51100000000E-03 0. -1.
         11   -1    0    0    0    0 -0.00000000000E+00 -0.00000000000E+00 -0.45593999997E+02  0.45594000000E+02  0.51100000000E-03 0.  1.
    9900012    2    1    2    0    0  0.19706840354E+02 -0.90208954907E+01 -0.34401016503E+02  0.50528855289E+02  0.29999986136E+02 0.  0.
         12    1    1    2    0    0 -0.19706840354E+02  0.90208954907E+01  0.34401016503E+02  0.40659144711E+02  0.00000000000E+00 0. -1.
         11    1    3    3    0    0 -0.42706210812E+01 -0.68792659338E+01 -0.88624080017E+01  0.12004365042E+02  0.51100000000E-03 0. -1.
        -11    1    3    3    0    0  0.38854226986E+00 -0.11091055276E+01 -0.10423059055E+02  0.10489101034E+02  0.51100000000E-03 0.  1.
         12    1    3    3    0    0  0.23588919166E+02 -0.10325240293E+01 -0.15115549446E+02  0.28035389213E+02  0.00000000000E+00 0. -1.
</event>
<event>
 7    1  0.5479172E-013  0.5052886E+02  0.7816164E-02  0.1300439E+00
        -11   -1    0    0    0    0  0.00000000000E+00  0.00000000000E+00  0.45593999997E+02  0.45594000000E+02  0.51100000000E-03 0. -1.
         11   -1    0    0    0    0 -0.00000000000E+00 -0.00000000000E+00 -0.45593999997E+02  0.45594000000E+02  0.51100000000E-03 0.  1.
    9900012    2    1    2    0    0 -0.15749018671E+02  0.36949978379E+02 -0.63113636159E+01  0.50528858322E+02  0.29999995356E+02 0.  0.
         12    1    1    2    0    0  0.15749018671E+02 -0.36949978379E+02  0.63113636159E+01  0.40659141678E+02  0.00000000000E+00 0. -1.
         11    1    3    3    0    0  0.82858457038E+00 -0.14732339006E+01 -0.64151026365E+00  0.18079010469E+01  0.51100000000E-03 0. -1.
        -11    1    3    3    0    0 -0.56636833982E+01 -0.15819575091E+01 -0.42025616316E+01  0.72278228896E+01  0.51100000000E-03 0.  1.
         12    1    3    3    0    0 -0.10913919843E+02  0.40005169788E+02 -0.14672917207E+01  0.41493134386E+02  0.00000000000E+00 0. -1.
</event>
<event>
 7    1  0.5479172E-013  0.5052886E+02  0.7816164E-02  0.1300439E+00
        -11   -1    0    0    0    0  0.00000000000E+00  0.00000000000E+00  0.45593999997E+02  0.45594000000E+02  0.51100000000E-03 0.  1.
         11   -1    0    0    0    0 -0.00000000000E+00 -0.00000000000E+00 -0.45593999997E+02  0.45594000000E+02  0.51100000000E-03 0. -1.
    9900012    2    1    2    0    0  0.28474819384E+02 -0.24428809715E+02  0.15671104717E+02  0.50528860731E+02  0.30000002679E+02 0.  0.
         12    1    1    2    0    0 -0.28474819384E+02  0.24428809715E+02 -0.15671104717E+02  0.40659139269E+02  0.00000000000E+00 0. -1.
         11    1    3    3    0    0 -0.18423064054E+01 -0.27692217245E+01 -0.51850930163E+01  0.61601843885E+01  0.51100000000E-03 0. -1.
        -11    1    3    3    0    0 -0.10552123017E+01 -0.13654136580E+00  0.21883892479E+00  0.10862814010E+01  0.51100000000E-03 0.  1.
        -12    1    3    3    0    0  0.31372338091E+02 -0.21523046624E+02  0.20637358809E+02  0.43282394942E+02  0.00000000000E+00 0.  1.
</event>
<event>
 7    1  0.5479172E-013  0.5052886E+02  0.7816164E-02  0.1300439E+00
        -11   -1    0    0    0    0  0.00000000000E+00  0.00000000000E+00  0.45593999997E+02  0.45594000000E+02  0.51100000000E-03 0. -1.
         11   -1    0    0    0    0 -0.00000000000E+00 -0.00000000000E+00 -0.45593999997E+02  0.45594000000E+02  0.51100000000E-03 0.  1.
    9900012    2    1    2    0    0 -0.35593912979E+02  0.11802542765E+02 -0.15714287537E+02  0.50528862162E+02  0.30000007029E+02 0.  0.
         12    1    1    2    0    0  0.35593912979E+02 -0.11802542765E+02  0.15714287537E+02  0.40659137838E+02  0.00000000000E+00 0. -1.
         11    1    3    3    0    0 -0.53207912208E+01  0.11738345781E+01 -0.50699140563E+01  0.74426296181E+01  0.51100000000E-03 0. -1.
        -11    1    3    3    0    0 -0.23235118139E+02  0.63293482542E+01 -0.19498673772E+02  0.30985958810E+02  0.51100000000E-03 0.  1.
         12    1    3    3    0    0 -0.70380036197E+01  0.42993599331E+01  0.88543002917E+01  0.12100273734E+02  0.00000000000E+00 0. -1.
</event>
<event>
 7    1  0.9035731E-013  0.5052886E+02  0.7816164E-02  0.1300439E+00
        -11   -1    0    0    0    0  0.00000000000E+00  0.00000000000E+00  0.45593999997E+02  0.45594000000E+02  0.51100000000E-03 0. -1.
         11   -1    0    0    0    0 -0.00000000000E+00 -0.00000000000E+00 -0.45593999997E+02  0.45594000000E+02  0.51100000000E-03 0.  1.
    9900012    2    1    2    0    0  0.13519255750E+02 -0.13554523678E+02 -0.35870183841E+02  0.50528862319E+02  0.30000007505E+02 0.  0.
         12    1    1    2    0    0 -0.13519255750E+02  0.13554523678E+02  0.35870183841E+02  0.40659137681E+02  0.00000000000E+00 0. -1.
         11    1    3    3    0    0 -0.68837709940E-02  0.32834104205E+01  0.62778890855E+00  0.33428955339E+01  0.51100000000E-03 0. -1.
        -11    1    3    3    0    0 -0.39410665172E+01 -0.99249829399E+01 -0.94834540181E+01  0.14281918359E+02  0.51100000000E-03 0.  1.
        -12    1    3    3    0    0  0.17467206039E+02 -0.69129511590E+01 -0.27014518731E+02  0.32904048426E+02  0.00000000000E+00 0.  1.
</event>
<event>
 7    1  0.5479172E-013  0.5052888E+02  0.7816164E-02  0.1300439E+00
        -11   -1    0    0    0    0  0.00000000000E+00  0.00000000000E+00  0.45593999997E+02  0.45594000000E+02  0.51100000000E-03 0. -1.
         11   -1    0    0    0    0 -0.00000000000E+00 -0.00000000000E+00 -0.45593999997E+02  0.45594000000E+02  0.51100000000E-03 0.  1.
    9900012    2    1    2    0    0  0.31915026009E+02 -0.25183586436E+02  0.61820067976E+00  0.50528879461E+02  0.30000059610E+02 0.  0.
         12    1    1    2    0    0 -0.31915026009E+02  0.25183586436E+02 -0.61820067976E+00  0.40659120539E+02  0.00000000000E+00 0. -1.
         11    1    3    3    0    0  0.31551420458E+01 -0.60981806129E+01 -0.64860273983E+01  0.94451723006E+01  0.51100000000E-03 0. -1.
        -11    1    3    3    0    0  0.64207622868E+01 -0.34357965389E+01 -0.72379801698E+01  0.10267387370E+02  0.51100000000E-03 0.  1.
        -12    1    3    3    0    0  0.22339121676E+02 -0.15649609284E+02  0.14342208248E+02  0.30816319791E+02  0.00000000000E+00 0.  1.
</event>
<event>
 7    1  0.5479172E-013  0.5052885E+02  0.7816164E-02  0.1300439E+00
        -11   -1    0    0    0    0  0.00000000000E+00  0.00000000000E+00  0.45593999997E+02  0.45594000000E+02  0.51100000000E-03 0.  1.
         11   -1    0    0    0    0 -0.00000000000E+00 -0.00000000000E+00 -0.45593999997E+02  0.45594000000E+02  0.51100000000E-03 0. -1.
    9900012    2    1    2    0    0 -0.32813541143E+02  0.20116295005E+02 -0.13106213210E+02  0.50528848118E+02  0.29999964338E+02 0.  0.
         12    1    1    2    0    0  0.32813541143E+02 -0.20116295005E+02  0.13106213210E+02  0.40659151882E+02  0.00000000000E+00 0. -1.
         11    1    3    3    0    0 -0.33687996573E+01  0.10598544521E+01 -0.47574811334E+01  0.59250088258E+01  0.51100000000E-03 0. -1.
        -11    1    3    3    0    0 -0.27678609042E+02  0.35204695415E+01 -0.29279377656E+01  0.28054802158E+02  0.51100000000E-03 0.  1.
        -12    1    3    3    0    0 -0.17661324434E+01  0.15535971012E+02 -0.54207943111E+01  0.16549037134E+02  0.00000000000E+00 0.  1.
</event>
<event>
 7    1  0.5479172E-013  0.5052883E+02  0.7816164E-02  0.1300439E+00
        -11   -1    0    0    0    0  0.00000000000E+00  0.00000000000E+00  0.45593999997E+02  0.45594000000E+02  0.51100000000E-03 0.  1.
         11   -1    0    0    0    0 -0.00000000000E+00 -0.00000000000E+00 -0.45593999997E+02  0.45594000000E+02  0.51100000000E-03 0. -1.
    9900012    2    1    2    0    0 -0.20689438089E+02  0.19366337815E+02  0.29155787982E+02  0.50528832994E+02  0.29999918367E+02 0.  0.
         12    1    1    2    0    0  0.20689438089E+02 -0.19366337815E+02 -0.29155787982E+02  0.40659167006E+02  0.00000000000E+00 0. -1.
         11    1    3    3    0    0 -0.15631329128E+02  0.18802086264E+02  0.71112396271E+01  0.25464222499E+02  0.51100000000E-03 0. -1.
        -11    1    3    3    0    0 -0.57417311146E+01  0.30110777404E+01  0.60440196660E+01  0.88636470674E+01  0.51100000000E-03 0.  1.
         12    1    3    3    0    0  0.68362215292E+00 -0.24468261895E+01  0.16000528689E+02  0.16200963427E+02  0.00000000000E+00 0. -1.
</event>
<event>
 7    1  0.5479172E-013  0.5052888E+02  0.7816164E-02  0.1300439E+00
        -11   -1    0    0    0    0  0.00000000000E+00  0.00000000000E+00  0.45593999997E+02  0.45594000000E+02  0.51100000000E-03 0.  1.
         11   -1    0    0    0    0 -0.00000000000E+00 -0.00000000000E+00 -0.45593999997E+02  0.45594000000E+02  0.51100000000E-03 0. -1.
    9900012    2    1    2    0    0  0.40959638354E+01  0.17153623492E+02  0.36635238376E+02  0.50528875446E+02  0.30000047404E+02 0.  0.
         12    1    1    2    0    0 -0.40959638354E+01 -0.17153623492E+02 -0.36635238376E+02  0.40659124554E+02  0.00000000000E+00 0. -1.
         11    1    3    3    0    0 -0.22733699461E+01 -0.56627624292E+00 -0.11840104316E+01  0.26250258396E+01  0.51100000000E-03 0. -1.
        -11    1    3    3    0    0  0.63076377843E+00  0.20823200185E+02  0.35139909396E+02  0.40851153735E+02  0.51100000000E-03 0.  1.
         12    1    3    3    0    0  0.57385700031E+01 -0.31033004497E+01  0.26793394117E+01  0.70526958707E+01  0.00000000000E+00 0. -1.
</event>
<event>
 7    1  0.5479172E-013  0.5052886E+02  0.7816164E-02  0.1300439E+00
        -11   -1    0    0    0    0  0.00000000000E+00  0.00000000000E+00  0.45593999997E+02  0.45594000000E+02  0.51100000000E-03 0. -1.
         11   -1    0    0    0    0 -0.00000000000E+00 -0.00000000000E+00 -0.45593999997E+02  0.45594000000E+02  0.51100000000E-03 0.  1.
    9900012    2    1    2    0    0 -0.31925394571E+02  0.19469688520E+02 -0.15964523864E+02  0.50528860661E+02  0.30000002465E+02 0.  0.
         12    1    1    2    0    0  0.31925394571E+02 -0.19469688520E+02  0.15964523864E+02  0.40659139339E+02  0.00000000000E+00 0. -1.
         11    1    3    3    0    0 -0.21355270858E+01  0.48757870713E+01  0.28882364006E+00  0.53307780722E+01  0.51100000000E-03 0. -1.
        -11    1    3    3    0    0 -0.23330196059E+02  0.21114864764E+02 -0.17385308974E+02  0.35949750076E+02  0.51100000000E-03 0.  1.
        -12    1    3    3    0    0 -0.64596714266E+01 -0.65209633152E+01  0.11319614702E+01  0.92483325128E+01  0.00000000000E+00 0.  1.
</event>
<event>
 7    1  0.5479172E-013  0.5052889E+02  0.7816164E-02  0.1300439E+00
        -11   -1    0    0    0    0  0.00000000000E+00  0.00000000000E+00  0.45593999997E+02  0.45594000000E+02  0.51100000000E-03 0.  1.
         11   -1    0    0    0    0 -0.00000000000E+00 -0.00000000000E+00 -0.45593999997E+02  0.45594000000E+02  0.51100000000E-03 0. -1.
    9900012    2    1    2    0    0  0.25612364001E+02  0.30453516790E+02  0.83518686204E+01  0.50528885597E+02  0.30000078259E+02 0.  0.
         12    1    1    2    0    0 -0.25612364001E+02 -0.30453516790E+02 -0.83518686204E+01  0.40659114403E+02  0.00000000000E+00 0. -1.
         11    1    3    3    0    0 -0.32204292344E+00 -0.41647775333E+01  0.10667118160E+01  0.43112594339E+01  0.51100000000E-03 0. -1.
        -11    1    3    3    0    0  0.11374745951E+02  0.61847167141E+01 -0.16370710173E+01  0.13050500682E+02  0.51100000000E-03 0.  1.
         12    1    3    3    0    0  0.14559660974E+02  0.28433577609E+02  0.89222278217E+01  0.33167125480E+02  0.00000000000E+00 0. -1.
</event>
<event>
 7    1  0.5479172E-013  0.5052880E+02  0.7816164E-02  0.1300439E+00
        -11   -1    0    0    0    0  0.00000000000E+00  0.00000000000E+00  0.45593999997E+02  0.45594000000E+02  0.51100000000E-03 0. -1.
         11   -1    0    0    0    0 -0.00000000000E+00 -0.00000000000E+00 -0.45593999997E+02  0.45594000000E+02  0.51100000000E-03 0.  1.
    9900012    2    1    2    0    0 -0.12769189995E+02  0.27565670713E+02 -0.27023171826E+02  0.50528803863E+02  0.29999829823E+02 0.  0.
         12    1    1    2    0    0  0.12769189995E+02 -0.27565670713E+02  0.27023171826E+02  0.40659196137E+02  0.00000000000E+00 0. -1.
         11    1    3    3    0    0  0.26569107386E+01  0.15348297981E+02 -0.50232804346E+01  0.16366513745E+02  0.51100000000E-03 0. -1.
        -11    1    3    3    0    0  0.99083263700E+00  0.90455042456E+00  0.23411433366E+01  0.26983167288E+01  0.51100000000E-03 0.  1.
        -12    1    3    3    0    0 -0.16416933370E+02  0.11312822307E+02 -0.24341034728E+02  0.31463973389E+02  0.00000000000E+00 0.  1.
</event>
<event>
 7    1  0.5479172E-013  0.5052887E+02  0.7816164E-02  0.1300439E+00
        -11   -1    0    0    0    0  0.00000000000E+00  0.00000000000E+00  0.45593999997E+02  0.45594000000E+02  0.51100000000E-03 0. -1.
         11   -1    0    0    0    0 -0.00000000000E+00 -0.00000000000E+00 -0.45593999997E+02  0.45594000000E+02  0.51100000000E-03 0.  1.
    9900012    2    1    2    0    0  0.26255283437E+02 -0.17705228393E+02 -0.25501959482E+02  0.50528868698E+02  0.30000026895E+02 0.  0.
         12    1    1    2    0    0 -0.26255283437E+02  0.17705228393E+02  0.25501959482E+02  0.40659131302E+02  0.00000000000E+00 0. -1.
         11    1    3    3    0    0  0.10493731163E+02 -0.54784562723E+01 -0.22861875200E+01  0.12056472556E+02  0.51100000000E-03 0. -1.
        -11    1    3    3    0    0  0.11510131533E+02  0.19028517571E+00 -0.22564758747E+02  0.25331554905E+02  0.51100000000E-03 0.  1.
         12    1    3    3    0    0  0.42514207408E+01 -0.12417057296E+02 -0.65101321500E+00  0.13140841237E+02  0.00000000000E+00 0. -1.
</event>
<event>
 7    1  0.5479172E-013  0.5052886E+02  0.7816164E-02  0.1300439E+00
        -11   -1    0    0    0    0  0.00000000000E+00  0.00000000000E+00  0.45593999997E+02  0.45594000000E+02  0.51100000000E-03 0.  1.
         11   -1    0    0    0    0 -0.00000000000E+00 -0.00000000000E+00 -0.45593999997E+02  0.45594000000E+02  0.51100000000E-03 0. -1.
    9900012    2    1    2    0    0  0.40537940621E+02  0.85456031213E+00  0.30183399681E+01  0.50528864750E+02  0.30000014895E+02 0.  0.
         12    1    1    2    0    0 -0.40537940621E+02 -0.85456031213E+00 -0.30183399681E+01  0.40659135250E+02  0.00000000000E+00 0. -1.
         11    1    3    3    0    0 -0.44682273411E+00  0.53415429671E+01  0.28788042001E+01  0.60843443122E+01  0.51100000000E-03 0. -1.
        -11    1    3    3    0    0  0.16684162986E+02  0.31847193031E+01 -0.63747315024E+01  0.18142241691E+02  0.51100000000E-03 0.  1.
        -12    1    3    3    0    0  0.24300600369E+02 -0.76717019581E+01  0.65142672704E+01  0.26302278747E+02  0.00000000000E+00 0.  1.
</event>
<event>
 7    1  0.5479172E-013  0.5052885E+02  0.7816164E-02  0.1300439E+00
        -11   -1    0    0    0    0  0.00000000000E+00  0.00000000000E+00  0.45593999997E+02  0.45594000000E+02  0.51100000000E-03 0.  1.
         11   -1    0    0    0    0 -0.00000000000E+00 -0.00000000000E+00 -0.45593999997E+02  0.45594000000E+02  0.51100000000E-03 0. -1.
    9900012    2    1    2    0    0 -0.36405359911E+02 -0.25076475197E+01  0.17931189364E+02  0.50528854924E+02  0.29999985026E+02 0.  0.
         12    1    1    2    0    0  0.36405359911E+02  0.25076475197E+01 -0.17931189364E+02  0.40659145076E+02  0.00000000000E+00 0. -1.
         11    1    3    3    0    0 -0.12518606912E+02 -0.28843774492E+01 -0.16966125179E+01  0.12958149814E+02  0.51100000000E-03 0. -1.
        -11    1    3    3    0    0 -0.24923486659E+02  0.65451233531E+01  0.15372241303E+02  0.30005410011E+02  0.51100000000E-03 0.  1.
        -12    1    3    3    0    0  0.10367336602E+01 -0.61683934236E+01  0.42555605780E+01  0.75652950995E+01  0.00000000000E+00 0.  1.
</event>
<event>
 7    1  0.5479172E-013  0.5052886E+02  0.7816164E-02  0.1300439E+00
        -11   -1    0    0    0    0  0.00000000000E+00  0.00000000000E+00  0.45593999997E+02  0.45594000000E+02  0.51100000000E-03 0.  1.
         11   -1    0    0    0    0 -0.00000000000E+00 -0.00000000000E+00 -0.45593999997E+02  0.45594000000E+02  0.51100000000E-03 0. -1.
    9900012    2    1    2    0    0 -0.19730940485E+02  0.22630857697E+02  0.27417153974E+02  0.50528855093E+02  0.29999985541E+02 0.  0.
         12    1    1    2    0    0  0.19730940485E+02 -0.22630857697E+02 -0.27417153974E+02  0.40659144907E+02  0.00000000000E+00 0. -1.
         11    1    3    3    0    0 -0.92349471323E+01  0.34170430153E+01  0.30457374769E+01  0.10307130956E+02  0.51100000000E-03 0. -1.
        -11    1    3    3    0    0 -0.17608334201E+02  0.12373680226E+02  0.12904786859E+02  0.25093722717E+02  0.51100000000E-03 0.  1.
        -12    1    3    3    0    0  0.71123408481E+01  0.68401344558E+01  0.11466629638E+02  0.15128001420E+02  0.00000000000E+00 0.  1.
</event>
<event>
 7    1  0.5479172E-013  0.5052886E+02  0.7816164E-02  0.1300439E+00
        -11   -1    0    0    0    0  0.00000000000E+00  0.00000000000E+00  0.45593999997E+02  0.45594000000E+02  0.51100000000E-03 0.  1.
         11   -1    0    0    0    0 -0.00000000000E+00 -0.00000000000E+00 -0.45593999997E+02  0.45594000000E+02  0.51100000000E-03 0. -1.
    9900012    2    1    2    0    0  0.61795189138E+01 -0.90925979146E+01  0.39144656177E+02  0.50528857140E+02  0.29999991764E+02 0.  0.
         12    1    1    2    0    0 -0.61795189138E+01  0.90925979146E+01 -0.39144656177E+02  0.40659142860E+02  0.00000000000E+00 0. -1.
         11    1    3    3    0    0  0.54383619298E+01  0.34006138849E+01 -0.15747040992E+01  0.66045172825E+01  0.51100000000E-03 0. -1.
        -11    1    3    3    0    0 -0.34171038798E+00  0.12135469797E+01  0.12185535130E+02  0.12250580759E+02  0.51100000000E-03 0.  1.
         12    1    3    3    0    0  0.10828673719E+01 -0.13706758779E+02  0.28533825147E+02  0.31673759099E+02  0.00000000000E+00 0. -1.
</event>
<event>
 7    1  0.5479172E-013  0.5052885E+02  0.7816164E-02  0.1300439E+00
        -11   -1    0    0    0    0  0.00000000000E+00  0.00000000000E+00  0.45593999997E+02  0.45594000000E+02  0.51100000000E-03 0.  1.
         11   -1    0    0    0    0 -0.00000000000E+00 -0.00000000000E+00 -0.45593999997E+02  0.45594000000E+02  0.51100000000E-03 0. -1.
    9900012    2    1    2    0    0 -0.34010669392E+02  0.22195525767E+02 -0.19492866862E+01  0.50528847093E+02  0.29999961222E+02 0.  0.
         12    1    1    2    0    0  0.34010669392E+02 -0.22195525767E+02  0.19492866862E+01  0.40659152907E+02  0.00000000000E+00 0. -1.
         11    1    3    3    0    0 -0.16051083680E+02  0.22691093056E+02  0.59363809470E+01  0.28421182424E+02  0.51100000000E-03 0. -1.
        -11    1    3    3    0    0 -0.81964397182E+01  0.21120157773E+01  0.11622772042E+01  0.85436013050E+01  0.51100000000E-03 0.  1.
         12    1    3    3    0    0 -0.97631459936E+01 -0.26075830662E+01 -0.90479448374E+01  0.13564063363E+02  0.00000000000E+00 0. -1.
</event>
<event>
 7    1  0.5479172E-013  0.5052886E+02  0.7816164E-02  0.1300439E+00
        -11   -1    0    0    0    0  0.00000000000E+00  0.00000000000E+00  0.45593999997E+02  0.45594000000E+02  0.51100000000E-03 0. -1.
         11   -1    0    0    0    0 -0.00000000000E+00 -0.00000000000E+00 -0.45593999997E+02  0.45594000000E+02  0.51100000000E-03 0.  1.
    9900012    2    1    2    0    0 -0.19059055013E+02 -0.28886605518E+02 -0.21342020014E+02  0.50528863578E+02  0.30000011330E+02 0.  0.
         12    1    1    2    0    0  0.19059055013E+02  0.28886605518E+02  0.21342020014E+02  0.40659136422E+02  0.00000000000E+00 0. -1.
         11    1    3    3    0    0 -0.34320842513E+01 -0.78237740908E+01 -0.76824155839E+01  0.11489567128E+02  0.51100000000E-03 0. -1.
        -11    1    3    3    0    0 -0.26063108293E+01 -0.20410683136E+01 -0.15561401665E+02  0.15909620927E+02  0.51100000000E-03 0.  1.
         12    1    3    3    0    0 -0.13020659932E+02 -0.19021763114E+02  0.19017972354E+01  0.23129675522E+02  0.00000000000E+00 0. -1.
</event>
<event>
 7    1  0.5479172E-013  0.5052886E+02  0.7816164E-02  0.1300439E+00
        -11   -1    0    0    0    0  0.00000000000E+00  0.00000000000E+00  0.45593999997E+02  0.45594000000E+02  0.51100000000E-03 0. -1.
         11   -1    0    0    0    0 -0.00000000000E+00 -0.00000000000E+00 -0.45593999997E+02  0.45594000000E+02  0.51100000000E-03 0.  1.
    9900012    2    1    2    0    0 -0.40569823857E+02  0.22807972379E+01  0.14328388971E+01  0.50528859931E+02  0.30000000246E+02 0.  0.
         12    1    1    2    0    0  0.40569823857E+02 -0.22807972379E+01 -0.14328388971E+01  0.40659140069E+02  0.00000000000E+00 0. -1.
         11    1    3    3    0    0 -0.95529022981E+01 -0.11167963922E+02  0.38807199260E+00  0.14701427162E+02  0.51100000000E-03 0. -1.
        -11    1    3    3    0    0 -0.45664350854E+01  0.40062183306E+01 -0.40263109626E+01  0.72878868632E+01  0.51100000000E-03 0.  1.
         12    1    3    3    0    0 -0.26450486474E+02  0.94425428289E+01  0.50710778671E+01  0.28539545906E+02  0.00000000000E+00 0. -1.
</event>
<event>
 7    1  0.5479172E-013  0.5052884E+02  0.7816164E-02  0.1300439E+00
        -11   -1    0    0    0    0  0.00000000000E+00  0.00000000000E+00  0.45593999997E+02  0.45594000000E+02  0.51100000000E-03 0.  1.
         11   -1    0    0    0    0 -0.00000000000E+00 -0.00000000000E+00 -0.45593999997E+02  0.45594000000E+02  0.51100000000E-03 0. -1.
    9900012    2    1    2    0    0  0.36302984491E+02  0.25698960958E+01  0.18128885945E+02  0.50528836770E+02  0.29999929847E+02 0.  0.
         12    1    1    2    0    0 -0.36302984491E+02 -0.25698960958E+01 -0.18128885945E+02  0.40659163230E+02  0.00000000000E+00 0. -1.
         11    1    3    3    0    0 -0.20492913018E+01 -0.11080272105E+01 -0.50271758160E-01  0.23302031348E+01  0.51100000000E-03 0. -1.
        -11    1    3    3    0    0  0.14552966515E+01 -0.14487720177E+00  0.10137546327E+02  0.10242495963E+02  0.51100000000E-03 0.  1.
        -12    1    3    3    0    0  0.36896979142E+02  0.38228005081E+01  0.80416113761E+01  0.37956137673E+02  0.00000000000E+00 0.  1.
</event>
<event>
 7    1  0.5479172E-013  0.5052885E+02  0.7816164E-02  0.1300439E+00
        -11   -1    0    0    0    0  0.00000000000E+00  0.00000000000E+00  0.45593999997E+02  0.45594000000E+02  0.51100000000E-03 0. -1.
         11   -1    0    0    0    0 -0.00000000000E+00 -0.00000000000E+00 -0.45593999997E+02  0.45594000000E+02  0.51100000000E-03 0.  1.
    9900012    2    1    2    0    0  0.36449982376E+01 -0.13974640933E+02 -0.38007766003E+02  0.50528845091E+02  0.29999955140E+02 0.  0.
         12    1    1    2    0    0 -0.36449982376E+01  0.13974640933E+02  0.38007766003E+02  0.40659154909E+02  0.00000000000E+00 0. -1.
         11    1    3    3    0    0 -0.12086084502E+02 -0.21380319935E+01 -0.14279329588E+02  0.18829335441E+02  0.51100000000E-03 0. -1.
        -11    1    3    3    0    0  0.78373283239E+01 -0.78822271653E+01 -0.18063519050E+02  0.21209524773E+02  0.51100000000E-03 0.  1.
        -12    1    3    3    0    0  0.78937544157E+01 -0.39543817745E+01 -0.56649173642E+01  0.10489984878E+02  0.00000000000E+00 0.  1.
</event>
<event>
 7    1  0.5479172E-013  0.5052885E+02  0.7816164E-02  0.1300439E+00
        -11   -1    0    0    0    0  0.00000000000E+00  0.00000000000E+00  0.45593999997E+02  0.45594000000E+02  0.51100000000E-03 0.  1.
         11   -1    0    0    0    0 -0.00000000000E+00 -0.00000000000E+00 -0.45593999997E+02  0.45594000000E+02  0.51100000000E-03 0. -1.
    9900012    2    1    2    0    0  0.15504628413E+02 -0.35106755111E+02  0.13427161317E+02  0.50528850751E+02  0.29999972342E+02 0.  0.
         12    1    1    2    0    0 -0.15504628413E+02  0.35106755111E+02 -0.13427161317E+02  0.40659149249E+02  0.00000000000E+00 0. -1.
         11    1    3    3    0    0 -0.12237025329E+01 -0.36823333310E+00  0.15871604130E+01  0.20376756647E+01  0.51100000000E-03 0. -1.
        -11    1    3    3    0    0 -0.25878511028E+01 -0.25245907058E+02  0.81481674892E+01  0.26654182228E+02  0.51100000000E-03 0.  1.
        -12    1    3    3    0    0  0.19316182049E+02 -0.94926147192E+01  0.36918334148E+01  0.21836992859E+02  0.00000000000E+00 0.  1.
</event>
<event>
 7    1  0.5479172E-013  0.5052886E+02  0.7816164E-02  0.1300439E+00
        -11   -1    0    0    0    0  0.00000000000E+00  0.00000000000E+00  0.45593999997E+02  0.45594000000E+02  0.51100000000E-03 0.  1.
         11   -1    0    0    0    0 -0.00000000000E+00 -0.00000000000E+00 -0.45593999997E+02  0.45594000000E+02  0.51100000000E-03 0. -1.
    9900012    2    1    2    0    0 -0.13148433492E+02 -0.38196150653E+02  0.46193592434E+01  0.50528859480E+02  0.29999998875E+02 0.  0.
         12    1    1    2    0    0  0.13148433492E+02  0.38196150653E+02 -0.46193592434E+01  0.40659140520E+02  0.00000000000E+00 0. -1.
         11    1    3    3    0    0  0.42303836619E+01 -0.73602792379E+01  0.16653546691E+01  0.86512000799E+01  0.51100000000E-03 0. -1.
        -11    1    3    3    0    0 -0.23052567950E+01 -0.53442096093E+01  0.98771239306E+01  0.11464395433E+02  0.51100000000E-03 0.  1.
        -12    1    3    3    0    0 -0.15073560359E+02 -0.25491661806E+02 -0.69231193562E+01  0.30413263967E+02  0.00000000000E+00 0.  1.
</event>
<event>
 7    1  0.5479172E-013  0.5052886E+02  0.7816164E-02  0.1300439E+00
        -11   -1    0    0    0    0  0.00000000000E+00  0.00000000000E+00  0.45593999997E+02  0.45594000000E+02  0.51100000000E-03 0.  1.
         11   -1    0    0    0    0 -0.00000000000E+00 -0.00000000000E+00 -0.45593999997E+02  0.45594000000E+02  0.51100000000E-03 0. -1.
    9900012    2    1    2    0    0  0.65779306175E+01 -0.39422249370E+02 -0.74687902196E+01  0.50528859036E+02  0.29999997525E+02 0.  0.
         12    1    1    2    0    0 -0.65779306175E+01  0.39422249370E+02  0.74687902196E+01  0.40659140964E+02  0.00000000000E+00 0. -1.
         11    1    3    3    0    0 -0.32650088460E-01 -0.56283966404E+00  0.43346568944E+01  0.43711674835E+01  0.51100000000E-03 0. -1.
        -11    1    3    3    0    0  0.57126509418E+01 -0.36329207472E+00  0.46729458073E+00  0.57432330964E+01  0.51100000000E-03 0.  1.
        -12    1    3    3    0    0  0.89792976417E+00 -0.38496117631E+02 -0.12270741695E+02  0.40414458456E+02  0.00000000000E+00 0.  1.
</event>
<event>
 7    1  0.5479172E-013  0.5052888E+02  0.7816164E-02  0.1300439E+00
        -11   -1    0    0    0    0  0.00000000000E+00  0.00000000000E+00  0.45593999997E+02  0.45594000000E+02  0.51100000000E-03 0.  1.
         11   -1    0    0    0    0 -0.00000000000E+00 -0.00000000000E+00 -0.45593999997E+02  0.45594000000E+02  0.51100000000E-03 0. -1.
    9900012    2    1    2    0    0  0.14917411588E+02  0.88904840627E+01  0.36764034717E+02  0.50528878956E+02  0.30000058076E+02 0.  0.
         12    1    1    2    0    0 -0.14917411588E+02 -0.88904840627E+01 -0.36764034717E+02  0.40659121044E+02  0.00000000000E+00 0. -1.
         11    1    3    3    0    0 -0.40157398949E+01  0.97619901543E+01  0.97436457469E+01  0.14365279370E+02  0.51100000000E-03 0. -1.
        -11    1    3    3    0    0 -0.23559853811E+01  0.66225949381E+00  0.45837619404E+01  0.51961647916E+01  0.51100000000E-03 0.  1.
        -12    1    3    3    0    0  0.21289136864E+02 -0.15337655854E+01  0.22436627030E+02  0.30967434795E+02  0.00000000000E+00 0.  1.
</event>
<event>
 7    1  0.5479172E-013  0.5052886E+02  0.7816164E-02  0.1300439E+00
        -11   -1    0    0    0    0  0.00000000000E+00  0.00000000000E+00  0.45593999997E+02  0.45594000000E+02  0.51100000000E-03 0.  1.
         11   -1    0    0    0    0 -0.00000000000E+00 -0.00000000000E+00 -0.45593999997E+02  0.45594000000E+02  0.51100000000E-03 0. -1.
    9900012    2    1    2    0    0  0.89361206334E+01  0.12161064673E+02  0.37754729997E+02  0.50528863474E+02  0.30000011015E+02 0.  0.
         12    1    1    2    0    0 -0.89361206334E+01 -0.12161064673E+02 -0.37754729997E+02  0.40659136526E+02  0.00000000000E+00 0. -1.
         11    1    3    3    0    0  0.44796477609E+01 -0.44800626371E+01  0.15321580648E+02  0.16579778017E+02  0.51100000000E-03 0. -1.
        -11    1    3    3    0    0  0.47557046640E+00  0.20570014996E+01  0.18099918722E+02  0.18222636484E+02  0.51100000000E-03 0.  1.
        -12    1    3    3    0    0  0.39809024061E+01  0.14584125810E+02  0.43332306268E+01  0.15726448972E+02  0.00000000000E+00 0.  1.
</event>
<event>
 7    1  0.5479172E-013  0.5052887E+02  0.7816164E-02  0.1300439E+00
        -11   -1    0    0    0    0  0.00000000000E+00  0.00000000000E+00  0.45593999997E+02  0.45594000000E+02  0.51100000000E-03 0.  1.
         11   -1    0    0    0    0 -0.00000000000E+00 -0.00000000000E+00 -0.45593999997E+02  0.45594000000E+02  0.51100000000E-03 0. -1.
    9900012    2    1    2    0    0  0.39324097902E+02 -0.22185282466E+01  0.10092484355E+02  0.50528870843E+02  0.30000033413E+02 0.  0.
         12    1    1    2    0    0 -0.39324097902E+02  0.22185282466E+01 -0.10092484355E+02  0.40659129157E+02  0.00000000000E+00 0. -1.
         11    1    3    3    0    0 -0.11416371582E+01 -0.37623647425E-01  0.20551923024E+01  0.23512904119E+01  0.51100000000E-03 0. -1.
        -11    1    3    3    0    0  0.18149208910E+02  0.36619802030E+01  0.15272212387E+02  0.24000924035E+02  0.51100000000E-03 0.  1.
         12    1    3    3    0    0  0.22316526150E+02 -0.58428848021E+01 -0.72349203352E+01  0.24176656396E+02  0.00000000000E+00 0. -1.
</event>
<event>
 7    1  0.5479172E-013  0.5052886E+02  0.7816164E-02  0.1300439E+00
        -11   -1    0    0    0    0  0.00000000000E+00  0.00000000000E+00  0.45593999997E+02  0.45594000000E+02  0.51100000000E-03 0.  1.
         11   -1    0    0    0    0 -0.00000000000E+00 -0.00000000000E+00 -0.45593999997E+02  0.45594000000E+02  0.51100000000E-03 0. -1.
    9900012    2    1    2    0    0  0.33662037723E+02  0.74253683371E+00  0.22792134253E+02  0.50528861687E+02  0.30000005583E+02 0.  0.
         12    1    1    2    0    0 -0.33662037723E+02 -0.74253683371E+00 -0.22792134253E+02  0.40659138313E+02  0.00000000000E+00 0. -1.
         11    1    3    3    0    0  0.60473156017E+01  0.17772329344E+01 -0.62487953117E+00  0.63339606550E+01  0.51100000000E-03 0.  1.
        -11    1    3    3    0    0  0.75909936984E+01  0.53104612758E+01 -0.36295756355E+01  0.99497740601E+01  0.51100000000E-03 0. -1.
        -12    1    3    3    0    0  0.20023728423E+02 -0.63451573765E+01  0.27046589419E+02  0.34245126972E+02  0.00000000000E+00 0.  1.
</event>
<event>
 7    1  0.5479172E-013  0.5052882E+02  0.7816164E-02  0.1300439E+00
        -11   -1    0    0    0    0  0.00000000000E+00  0.00000000000E+00  0.45593999997E+02  0.45594000000E+02  0.51100000000E-03 0.  1.
         11   -1    0    0    0    0 -0.00000000000E+00 -0.00000000000E+00 -0.45593999997E+02  0.45594000000E+02  0.51100000000E-03 0. -1.
    9900012    2    1    2    0    0 -0.20274187714E+02 -0.23170221186E+02  0.26556859834E+02  0.50528823404E+02  0.29999889218E+02 0.  0.
         12    1    1    2    0    0  0.20274187714E+02  0.23170221186E+02 -0.26556859834E+02  0.40659176596E+02  0.00000000000E+00 0. -1.
         11    1    3    3    0    0 -0.70298879200E+00 -0.52581084212E+01  0.10938748902E+02  0.12157225227E+02  0.51100000000E-03 0. -1.
        -11    1    3    3    0    0 -0.12512661497E+02 -0.19681626289E+02  0.19248178800E+02  0.30239469217E+02  0.51100000000E-03 0.  1.
         12    1    3    3    0    0 -0.70585374253E+01  0.17695135247E+01 -0.36300678688E+01  0.81321289605E+01  0.00000000000E+00 0. -1.
</event>
<event>
 7    1  0.5479172E-013  0.5052883E+02  0.7816164E-02  0.1300439E+00
        -11   -1    0    0    0    0  0.00000000000E+00  0.00000000000E+00  0.45593999997E+02  0.45594000000E+02  0.51100000000E-03 0.  1.
         11   -1    0    0    0    0 -0.00000000000E+00 -0.00000000000E+00 -0.45593999997E+02  0.45594000000E+02  0.51100000000E-03 0. -1.
    9900012    2    1    2    0    0 -0.15139703743E+01 -0.36216283403E+02  0.18418916366E+02  0.50528834122E+02  0.29999921798E+02 0.  0.
         12    1    1    2    0    0  0.15139703743E+01  0.36216283403E+02 -0.18418916366E+02  0.40659165878E+02  0.00000000000E+00 0. -1.
         11    1    3    3    0    0  0.20182707711E+01 -0.17626044324E+01 -0.37562016704E+01  0.46140267165E+01  0.51100000000E-03 0. -1.
        -11    1    3    3    0    0 -0.34165633304E+01 -0.56821753282E+01 -0.33715664212E+01  0.74382445405E+01  0.51100000000E-03 0.  1.
        -12    1    3    3    0    0 -0.11567781505E+00 -0.28771503642E+02  0.25546684457E+02  0.38476562865E+02  0.00000000000E+00 0.  1.
</event>
<event>
 7    1  0.5479172E-013  0.5052887E+02  0.7816164E-02  0.1300439E+00
        -11   -1    0    0    0    0  0.00000000000E+00  0.00000000000E+00  0.45593999997E+02  0.45594000000E+02  0.51100000000E-03 0.  1.
         11   -1    0    0    0    0 -0.00000000000E+00 -0.00000000000E+00 -0.45593999997E+02  0.45594000000E+02  0.51100000000E-03 0. -1.
    9900012    2    1    2    0    0  0.16633147647E+02  0.36873909483E+02  0.41010104108E+01  0.50528867107E+02  0.30000022058E+02 0.  0.
         12    1    1    2    0    0 -0.16633147647E+02 -0.36873909483E+02 -0.41010104108E+01  0.40659132893E+02  0.00000000000E+00 0. -1.
         11    1    3    3    0    0  0.91784463551E+01  0.14449698847E+02 -0.15399863536E+01  0.17187473127E+02  0.51100000000E-03 0. -1.
        -11    1    3    3    0    0  0.37882437694E+01  0.26550180749E+02  0.23658970365E+01  0.26923230818E+02  0.51100000000E-03 0.  1.
         12    1    3    3    0    0  0.36664575227E+01 -0.41259701129E+01  0.32750997279E+01  0.64181631613E+01  0.00000000000E+00 0. -1.
</event>
<event>
 7    1  0.5479172E-013  0.5052889E+02  0.7816164E-02  0.1300439E+00
        -11   -1    0    0    0    0  0.00000000000E+00  0.00000000000E+00  0.45593999997E+02  0.45594000000E+02  0.51100000000E-03 0.  1.
         11   -1    0    0    0    0 -0.00000000000E+00 -0.00000000000E+00 -0.45593999997E+02  0.45594000000E+02  0.51100000000E-03 0. -1.
    9900012    2    1    2    0    0 -0.38318347733E+02  0.13330478914E+02 -0.26769633079E+01  0.50528885725E+02  0.30000078649E+02 0.  0.
         12    1    1    2    0    0  0.38318347733E+02 -0.13330478914E+02  0.26769633079E+01  0.40659114275E+02  0.00000000000E+00 0. -1.
         11    1    3    3    0    0 -0.20608718030E+02  0.12903390034E+02 -0.46685598411E+01  0.24759082868E+02  0.51100000000E-03 0.  1.
        -11    1    3    3    0    0  0.16627951272E+01  0.51111146069E+01  0.22767244941E+01  0.58371101448E+01  0.51100000000E-03 0. -1.
        -12    1    3    3    0    0 -0.19372424830E+02 -0.46840257261E+01 -0.28512796092E+00  0.19932692712E+02  0.00000000000E+00 0.  1.
</event>
<event>
 7    1  0.5479172E-013  0.5052886E+02  0.7816164E-02  0.1300439E+00
        -11   -1    0    0    0    0  0.00000000000E+00  0.00000000000E+00  0.45593999997E+02  0.45594000000E+02  0.51100000000E-03 0. -1.
         11   -1    0    0    0    0 -0.00000000000E+00 -0.00000000000E+00 -0.45593999997E+02  0.45594000000E+02  0.51100000000E-03 0.  1.
    9900012    2    1    2    0    0 -0.39966030056E+02  0.34965038138E+01  0.66073296515E+01  0.50528857087E+02  0.29999991601E+02 0.  0.
         12    1    1    2    0    0  0.39966030056E+02 -0.34965038138E+01 -0.66073296515E+01  0.40659142913E+02  0.00000000000E+00 0. -1.
         11    1    3    3    0    0 -0.22793188696E+01  0.25280424955E+01  0.51391070643E+01  0.61641475524E+01  0.51100000000E-03 0. -1.
        -11    1    3    3    0    0 -0.25414627940E+01  0.80111861690E+01 -0.83998573332E+00  0.84465207784E+01  0.51100000000E-03 0.  1.
        -12    1    3    3    0    0 -0.35145248392E+02 -0.70427248507E+01  0.23082083205E+01  0.35918188756E+02  0.00000000000E+00 0.  1.
</event>
<event>
 7    1  0.5479172E-013  0.5052885E+02  0.7816164E-02  0.1300439E+00
        -11   -1    0    0    0    0  0.00000000000E+00  0.00000000000E+00  0.45593999997E+02  0.45594000000E+02  0.51100000000E-03 0. -1.
         11   -1    0    0    0    0 -0.00000000000E+00 -0.00000000000E+00 -0.45593999997E+02  0.45594000000E+02  0.51100000000E-03 0.  1.
    9900012    2    1    2    0    0 -0.20595563315E+02  0.35033690669E+02  0.12766288022E+01  0.50528849846E+02  0.29999969593E+02 0.  0.
         12    1    1    2    0    0  0.20595563315E+02 -0.35033690669E+02 -0.12766288022E+01  0.40659150154E+02  0.00000000000E+00 0. -1.
         11    1    3    3    0    0 -0.35407909947E+01  0.12109195550E+02  0.53510800385E+01  0.13704155413E+02  0.51100000000E-03 0. -1.
        -11    1    3    3    0    0 -0.94230248674E+01  0.26079192904E+02 -0.26575577469E+00  0.27730638769E+02  0.51100000000E-03 0.  1.
        -12    1    3    3    0    0 -0.76317474526E+01 -0.31546977854E+01 -0.38086954617E+01  0.90940556638E+01  0.00000000000E+00 0.  1.
</event>
<event>
 7    1  0.5479172E-013  0.5052885E+02  0.7816164E-02  0.1300439E+00
        -11   -1    0    0    0    0  0.00000000000E+00  0.00000000000E+00  0.45593999997E+02  0.45594000000E+02  0.51100000000E-03 0.  1.
         11   -1    0    0    0    0 -0.00000000000E+00 -0.00000000000E+00 -0.45593999997E+02  0.45594000000E+02  0.51100000000E-03 0. -1.
    9900012    2    1    2    0    0 -0.30657785882E+01 -0.13677791122E+02  0.38166547380E+02  0.50528852108E+02  0.29999976469E+02 0.  0.
         12    1    1    2    0    0  0.30657785882E+01  0.13677791122E+02 -0.38166547380E+02  0.40659147892E+02  0.00000000000E+00 0. -1.
         11    1    3    3    0    0  0.17552883122E+01 -0.11385878420E+02  0.11997865320E+02  0.16633341124E+02  0.51100000000E-03 0. -1.
        -11    1    3    3    0    0 -0.10891053433E+02 -0.75786408595E+01  0.13849591883E+02  0.19179729866E+02  0.51100000000E-03 0.  1.
         12    1    3    3    0    0  0.60699865328E+01  0.52867281572E+01  0.12319090177E+02  0.14715781118E+02  0.00000000000E+00 0. -1.
</event>
<event>
 7    1  0.5479172E-013  0.5052886E+02  0.7816164E-02  0.1300439E+00
        -11   -1    0    0    0    0  0.00000000000E+00  0.00000000000E+00  0.45593999997E+02  0.45594000000E+02  0.51100000000E-03 0.  1.
         11   -1    0    0    0    0 -0.00000000000E+00 -0.00000000000E+00 -0.45593999997E+02  0.45594000000E+02  0.51100000000E-03 0. -1.
    9900012    2    1    2    0    0 -0.24347794779E+01  0.15309740195E+02  0.37587892985E+02  0.50528855948E+02  0.29999988140E+02 0.  0.
         12    1    1    2    0    0  0.24347794779E+01 -0.15309740195E+02 -0.37587892985E+02  0.40659144052E+02  0.00000000000E+00 0. -1.
         11    1    3    3    0    0 -0.40305243515E+01  0.14152640463E+02  0.18883167675E+02  0.23939849213E+02  0.51100000000E-03 0.  1.
        -11    1    3    3    0    0 -0.49019904998E+01 -0.54347284270E+01  0.14863341711E+02  0.16567580119E+02  0.51100000000E-03 0. -1.
         12    1    3    3    0    0  0.64977353734E+01  0.65918281591E+01  0.38413835992E+01  0.10021426616E+02  0.00000000000E+00 0. -1.
</event>
<event>
 7    1  0.5479172E-013  0.5052886E+02  0.7816164E-02  0.1300439E+00
        -11   -1    0    0    0    0  0.00000000000E+00  0.00000000000E+00  0.45593999997E+02  0.45594000000E+02  0.51100000000E-03 0. -1.
         11   -1    0    0    0    0 -0.00000000000E+00 -0.00000000000E+00 -0.45593999997E+02  0.45594000000E+02  0.51100000000E-03 0.  1.
    9900012    2    1    2    0    0 -0.10964473239E+02  0.37771732680E+02 -0.10307403119E+02  0.50528855615E+02  0.29999987128E+02 0.  0.
         12    1    1    2    0    0  0.10964473239E+02 -0.37771732680E+02  0.10307403119E+02  0.40659144385E+02  0.00000000000E+00 0. -1.
         11    1    3    3    0    0 -0.27957915397E+01  0.79313792153E+01 -0.87814635881E+01  0.12158837510E+02  0.51100000000E-03 0. -1.
        -11    1    3    3    0    0 -0.13616479069E+02  0.29939783952E+02 -0.13568043888E+01  0.32918688974E+02  0.51100000000E-03 0.  1.
         12    1    3    3    0    0  0.54477973694E+01 -0.99430487641E-01 -0.16913514214E+00  0.54513291312E+01  0.00000000000E+00 0. -1.
</event>
<event>
 7    1  0.5479172E-013  0.5052886E+02  0.7816164E-02  0.1300439E+00
        -11   -1    0    0    0    0  0.00000000000E+00  0.00000000000E+00  0.45593999997E+02  0.45594000000E+02  0.51100000000E-03 0. -1.
         11   -1    0    0    0    0 -0.00000000000E+00 -0.00000000000E+00 -0.45593999997E+02  0.45594000000E+02  0.51100000000E-03 0.  1.
    9900012    2    1    2    0    0 -0.77544782700E+01  0.21389345485E+02 -0.33697616777E+02  0.50528863143E+02  0.30000010009E+02 0.  0.
         12    1    1    2    0    0  0.77544782700E+01 -0.21389345485E+02  0.33697616777E+02  0.40659136857E+02  0.00000000000E+00 0. -1.
         11    1    3    3    0    0 -0.80067149573E+00  0.98144512845E+00 -0.33528914490E+00  0.13102398468E+01  0.51100000000E-03 0. -1.
        -11    1    3    3    0    0 -0.10241529010E+02 -0.41883904999E+01 -0.74416506894E+01  0.13334530239E+02  0.51100000000E-03 0.  1.
        -12    1    3    3    0    0  0.32877222357E+01  0.24596290857E+02 -0.25920676942E+02  0.35884093058E+02  0.00000000000E+00 0.  1.
</event>
<event>
 7    1  0.5479172E-013  0.5052886E+02  0.7816164E-02  0.1300439E+00
        -11   -1    0    0    0    0  0.00000000000E+00  0.00000000000E+00  0.45593999997E+02  0.45594000000E+02  0.51100000000E-03 0.  1.
         11   -1    0    0    0    0 -0.00000000000E+00 -0.00000000000E+00 -0.45593999997E+02  0.45594000000E+02  0.51100000000E-03 0. -1.
    9900012    2    1    2    0    0  0.17109042893E+02 -0.10353559995E+02  0.35401268709E+02  0.50528863518E+02  0.30000011148E+02 0.  0.
         12    1    1    2    0    0 -0.17109042893E+02  0.10353559995E+02 -0.35401268709E+02  0.40659136482E+02  0.00000000000E+00 0. -1.
         11    1    3    3    0    0  0.12726225285E+02  0.57732202421E+01  0.76955547343E+01  0.15953320811E+02  0.51100000000E-03 0. -1.
        -11    1    3    3    0    0  0.45368319822E+01 -0.84678327757E+00  0.11034074470E+02  0.11960379844E+02  0.51100000000E-03 0.  1.
         12    1    3    3    0    0 -0.15401437348E+00 -0.15279996960E+02  0.16671639505E+02  0.22615162862E+02  0.00000000000E+00 0. -1.
</event>
<event>
 7    1  0.5479172E-013  0.5052886E+02  0.7816164E-02  0.1300439E+00
        -11   -1    0    0    0    0  0.00000000000E+00  0.00000000000E+00  0.45593999997E+02  0.45594000000E+02  0.51100000000E-03 0.  1.
         11   -1    0    0    0    0 -0.00000000000E+00 -0.00000000000E+00 -0.45593999997E+02  0.45594000000E+02  0.51100000000E-03 0. -1.
    9900012    2    1    2    0    0 -0.37197957643E+02  0.14435258369E+02 -0.78166900107E+01  0.50528863515E+02  0.30000011139E+02 0.  0.
         12    1    1    2    0    0  0.37197957643E+02 -0.14435258369E+02  0.78166900107E+01  0.40659136485E+02  0.00000000000E+00 0. -1.
         11    1    3    3    0    0 -0.87220916438E+01 -0.38863919551E+01 -0.81430055176E+00  0.95834237473E+01  0.51100000000E-03 0. -1.
        -11    1    3    3    0    0 -0.22554645786E+02  0.14883276595E+02  0.46600683716E+01  0.27421528152E+02  0.51100000000E-03 0.  1.
         12    1    3    3    0    0 -0.59212202138E+01  0.34383737288E+01 -0.11662457831E+02  0.13523911615E+02  0.00000000000E+00 0. -1.
</event>
<event>
 7    1  0.5479172E-013  0.5052886E+02  0.7816164E-02  0.1300439E+00
        -11   -1    0    0    0    0  0.00000000000E+00  0.00000000000E+00  0.45593999997E+02  0.45594000000E+02  0.51100000000E-03 0. -1.
         11   -1    0    0    0    0 -0.00000000000E+00 -0.00000000000E+00 -0.45593999997E+02  0.45594000000E+02  0.51100000000E-03 0.  1.
    9900012    2    1    2    0    0  0.61805963140E+01 -0.30027681419E+02 -0.26707756365E+02  0.50528859917E+02  0.30000000205E+02 0.  0.
         12    1    1    2    0    0 -0.61805963140E+01  0.30027681419E+02  0.26707756365E+02  0.40659140083E+02  0.00000000000E+00 0. -1.
         11    1    3    3    0    0 -0.42426601559E+01 -0.20753753773E+02 -0.14584899772E+02  0.25718432349E+02  0.51100000000E-03 0. -1.
        -11    1    3    3    0    0  0.23525892816E+00 -0.10961938234E+02 -0.84755619821E+01  0.13858376088E+02  0.51100000000E-03 0.  1.
         12    1    3    3    0    0  0.10187997542E+02  0.16880105881E+01 -0.36472946117E+01  0.10952051481E+02  0.00000000000E+00 0. -1.
</event>
<event>
 7    1  0.5479172E-013  0.5052889E+02  0.7816164E-02  0.1300439E+00
        -11   -1    0    0    0    0  0.00000000000E+00  0.00000000000E+00  0.45593999997E+02  0.45594000000E+02  0.51100000000E-03 0. -1.
         11   -1    0    0    0    0 -0.00000000000E+00 -0.00000000000E+00 -0.45593999997E+02  0.45594000000E+02  0.51100000000E-03 0.  1.
    9900012    2    1    2    0    0 -0.14349584455E+02 -0.99707005127E+01 -0.36712910601E+02  0.50528889735E+02  0.30000090838E+02 0.  0.
         12    1    1    2    0    0  0.14349584455E+02  0.99707005127E+01  0.36712910601E+02  0.40659110265E+02  0.00000000000E+00 0. -1.
         11    1    3    3    0    0 -0.11350859505E+02 -0.26692658200E+01 -0.35544109536E+01  0.12190193969E+02  0.51100000000E-03 0. -1.
        -11    1    3    3    0    0 -0.46647642668E+01 -0.35841749933E+01 -0.10535047157E+01  0.59763039158E+01  0.51100000000E-03 0.  1.
        -12    1    3    3    0    0  0.16660393166E+01 -0.37172596994E+01 -0.32104994932E+02  0.32362391850E+02  0.00000000000E+00 0.  1.
</event>
<event>
 7    1  0.5479172E-013  0.5052873E+02  0.7816164E-02  0.1300439E+00
        -11   -1    0    0    0    0  0.00000000000E+00  0.00000000000E+00  0.45593999997E+02  0.45594000000E+02  0.51100000000E-03 0.  1.
         11   -1    0    0    0    0 -0.00000000000E+00 -0.00000000000E+00 -0.45593999997E+02  0.45594000000E+02  0.51100000000E-03 0. -1.
    9900012    2    1    2    0    0  0.16576427731E+02 -0.37581478270E+01  0.36936085064E+02  0.50528732775E+02  0.29999613741E+02 0.  0.
         12    1    1    2    0    0 -0.16576427731E+02  0.37581478270E+01 -0.36936085064E+02  0.40659267225E+02  0.00000000000E+00 0. -1.
         11    1    3    3    0    0 -0.12118216604E+00 -0.12370863616E+01  0.17379442695E+02  0.17423837018E+02  0.51100000000E-03 0. -1.
        -11    1    3    3    0    0  0.18423284781E+02  0.20980014618E+01  0.20953680014E+02  0.27979916703E+02  0.51100000000E-03 0.  1.
         12    1    3    3    0    0 -0.17256748845E+01 -0.46190629272E+01 -0.13970376450E+01  0.51249790550E+01  0.00000000000E+00 0. -1.
</event>
<event>
 7    1  0.5479172E-013  0.5052887E+02  0.7816164E-02  0.1300439E+00
        -11   -1    0    0    0    0  0.00000000000E+00  0.00000000000E+00  0.45593999997E+02  0.45594000000E+02  0.51100000000E-03 0. -1.
         11   -1    0    0    0    0 -0.00000000000E+00 -0.00000000000E+00 -0.45593999997E+02  0.45594000000E+02  0.51100000000E-03 0.  1.
    9900012    2    1    2    0    0  0.25701373429E+02 -0.19899354720E+02 -0.24425810636E+02  0.50528866467E+02  0.30000020113E+02 0.  0.
         12    1    1    2    0    0 -0.25701373429E+02  0.19899354720E+02  0.24425810636E+02  0.40659133533E+02  0.00000000000E+00 0. -1.
         11    1    3    3    0    0  0.21540561696E+01 -0.51645330510E+01 -0.24594806131E+00  0.56011472331E+01  0.51100000000E-03 0. -1.
        -11    1    3    3    0    0 -0.30504710721E+01 -0.65039255218E+01  0.11646568406E+01  0.72775577478E+01  0.51100000000E-03 0.  1.
         12    1    3    3    0    0  0.26597788332E+02 -0.82308961472E+01 -0.25344519416E+02  0.37650161486E+02  0.00000000000E+00 0. -1.
</event>
<event>
 7    1  0.5479172E-013  0.5052880E+02  0.7816164E-02  0.1300439E+00
        -11   -1    0    0    0    0  0.00000000000E+00  0.00000000000E+00  0.45593999997E+02  0.45594000000E+02  0.51100000000E-03 0.  1.
         11   -1    0    0    0    0 -0.00000000000E+00 -0.00000000000E+00 -0.45593999997E+02  0.45594000000E+02  0.51100000000E-03 0. -1.
    9900012    2    1    2    0    0 -0.28532301235E+01  0.93988406093E+01  0.39454930701E+02  0.50528798291E+02  0.29999812886E+02 0.  0.
         12    1    1    2    0    0  0.28532301235E+01 -0.93988406093E+01 -0.39454930701E+02  0.40659201709E+02  0.00000000000E+00 0. -1.
         11    1    3    3    0    0 -0.48748007814E+01  0.48824361481E+01  0.25632840016E+01  0.73601827784E+01  0.51100000000E-03 0. -1.
        -11    1    3    3    0    0 -0.55445343747E+01 -0.62930487734E+01  0.89346640903E+01  0.12254490890E+02  0.51100000000E-03 0.  1.
         12    1    3    3    0    0  0.75661050326E+01  0.10809453235E+02  0.27956982609E+02  0.30914124623E+02  0.00000000000E+00 0. -1.
</event>
<event>
 7    1  0.5479172E-013  0.5052896E+02  0.7816164E-02  0.1300438E+00
        -11   -1    0    0    0    0  0.00000000000E+00  0.00000000000E+00  0.45593999997E+02  0.45594000000E+02  0.51100000000E-03 0. -1.
         11   -1    0    0    0    0 -0.00000000000E+00 -0.00000000000E+00 -0.45593999997E+02  0.45594000000E+02  0.51100000000E-03 0.  1.
    9900012    2    1    2    0    0  0.17891001221E+02 -0.18209180711E+02  0.31646411223E+02  0.50528960044E+02  0.30000304547E+02 0.  0.
         12    1    1    2    0    0 -0.17891001221E+02  0.18209180711E+02 -0.31646411223E+02  0.40659039956E+02  0.00000000000E+00 0. -1.
         11    1    3    3    0    0  0.10517627410E+02 -0.13216169232E+02  0.28594071997E+02  0.33210067286E+02  0.51100000000E-03 0. -1.
        -11    1    3    3    0    0  0.19472363720E+01 -0.79966070708E+01  0.62562936997E+01  0.10338213833E+02  0.51100000000E-03 0.  1.
        -12    1    3    3    0    0  0.54261374395E+01  0.30035955915E+01 -0.32039544735E+01  0.69806789253E+01  0.00000000000E+00 0.  1.
</event>
<event>
 7    1  0.5479172E-013  0.5052886E+02  0.7816164E-02  0.1300439E+00
        -11   -1    0    0    0    0  0.00000000000E+00  0.00000000000E+00  0.45593999997E+02  0.45594000000E+02  0.51100000000E-03 0.  1.
         11   -1    0    0    0    0 -0.00000000000E+00 -0.00000000000E+00 -0.45593999997E+02  0.45594000000E+02  0.51100000000E-03 0. -1.
    9900012    2    1    2    0    0  0.97897654893E+00  0.38589698831E+02 -0.12768801713E+02  0.50528861444E+02  0.30000004844E+02 0.  0.
         12    1    1    2    0    0 -0.97897654893E+00 -0.38589698831E+02  0.12768801713E+02  0.40659138556E+02  0.00000000000E+00 0. -1.
         11    1    3    3    0    0 -0.73097947570E+00  0.15019176553E+02  0.65510260928E+01  0.16402010196E+02  0.51100000000E-03 0.  1.
        -11    1    3    3    0    0 -0.15147343917E+01  0.74044050697E+01  0.13616562094E+01  0.76794363469E+01  0.51100000000E-03 0. -1.
         12    1    3    3    0    0  0.32246904164E+01  0.16166117208E+02 -0.20681484015E+02  0.26447414901E+02  0.00000000000E+00 0. -1.
</event>
<event>
 7    1  0.5479172E-013  0.5052886E+02  0.7816164E-02  0.1300439E+00
        -11   -1    0    0    0    0  0.00000000000E+00  0.00000000000E+00  0.45593999997E+02  0.45594000000E+02  0.51100000000E-03 0.  1.
         11   -1    0    0    0    0 -0.00000000000E+00 -0.00000000000E+00 -0.45593999997E+02  0.45594000000E+02  0.51100000000E-03 0. -1.
    9900012    2    1    2    0    0 -0.14644797514E+02  0.13835795482E+02  0.35316662557E+02  0.50528856071E+02  0.29999988515E+02 0.  0.
         12    1    1    2    0    0  0.14644797514E+02 -0.13835795482E+02 -0.35316662557E+02  0.40659143929E+02  0.00000000000E+00 0. -1.
         11    1    3    3    0    0  0.30659798297E+01 -0.11349272475E-02  0.93799538012E+01  0.98683213961E+01  0.51100000000E-03 0. -1.
        -11    1    3    3    0    0 -0.74989797630E+01  0.30042604546E+01  0.24390236836E+02  0.25693266268E+02  0.51100000000E-03 0.  1.
         12    1    3    3    0    0 -0.10211797581E+02  0.10832669954E+02  0.15464719202E+01  0.14967268407E+02  0.00000000000E+00 0. -1.
</event>
<event>
 7    1  0.5479172E-013  0.5052872E+02  0.7816164E-02  0.1300439E+00
        -11   -1    0    0    0    0  0.00000000000E+00  0.00000000000E+00  0.45593999997E+02  0.45594000000E+02  0.51100000000E-03 0. -1.
         11   -1    0    0    0    0 -0.00000000000E+00 -0.00000000000E+00 -0.45593999997E+02  0.45594000000E+02  0.51100000000E-03 0.  1.
    9900012    2    1    2    0    0 -0.20640397649E+01 -0.38472500173E+02  0.12991656580E+02  0.50528724669E+02  0.29999589102E+02 0.  0.
         12    1    1    2    0    0  0.20640397649E+01  0.38472500173E+02 -0.12991656580E+02  0.40659275331E+02  0.00000000000E+00 0. -1.
         11    1    3    3    0    0 -0.20427713994E+01 -0.99913310471E+01  0.10250171339E+02  0.14459101764E+02  0.51100000000E-03 0.  1.
        -11    1    3    3    0    0  0.73407384285E+01 -0.18974988327E+01  0.37671637312E+01  0.84663135622E+01  0.51100000000E-03 0. -1.
        -12    1    3    3    0    0 -0.73620067939E+01 -0.26583670293E+02 -0.10256784906E+01  0.27603309343E+02  0.00000000000E+00 0.  1.
</event>
<event>
 7    1  0.5479172E-013  0.5052897E+02  0.7816164E-02  0.1300438E+00
        -11   -1    0    0    0    0  0.00000000000E+00  0.00000000000E+00  0.45593999997E+02  0.45594000000E+02  0.51100000000E-03 0.  1.
         11   -1    0    0    0    0 -0.00000000000E+00 -0.00000000000E+00 -0.45593999997E+02  0.45594000000E+02  0.51100000000E-03 0. -1.
    9900012    2    1    2    0    0  0.18676649830E+02  0.35812840820E+02  0.46668882951E+01  0.50528970710E+02  0.30000336967E+02 0.  0.
         12    1    1    2    0    0 -0.18676649830E+02 -0.35812840820E+02 -0.46668882951E+01  0.40659029290E+02  0.00000000000E+00 0. -1.
         11    1    3    3    0    0 -0.27504788234E+01  0.15574489695E+02  0.10591636877E+02  0.19034511683E+02  0.51100000000E-03 0. -1.
        -11    1    3    3    0    0  0.11523800287E+02  0.12709339822E+02  0.11298674572E+01  0.17193076877E+02  0.51100000000E-03 0.  1.
        -12    1    3    3    0    0  0.99033283661E+01  0.75290113032E+01 -0.70546160390E+01  0.14301382150E+02  0.00000000000E+00 0.  1.
</event>
<event>
 7    1  0.5479172E-013  0.5052886E+02  0.7816164E-02  0.1300439E+00
        -11   -1    0    0    0    0  0.00000000000E+00  0.00000000000E+00  0.45593999997E+02  0.45594000000E+02  0.51100000000E-03 0.  1.
         11   -1    0    0    0    0 -0.00000000000E+00 -0.00000000000E+00 -0.45593999997E+02  0.45594000000E+02  0.51100000000E-03 0. -1.
    9900012    2    1    2    0    0 -0.22027186945E+02 -0.96579225267E+01  0.32782510211E+02  0.50528863168E+02  0.30000010084E+02 0.  0.
         12    1    1    2    0    0  0.22027186945E+02  0.96579225267E+01 -0.32782510211E+02  0.40659136832E+02  0.00000000000E+00 0. -1.
         11    1    3    3    0    0 -0.19643322001E+02 -0.46854297045E+01  0.45531681948E+01  0.20701321012E+02  0.51100000000E-03 0. -1.
        -11    1    3    3    0    0 -0.35411855299E+01 -0.53307879739E+01  0.12420390601E+02  0.13972236697E+02  0.51100000000E-03 0.  1.
        -12    1    3    3    0    0  0.11573205861E+01  0.35829515177E+00  0.15808951415E+02  0.15855305459E+02  0.00000000000E+00 0.  1.
</event>
<event>
 7    1  0.5479172E-013  0.5052886E+02  0.7816164E-02  0.1300439E+00
        -11   -1    0    0    0    0  0.00000000000E+00  0.00000000000E+00  0.45593999997E+02  0.45594000000E+02  0.51100000000E-03 0. -1.
         11   -1    0    0    0    0 -0.00000000000E+00 -0.00000000000E+00 -0.45593999997E+02  0.45594000000E+02  0.51100000000E-03 0.  1.
    9900012    2    1    2    0    0 -0.12536184525E+02  0.72928234876E+00 -0.38671413831E+02  0.50528855605E+02  0.29999987098E+02 0.  0.
         12    1    1    2    0    0  0.12536184525E+02 -0.72928234876E+00  0.38671413831E+02  0.40659144395E+02  0.00000000000E+00 0. -1.
         11    1    3    3    0    0 -0.75691263488E+01 -0.52961978208E+01 -0.78967807195E+01  0.12153210729E+02  0.51100000000E-03 0. -1.
        -11    1    3    3    0    0 -0.90950376856E+01 -0.14848396721E+00 -0.29461281102E+02  0.30833566814E+02  0.51100000000E-03 0.  1.
         12    1    3    3    0    0  0.41279795099E+01  0.61739641368E+01 -0.13133520096E+01  0.75420780623E+01  0.00000000000E+00 0. -1.
</event>
<event>
 7    1  0.8157003E-013  0.5052885E+02  0.7816164E-02  0.1300439E+00
        -11   -1    0    0    0    0  0.00000000000E+00  0.00000000000E+00  0.45593999997E+02  0.45594000000E+02  0.51100000000E-03 0. -1.
         11   -1    0    0    0    0 -0.00000000000E+00 -0.00000000000E+00 -0.45593999997E+02  0.45594000000E+02  0.51100000000E-03 0.  1.
    9900012    2    1    2    0    0  0.26751317806E+02 -0.15283847082E+02 -0.26531820403E+02  0.50528849986E+02  0.29999970018E+02 0.  0.
         12    1    1    2    0    0 -0.26751317806E+02  0.15283847082E+02  0.26531820403E+02  0.40659150014E+02  0.00000000000E+00 0. -1.
         11    1    3    3    0    0 -0.27008629519E+01 -0.11434941420E+01  0.25883049114E+01  0.39117211191E+01  0.51100000000E-03 0. -1.
        -11    1    3    3    0    0  0.62212099463E+01 -0.73421903517E+01 -0.12517526539E+01  0.97045400367E+01  0.51100000000E-03 0.  1.
        -12    1    3    3    0    0  0.23230970811E+02 -0.67981625883E+01 -0.27868372660E+02  0.36912588830E+02  0.00000000000E+00 0.  1.
</event>
<event>
 7    1  0.5479172E-013  0.5052886E+02  0.7816164E-02  0.1300439E+00
        -11   -1    0    0    0    0  0.00000000000E+00  0.00000000000E+00  0.45593999997E+02  0.45594000000E+02  0.51100000000E-03 0.  1.
         11   -1    0    0    0    0 -0.00000000000E+00 -0.00000000000E+00 -0.45593999997E+02  0.45594000000E+02  0.51100000000E-03 0. -1.
    9900012    2    1    2    0    0  0.88809510582E+01  0.81118268178E+01  0.38839320173E+02  0.50528858131E+02  0.29999994775E+02 0.  0.
         12    1    1    2    0    0 -0.88809510582E+01 -0.81118268178E+01 -0.38839320173E+02  0.40659141869E+02  0.00000000000E+00 0. -1.
         11    1    3    3    0    0  0.10964114785E+02 -0.29694141710E+01  0.15500707164E+02  0.19217209901E+02  0.51100000000E-03 0. -1.
        -11    1    3    3    0    0  0.37534167812E+01  0.13108894613E+02  0.11026441179E+02  0.17536067429E+02  0.51100000000E-03 0.  1.
         12    1    3    3    0    0 -0.58365805077E+01 -0.20276536247E+01  0.12312171830E+02  0.13775580802E+02  0.00000000000E+00 0. -1.
</event>
<event>
 7    1  0.5479172E-013  0.5052886E+02  0.7816164E-02  0.1300439E+00
        -11   -1    0    0    0    0  0.00000000000E+00  0.00000000000E+00  0.45593999997E+02  0.45594000000E+02  0.51100000000E-03 0. -1.
         11   -1    0    0    0    0 -0.00000000000E+00 -0.00000000000E+00 -0.45593999997E+02  0.45594000000E+02  0.51100000000E-03 0.  1.
    9900012    2    1    2    0    0 -0.60187077072E+01 -0.27886156867E+02 -0.28970727763E+02  0.50528860137E+02  0.30000000871E+02 0.  0.
         12    1    1    2    0    0  0.60187077072E+01  0.27886156867E+02  0.28970727763E+02  0.40659139863E+02  0.00000000000E+00 0. -1.
         11    1    3    3    0    0  0.63137737093E+01 -0.77993275428E+00 -0.34453316720E+01  0.72348009056E+01  0.51100000000E-03 0. -1.
        -11    1    3    3    0    0  0.44602575031E+01 -0.26812180739E+01 -0.25724528689E+01  0.58051995123E+01  0.51100000000E-03 0.  1.
        -12    1    3    3    0    0 -0.16792738920E+02 -0.24425006039E+02 -0.22952943222E+02  0.37488859719E+02  0.00000000000E+00 0.  1.
</event>
<event>
 7    1  0.5479172E-013  0.5052886E+02  0.7816164E-02  0.1300439E+00
        -11   -1    0    0    0    0  0.00000000000E+00  0.00000000000E+00  0.45593999997E+02  0.45594000000E+02  0.51100000000E-03 0.  1.
         11   -1    0    0    0    0 -0.00000000000E+00 -0.00000000000E+00 -0.45593999997E+02  0.45594000000E+02  0.51100000000E-03 0. -1.
    9900012    2    1    2    0    0  0.37750558896E+02 -0.66530385064E+01  0.13557226119E+02  0.50528855907E+02  0.29999988014E+02 0.  0.
         12    1    1    2    0    0 -0.37750558896E+02  0.66530385064E+01 -0.13557226119E+02  0.40659144093E+02  0.00000000000E+00 0. -1.
         11    1    3    3    0    0  0.11999235014E+01  0.12283943309E+01  0.66150685707E+01  0.68343179249E+01  0.51100000000E-03 0. -1.
        -11    1    3    3    0    0  0.16625252934E+02 -0.22821837954E+01  0.13971791632E+02  0.21836170902E+02  0.51100000000E-03 0.  1.
         12    1    3    3    0    0  0.19925382461E+02 -0.55992490419E+01 -0.70296340833E+01  0.21858367080E+02  0.00000000000E+00 0. -1.
</event>
<event>
 7    1  0.5479172E-013  0.5052886E+02  0.7816164E-02  0.1300439E+00
        -11   -1    0    0    0    0  0.00000000000E+00  0.00000000000E+00  0.45593999997E+02  0.45594000000E+02  0.51100000000E-03 0. -1.
         11   -1    0    0    0    0 -0.00000000000E+00 -0.00000000000E+00 -0.45593999997E+02  0.45594000000E+02  0.51100000000E-03 0.  1.
    9900012    2    1    2    0    0  0.13975769233E+02 -0.26379656482E+01 -0.38090483490E+02  0.50528856860E+02  0.29999990911E+02 0.  0.
         12    1    1    2    0    0 -0.13975769233E+02  0.26379656482E+01  0.38090483490E+02  0.40659143140E+02  0.00000000000E+00 0. -1.
         11    1    3    3    0    0 -0.48388538505E+00  0.25634718060E+01 -0.55562258396E+01  0.61381738821E+01  0.51100000000E-03 0. -1.
        -11    1    3    3    0    0  0.79011925090E+01  0.90518024843E+01 -0.23220092478E+02  0.26144534155E+02  0.51100000000E-03 0.  1.
         12    1    3    3    0    0  0.65584621086E+01 -0.14253239938E+02 -0.93141651728E+01  0.18246148822E+02  0.00000000000E+00 0. -1.
</event>
<event>
 7    1  0.5479172E-013  0.5052888E+02  0.7816164E-02  0.1300439E+00
        -11   -1    0    0    0    0  0.00000000000E+00  0.00000000000E+00  0.45593999997E+02  0.45594000000E+02  0.51100000000E-03 0.  1.
         11   -1    0    0    0    0 -0.00000000000E+00 -0.00000000000E+00 -0.45593999997E+02  0.45594000000E+02  0.51100000000E-03 0. -1.
    9900012    2    1    2    0    0  0.59831224531E+01  0.24680870232E+02  0.31752500436E+02  0.50528875641E+02  0.30000048000E+02 0.  0.
         12    1    1    2    0    0 -0.59831224531E+01 -0.24680870232E+02 -0.31752500436E+02  0.40659124359E+02  0.00000000000E+00 0. -1.
         11    1    3    3    0    0 -0.41414390117E+00  0.13821771771E+02  0.24078800782E+01  0.14036052750E+02  0.51100000000E-03 0. -1.
        -11    1    3    3    0    0 -0.59208080510E+01  0.53563509446E+01  0.13482654308E+02  0.15669346855E+02  0.51100000000E-03 0.  1.
         12    1    3    3    0    0  0.12318074405E+02  0.55027475160E+01  0.15861966049E+02  0.20823476036E+02  0.00000000000E+00 0. -1.
</event>
<event>
 7    1  0.5479172E-013  0.5052885E+02  0.7816164E-02  0.1300439E+00
        -11   -1    0    0    0    0  0.00000000000E+00  0.00000000000E+00  0.45593999997E+02  0.45594000000E+02  0.51100000000E-03 0.  1.
         11   -1    0    0    0    0 -0.00000000000E+00 -0.00000000000E+00 -0.45593999997E+02  0.45594000000E+02  0.51100000000E-03 0. -1.
    9900012    2    1    2    0    0 -0.31305076390E+02  0.21389137832E+02  0.14685472309E+02  0.50528854388E+02  0.29999983399E+02 0.  0.
         12    1    1    2    0    0  0.31305076390E+02 -0.21389137832E+02 -0.14685472309E+02  0.40659145612E+02  0.00000000000E+00 0. -1.
         11    1    3    3    0    0 -0.89084587980E+01  0.10096697467E+02  0.87778366212E+01  0.16073405175E+02  0.51100000000E-03 0. -1.
        -11    1    3    3    0    0 -0.17256066987E+02  0.18081081616E+02  0.67754081222E+01  0.25896013511E+02  0.51100000000E-03 0.  1.
         12    1    3    3    0    0 -0.51405506046E+01 -0.67886412512E+01 -0.86777243478E+00  0.85594357030E+01  0.00000000000E+00 0. -1.
</event>
<event>
 7    1  0.5479172E-013  0.5052886E+02  0.7816164E-02  0.1300439E+00
        -11   -1    0    0    0    0  0.00000000000E+00  0.00000000000E+00  0.45593999997E+02  0.45594000000E+02  0.51100000000E-03 0. -1.
         11   -1    0    0    0    0 -0.00000000000E+00 -0.00000000000E+00 -0.45593999997E+02  0.45594000000E+02  0.51100000000E-03 0.  1.
    9900012    2    1    2    0    0  0.29326989565E+02  0.24239455587E+02  0.14336734726E+02  0.50528862199E+02  0.30000007139E+02 0.  0.
         12    1    1    2    0    0 -0.29326989565E+02 -0.24239455587E+02 -0.14336734726E+02  0.40659137801E+02  0.00000000000E+00 0. -1.
         11    1    3    3    0    0  0.46226880977E+01  0.25351495841E+01 -0.31173832043E+01  0.61248924045E+01  0.51100000000E-03 0. -1.
        -11    1    3    3    0    0  0.65404107232E+01  0.12597392601E+02 -0.41079204412E+01  0.14776545042E+02  0.51100000000E-03 0.  1.
        -12    1    3    3    0    0  0.18163890745E+02  0.91069134020E+01  0.21562038372E+02  0.29627424752E+02  0.00000000000E+00 0.  1.
</event>
<event>
 7    1  0.5479172E-013  0.5052886E+02  0.7816164E-02  0.1300439E+00
        -11   -1    0    0    0    0  0.00000000000E+00  0.00000000000E+00  0.45593999997E+02  0.45594000000E+02  0.51100000000E-03 0.  1.
         11   -1    0    0    0    0 -0.00000000000E+00 -0.00000000000E+00 -0.45593999997E+02  0.45594000000E+02  0.51100000000E-03 0. -1.
    9900012    2    1    2    0    0 -0.33219874218E+02  0.81957934216E+01  0.21964387154E+02  0.50528863562E+02  0.30000011283E+02 0.  0.
         12    1    1    2    0    0  0.33219874218E+02 -0.81957934216E+01 -0.21964387154E+02  0.40659136438E+02  0.00000000000E+00 0. -1.
         11    1    3    3    0    0 -0.28848452987E+01  0.19265496804E+01 -0.45507731234E+01  0.57221903455E+01  0.51100000000E-03 0. -1.
        -11    1    3    3    0    0 -0.18788518601E+02  0.10759087193E+02  0.92205196564E+01  0.23532623556E+02  0.51100000000E-03 0.  1.
        -12    1    3    3    0    0 -0.11546510319E+02 -0.44898434519E+01  0.17294640621E+02  0.21274049660E+02  0.00000000000E+00 0.  1.
</event>
<event>
 7    1  0.5479172E-013  0.5052887E+02  0.7816164E-02  0.1300439E+00
        -11   -1    0    0    0    0  0.00000000000E+00  0.00000000000E+00  0.45593999997E+02  0.45594000000E+02  0.51100000000E-03 0. -1.
         11   -1    0    0    0    0 -0.00000000000E+00 -0.00000000000E+00 -0.45593999997E+02  0.45594000000E+02  0.51100000000E-03 0.  1.
    9900012    2    1    2    0    0 -0.33039908788E+02  0.62672934357E+01 -0.22852804665E+02  0.50528865470E+02  0.30000017082E+02 0.  0.
         12    1    1    2    0    0  0.33039908788E+02 -0.62672934357E+01  0.22852804665E+02  0.40659134530E+02  0.00000000000E+00 0. -1.
         11    1    3    3    0    0 -0.75097293984E+01  0.14704252788E+00 -0.47164312733E+01  0.88691815496E+01  0.51100000000E-03 0. -1.
        -11    1    3    3    0    0 -0.16862452516E+02 -0.21889865531E+01 -0.23086064003E+02  0.28672291824E+02  0.51100000000E-03 0.  1.
         12    1    3    3    0    0 -0.86677268728E+01  0.83092374609E+01  0.49496906118E+01  0.12987392097E+02  0.00000000000E+00 0. -1.
</event>
<event>
 7    1  0.5479172E-013  0.5052886E+02  0.7816164E-02  0.1300439E+00
        -11   -1    0    0    0    0  0.00000000000E+00  0.00000000000E+00  0.45593999997E+02  0.45594000000E+02  0.51100000000E-03 0.  1.
         11   -1    0    0    0    0 -0.00000000000E+00 -0.00000000000E+00 -0.45593999997E+02  0.45594000000E+02  0.51100000000E-03 0. -1.
    9900012    2    1    2    0    0 -0.18162066410E+02 -0.31928996532E+02  0.17431115904E+02  0.50528864772E+02  0.30000014961E+02 0.  0.
         12    1    1    2    0    0  0.18162066410E+02  0.31928996532E+02 -0.17431115904E+02  0.40659135228E+02  0.00000000000E+00 0. -1.
         11    1    3    3    0    0 -0.92459561676E+01 -0.15034056738E+02  0.34040411905E+01  0.17974928766E+02  0.51100000000E-03 0. -1.
        -11    1    3    3    0    0 -0.82867304285E+01 -0.21231621599E+02  0.15898712217E+02  0.27788859410E+02  0.51100000000E-03 0.  1.
         12    1    3    3    0    0 -0.62937981350E+00  0.43366818043E+01 -0.18716375031E+01  0.47650765958E+01  0.00000000000E+00 0. -1.
</event>
<event>
 7    1  0.5479172E-013  0.5052886E+02  0.7816164E-02  0.1300439E+00
        -11   -1    0    0    0    0  0.00000000000E+00  0.00000000000E+00  0.45593999997E+02  0.45594000000E+02  0.51100000000E-03 0.  1.
         11   -1    0    0    0    0 -0.00000000000E+00 -0.00000000000E+00 -0.45593999997E+02  0.45594000000E+02  0.51100000000E-03 0. -1.
    9900012    2    1    2    0    0  0.15787307772E+02  0.16658150047E+01  0.37431965186E+02  0.50528855346E+02  0.29999986311E+02 0.  0.
         12    1    1    2    0    0 -0.15787307772E+02 -0.16658150047E+01 -0.37431965186E+02  0.40659144654E+02  0.00000000000E+00 0. -1.
         11    1    3    3    0    0  0.80013915457E+00  0.78164180690E+00 -0.14452657282E+01  0.18275611802E+01  0.51100000000E-03 0. -1.
        -11    1    3    3    0    0 -0.12727456056E+01 -0.57805640250E+01 -0.12791201424E+00  0.59204023147E+01  0.51100000000E-03 0.  1.
        -12    1    3    3    0    0  0.16259914223E+02  0.66647372228E+01  0.39005142928E+02  0.42780891852E+02  0.00000000000E+00 0.  1.
</event>
<event>
 7    1  0.5479172E-013  0.5052891E+02  0.7816164E-02  0.1300439E+00
        -11   -1    0    0    0    0  0.00000000000E+00  0.00000000000E+00  0.45593999997E+02  0.45594000000E+02  0.51100000000E-03 0.  1.
         11   -1    0    0    0    0 -0.00000000000E+00 -0.00000000000E+00 -0.45593999997E+02  0.45594000000E+02  0.51100000000E-03 0. -1.
    9900012    2    1    2    0    0 -0.13166780364E+02  0.36750617598E+02  0.11366150784E+02  0.50528912668E+02  0.30000160546E+02 0.  0.
         12    1    1    2    0    0  0.13166780364E+02 -0.36750617598E+02 -0.11366150784E+02  0.40659087332E+02  0.00000000000E+00 0. -1.
         11    1    3    3    0    0 -0.59045954982E+01  0.12262623333E+02  0.58237661405E+01  0.14803797868E+02  0.51100000000E-03 0. -1.
        -11    1    3    3    0    0 -0.13912118131E+02  0.77287426044E+01  0.74912105187E+01  0.17589733609E+02  0.51100000000E-03 0.  1.
         12    1    3    3    0    0  0.66499332653E+01  0.16759251661E+02 -0.19488258755E+01  0.18135381192E+02  0.00000000000E+00 0. -1.
</event>
<event>
 7    1  0.5479172E-013  0.5052886E+02  0.7816164E-02  0.1300439E+00
        -11   -1    0    0    0    0  0.00000000000E+00  0.00000000000E+00  0.45593999997E+02  0.45594000000E+02  0.51100000000E-03 0.  1.
         11   -1    0    0    0    0 -0.00000000000E+00 -0.00000000000E+00 -0.45593999997E+02  0.45594000000E+02  0.51100000000E-03 0. -1.
    9900012    2    1    2    0    0  0.22669817741E+02  0.20559725259E+01  0.33690031359E+02  0.50528857457E+02  0.29999992725E+02 0.  0.
         12    1    1    2    0    0 -0.22669817741E+02 -0.20559725259E+01 -0.33690031359E+02  0.40659142543E+02  0.00000000000E+00 0. -1.
         11    1    3    3    0    0  0.14486803484E+02  0.10095480511E+02  0.21626986240E+02  0.27919755300E+02  0.51100000000E-03 0. -1.
        -11    1    3    3    0    0  0.18288740420E+01  0.27499267889E+01  0.91856244910E+01  0.97612793811E+01  0.51100000000E-03 0.  1.
         12    1    3    3    0    0  0.63541402149E+01 -0.10789434774E+02  0.28774206274E+01  0.12847822776E+02  0.00000000000E+00 0. -1.
</event>
<event>
 7    1  0.5479172E-013  0.5052886E+02  0.7816164E-02  0.1300439E+00
        -11   -1    0    0    0    0  0.00000000000E+00  0.00000000000E+00  0.45593999997E+02  0.45594000000E+02  0.51100000000E-03 0. -1.
         11   -1    0    0    0    0 -0.00000000000E+00 -0.00000000000E+00 -0.45593999997E+02  0.45594000000E+02  0.51100000000E-03 0.  1.
    9900012    2    1    2    0    0 -0.33322516663E+02  0.11024784002E+02 -0.20523885929E+02  0.50528857453E+02  0.29999992714E+02 0.  0.
         12    1    1    2    0    0  0.33322516663E+02 -0.11024784002E+02  0.20523885929E+02  0.40659142547E+02  0.00000000000E+00 0. -1.
         11    1    3    3    0    0  0.31750956630E+01  0.40889560923E+01  0.18369211175E+00  0.51802063132E+01  0.51100000000E-03 0. -1.
        -11    1    3    3    0    0 -0.25668330162E+02 -0.70114782751E+00 -0.77669349910E+01  0.26826853356E+02  0.51100000000E-03 0.  1.
         12    1    3    3    0    0 -0.10829282164E+02  0.76369757376E+01 -0.12940643050E+02  0.18521797784E+02  0.00000000000E+00 0. -1.
</event>
<event>
 7    1  0.5479172E-013  0.5052887E+02  0.7816164E-02  0.1300439E+00
        -11   -1    0    0    0    0  0.00000000000E+00  0.00000000000E+00  0.45593999997E+02  0.45594000000E+02  0.51100000000E-03 0. -1.
         11   -1    0    0    0    0 -0.00000000000E+00 -0.00000000000E+00 -0.45593999997E+02  0.45594000000E+02  0.51100000000E-03 0.  1.
    9900012    2    1    2    0    0 -0.15779145345E+02  0.36983607635E+02  0.60329456893E+01  0.50528867013E+02  0.30000021773E+02 0.  0.
         12    1    1    2    0    0  0.15779145345E+02 -0.36983607635E+02 -0.60329456893E+01  0.40659132987E+02  0.00000000000E+00 0. -1.
         11    1    3    3    0    0 -0.29967219100E+01 -0.22279658907E+01  0.54578309942E+00  0.37738645536E+01  0.51100000000E-03 0. -1.
        -11    1    3    3    0    0  0.26027489151E+01  0.16698451177E+02 -0.48676323119E+01  0.17587109433E+02  0.51100000000E-03 0.  1.
        -12    1    3    3    0    0 -0.15385172350E+02  0.22513122349E+02  0.10354794902E+02  0.29167893027E+02  0.00000000000E+00 0.  1.
</event>
<event>
 7    1  0.5479172E-013  0.5052886E+02  0.7816164E-02  0.1300439E+00
        -11   -1    0    0    0    0  0.00000000000E+00  0.00000000000E+00  0.45593999997E+02  0.45594000000E+02  0.51100000000E-03 0.  1.
         11   -1    0    0    0    0 -0.00000000000E+00 -0.00000000000E+00 -0.45593999997E+02  0.45594000000E+02  0.51100000000E-03 0. -1.
    9900012    2    1    2    0    0  0.74523717362E+01  0.33590947737E+02  0.21662788045E+02  0.50528855884E+02  0.29999987946E+02 0.  0.
         12    1    1    2    0    0 -0.74523717362E+01 -0.33590947737E+02 -0.21662788045E+02  0.40659144116E+02  0.00000000000E+00 0. -1.
         11    1    3    3    0    0  0.24773004461E+01  0.21979084456E+02  0.13945655491E+02  0.26147628541E+02  0.51100000000E-03 0. -1.
        -11    1    3    3    0    0  0.76221827728E+01  0.12120078539E+02  0.12424444068E+02  0.18956813674E+02  0.51100000000E-03 0.  1.
         12    1    3    3    0    0 -0.26471114827E+01 -0.50821525799E+00 -0.47073115147E+01  0.54244136685E+01  0.00000000000E+00 0. -1.
</event>
<event>
 7    1  0.5479172E-013  0.5052886E+02  0.7816164E-02  0.1300439E+00
        -11   -1    0    0    0    0  0.00000000000E+00  0.00000000000E+00  0.45593999997E+02  0.45594000000E+02  0.51100000000E-03 0.  1.
         11   -1    0    0    0    0 -0.00000000000E+00 -0.00000000000E+00 -0.45593999997E+02  0.45594000000E+02  0.51100000000E-03 0. -1.
    9900012    2    1    2    0    0 -0.29918107345E+02 -0.20496801015E+02  0.18383512189E+02  0.50528861797E+02  0.30000005919E+02 0.  0.
         12    1    1    2    0    0  0.29918107345E+02  0.20496801015E+02 -0.18383512189E+02  0.40659138203E+02  0.00000000000E+00 0. -1.
         11    1    3    3    0    0 -0.11266558612E+02 -0.11528355652E+02  0.12491112709E+02  0.20392798336E+02  0.51100000000E-03 0. -1.
        -11    1    3    3    0    0 -0.13382120828E+02 -0.10743343748E+02  0.12697817898E+02  0.21347954759E+02  0.51100000000E-03 0.  1.
         12    1    3    3    0    0 -0.52694279051E+01  0.17748983850E+01 -0.68054184179E+01  0.87881087025E+01  0.00000000000E+00 0. -1.
</event>
<event>
 7    1  0.5479172E-013  0.5052886E+02  0.7816164E-02  0.1300439E+00
        -11   -1    0    0    0    0  0.00000000000E+00  0.00000000000E+00  0.45593999997E+02  0.45594000000E+02  0.51100000000E-03 0.  1.
         11   -1    0    0    0    0 -0.00000000000E+00 -0.00000000000E+00 -0.45593999997E+02  0.45594000000E+02  0.51100000000E-03 0. -1.
    9900012    2    1    2    0    0  0.32233167683E+02  0.21974415978E+01  0.24685214177E+02  0.50528860223E+02  0.30000001133E+02 0.  0.
         12    1    1    2    0    0 -0.32233167683E+02 -0.21974415978E+01 -0.24685214177E+02  0.40659139777E+02  0.00000000000E+00 0. -1.
         11    1    3    3    0    0 -0.21439398059E+01  0.14106157691E+01 -0.43647491935E+00  0.26032336345E+01  0.51100000000E-03 0. -1.
        -11    1    3    3    0    0  0.23269746949E+02  0.95192323522E+01  0.95368178402E+01  0.26889548200E+02  0.51100000000E-03 0.  1.
         12    1    3    3    0    0  0.11107360540E+02 -0.87324065235E+01  0.15584871257E+02  0.21036078388E+02  0.00000000000E+00 0. -1.
</event>
<event>
 7    1  0.5479172E-013  0.5052886E+02  0.7816164E-02  0.1300439E+00
        -11   -1    0    0    0    0  0.00000000000E+00  0.00000000000E+00  0.45593999997E+02  0.45594000000E+02  0.51100000000E-03 0.  1.
         11   -1    0    0    0    0 -0.00000000000E+00 -0.00000000000E+00 -0.45593999997E+02  0.45594000000E+02  0.51100000000E-03 0. -1.
    9900012    2    1    2    0    0  0.33129766335E+01  0.72856700576E+01  0.39863631641E+02  0.50528856748E+02  0.29999990571E+02 0.  0.
         12    1    1    2    0    0 -0.33129766335E+01 -0.72856700576E+01 -0.39863631641E+02  0.40659143252E+02  0.00000000000E+00 0. -1.
         11    1    3    3    0    0 -0.71166824465E+01  0.95105506014E+01  0.10168016118E+02  0.15636057490E+02  0.51100000000E-03 0. -1.
        -11    1    3    3    0    0 -0.30134549992E+01 -0.15498535211E+01  0.16169781209E+01  0.37546738173E+01  0.51100000000E-03 0.  1.
         12    1    3    3    0    0  0.13443114079E+02 -0.67502702263E+00  0.28078637402E+02  0.31138125441E+02  0.00000000000E+00 0. -1.
</event>
<event>
 7    1  0.5479172E-013  0.5052885E+02  0.7816164E-02  0.1300439E+00
        -11   -1    0    0    0    0  0.00000000000E+00  0.00000000000E+00  0.45593999997E+02  0.45594000000E+02  0.51100000000E-03 0.  1.
         11   -1    0    0    0    0 -0.00000000000E+00 -0.00000000000E+00 -0.45593999997E+02  0.45594000000E+02  0.51100000000E-03 0. -1.
    9900012    2    1    2    0    0 -0.32631151793E+02 -0.24407083174E+01  0.24133328484E+02  0.50528847671E+02  0.29999962981E+02 0.  0.
         12    1    1    2    0    0  0.32631151793E+02  0.24407083174E+01 -0.24133328484E+02  0.40659152329E+02  0.00000000000E+00 0. -1.
         11    1    3    3    0    0  0.25003913487E+01  0.26718214855E+00 -0.29828595690E+01  0.39013836861E+01  0.51100000000E-03 0. -1.
        -11    1    3    3    0    0 -0.13890873266E+01  0.15288916715E+01  0.65886536996E+01  0.69048845884E+01  0.51100000000E-03 0.  1.
        -12    1    3    3    0    0 -0.33742455815E+02 -0.42367821374E+01  0.20527534353E+02  0.39722579396E+02  0.00000000000E+00 0.  1.
</event>
<event>
 7    1  0.5479172E-013  0.5052886E+02  0.7816164E-02  0.1300439E+00
        -11   -1    0    0    0    0  0.00000000000E+00  0.00000000000E+00  0.45593999997E+02  0.45594000000E+02  0.51100000000E-03 0. -1.
         11   -1    0    0    0    0 -0.00000000000E+00 -0.00000000000E+00 -0.45593999997E+02  0.45594000000E+02  0.51100000000E-03 0.  1.
    9900012    2    1    2    0    0 -0.37031759450E+02  0.60624572321E+01 -0.15654436148E+02  0.50528856295E+02  0.29999989195E+02 0.  0.
         12    1    1    2    0    0  0.37031759450E+02 -0.60624572321E+01  0.15654436148E+02  0.40659143705E+02  0.00000000000E+00 0. -1.
         11    1    3    3    0    0 -0.23312455865E+01 -0.26450972427E+01 -0.29819498279E+01  0.46177126854E+01  0.51100000000E-03 0. -1.
        -11    1    3    3    0    0 -0.80710042054E+01  0.37074828316E+01 -0.16311629822E+02  0.18572985908E+02  0.51100000000E-03 0.  1.
         12    1    3    3    0    0 -0.26629509658E+02  0.50000716431E+01  0.36391435020E+01  0.27338157701E+02  0.00000000000E+00 0. -1.
</event>
<event>
 7    1  0.5479172E-013  0.5052886E+02  0.7816164E-02  0.1300439E+00
        -11   -1    0    0    0    0  0.00000000000E+00  0.00000000000E+00  0.45593999997E+02  0.45594000000E+02  0.51100000000E-03 0.  1.
         11   -1    0    0    0    0 -0.00000000000E+00 -0.00000000000E+00 -0.45593999997E+02  0.45594000000E+02  0.51100000000E-03 0. -1.
    9900012    2    1    2    0    0  0.23317763991E+02 -0.30876947437E+02  0.12492463331E+02  0.50528860306E+02  0.30000001386E+02 0.  0.
         12    1    1    2    0    0 -0.23317763991E+02  0.30876947437E+02 -0.12492463331E+02  0.40659139694E+02  0.00000000000E+00 0. -1.
         11    1    3    3    0    0  0.11125377133E+02  0.12731507483E+01  0.15271918495E+01  0.11301647861E+02  0.51100000000E-03 0. -1.
        -11    1    3    3    0    0  0.10470222592E+02 -0.13905019502E+02  0.11553515304E+02  0.20891597465E+02  0.51100000000E-03 0.  1.
        -12    1    3    3    0    0  0.17221642669E+01 -0.18245078683E+02 -0.58824382251E+00  0.18335614980E+02  0.00000000000E+00 0.  1.
</event>
<event>
 7    1  0.5479172E-013  0.5052887E+02  0.7816164E-02  0.1300439E+00
        -11   -1    0    0    0    0  0.00000000000E+00  0.00000000000E+00  0.45593999997E+02  0.45594000000E+02  0.51100000000E-03 0.  1.
         11   -1    0    0    0    0 -0.00000000000E+00 -0.00000000000E+00 -0.45593999997E+02  0.45594000000E+02  0.51100000000E-03 0. -1.
    9900012    2    1    2    0    0  0.20529076632E+02  0.20607938719E+02  0.28408357474E+02  0.50528869415E+02  0.30000029073E+02 0.  0.
         12    1    1    2    0    0 -0.20529076632E+02 -0.20607938719E+02 -0.28408357474E+02  0.40659130585E+02  0.00000000000E+00 0. -1.
         11    1    3    3    0    0 -0.34002602374E+01  0.26449131015E+01  0.43722186175E+01  0.61378848878E+01  0.51100000000E-03 0. -1.
        -11    1    3    3    0    0  0.69581373521E-01  0.12774529105E+02  0.65336552395E+01  0.14348591794E+02  0.51100000000E-03 0.  1.
        -12    1    3    3    0    0  0.23859755496E+02  0.51884965122E+01  0.17502483617E+02  0.30042392733E+02  0.00000000000E+00 0.  1.
</event>
<event>
 7    1  0.5479172E-013  0.5052886E+02  0.7816164E-02  0.1300439E+00
        -11   -1    0    0    0    0  0.00000000000E+00  0.00000000000E+00  0.45593999997E+02  0.45594000000E+02  0.51100000000E-03 0. -1.
         11   -1    0    0    0    0 -0.00000000000E+00 -0.00000000000E+00 -0.45593999997E+02  0.45594000000E+02  0.51100000000E-03 0.  1.
    9900012    2    1    2    0    0 -0.39390877210E+02  0.98783839736E+01 -0.19854130317E+01  0.50528861517E+02  0.30000005066E+02 0.  0.
         12    1    1    2    0    0  0.39390877210E+02 -0.98783839736E+01  0.19854130317E+01  0.40659138483E+02  0.00000000000E+00 0. -1.
         11    1    3    3    0    0 -0.13384272528E+02 -0.62002418969E+01 -0.56364181376E+00  0.14761417379E+02  0.51100000000E-03 0. -1.
        -11    1    3    3    0    0 -0.17187396132E+02  0.11202466413E+02 -0.97304390164E+01  0.22706459064E+02  0.51100000000E-03 0.  1.
        -12    1    3    3    0    0 -0.88192085495E+01  0.48761594579E+01  0.83086677984E+01  0.13060985073E+02  0.00000000000E+00 0.  1.
</event>
<event>
 7    1  0.5479172E-013  0.5052886E+02  0.7816164E-02  0.1300439E+00
        -11   -1    0    0    0    0  0.00000000000E+00  0.00000000000E+00  0.45593999997E+02  0.45594000000E+02  0.51100000000E-03 0. -1.
         11   -1    0    0    0    0 -0.00000000000E+00 -0.00000000000E+00 -0.45593999997E+02  0.45594000000E+02  0.51100000000E-03 0.  1.
    9900012    2    1    2    0    0 -0.27744736111E+02  0.87806650228E+01 -0.28395341098E+02  0.50528857656E+02  0.29999993330E+02 0.  0.
         12    1    1    2    0    0  0.27744736111E+02 -0.87806650228E+01  0.28395341098E+02  0.40659142344E+02  0.00000000000E+00 0. -1.
         11    1    3    3    0    0  0.56087984076E+00 -0.16690931758E+01 -0.23670083689E+01  0.29501164562E+01  0.51100000000E-03 0. -1.
        -11    1    3    3    0    0 -0.11197235881E+01  0.20540555974E+01  0.49754028467E+01  0.54979595359E+01  0.51100000000E-03 0.  1.
        -12    1    3    3    0    0 -0.27185892363E+02  0.83957026012E+01 -0.31003735576E+02  0.42080781664E+02  0.00000000000E+00 0.  1.
</event>
<event>
 7    1  0.5479172E-013  0.5052883E+02  0.7816164E-02  0.1300439E+00
        -11   -1    0    0    0    0  0.00000000000E+00  0.00000000000E+00  0.45593999997E+02  0.45594000000E+02  0.51100000000E-03 0.  1.
         11   -1    0    0    0    0 -0.00000000000E+00 -0.00000000000E+00 -0.45593999997E+02  0.45594000000E+02  0.51100000000E-03 0. -1.
    9900012    2    1    2    0    0  0.57638922122E+01  0.17201912257E+01  0.40211775878E+02  0.50528825998E+02  0.29999897103E+02 0.  0.
         12    1    1    2    0    0 -0.57638922122E+01 -0.17201912257E+01 -0.40211775878E+02  0.40659174002E+02  0.00000000000E+00 0. -1.
         11    1    3    3    0    0 -0.47262219404E+01 -0.82291903947E+00  0.20767340353E+02  0.21314239258E+02  0.51100000000E-03 0. -1.
        -11    1    3    3    0    0  0.40785718282E+01  0.39886069757E+01  0.21566335534E+02  0.22308082894E+02  0.51100000000E-03 0.  1.
         12    1    3    3    0    0  0.64115423244E+01 -0.14454967105E+01 -0.21219000092E+01  0.69065038454E+01  0.00000000000E+00 0. -1.
</event>
<event>
 7    1  0.5479172E-013  0.5052885E+02  0.7816164E-02  0.1300439E+00
        -11   -1    0    0    0    0  0.00000000000E+00  0.00000000000E+00  0.45593999997E+02  0.45594000000E+02  0.51100000000E-03 0. -1.
         11   -1    0    0    0    0 -0.00000000000E+00 -0.00000000000E+00 -0.45593999997E+02  0.45594000000E+02  0.51100000000E-03 0.  1.
    9900012    2    1    2    0    0 -0.21303724814E+02  0.33379533440E+02 -0.92263175765E+01  0.50528845070E+02  0.29999955074E+02 0.  0.
         12    1    1    2    0    0  0.21303724814E+02 -0.33379533440E+02  0.92263175765E+01  0.40659154930E+02  0.00000000000E+00 0. -1.
         11    1    3    3    0    0  0.33893743442E+01  0.16846610896E+01 -0.43235724794E+01  0.57462353483E+01  0.51100000000E-03 0. -1.
        -11    1    3    3    0    0 -0.20848428120E+02  0.32969972107E+02 -0.78277602423E+01  0.39786302247E+02  0.51100000000E-03 0.  1.
         12    1    3    3    0    0 -0.38446710380E+01 -0.12750997569E+01  0.29250151452E+01  0.49963074746E+01  0.00000000000E+00 0. -1.
</event>
<event>
 7    1  0.5479172E-013  0.5052885E+02  0.7816164E-02  0.1300439E+00
        -11   -1    0    0    0    0  0.00000000000E+00  0.00000000000E+00  0.45593999997E+02  0.45594000000E+02  0.51100000000E-03 0.  1.
         11   -1    0    0    0    0 -0.00000000000E+00 -0.00000000000E+00 -0.45593999997E+02  0.45594000000E+02  0.51100000000E-03 0. -1.
    9900012    2    1    2    0    0  0.15007869258E+02  0.76250511354E+01  0.37010657064E+02  0.50528852434E+02  0.29999977458E+02 0.  0.
         12    1    1    2    0    0 -0.15007869258E+02 -0.76250511354E+01 -0.37010657064E+02  0.40659147566E+02  0.00000000000E+00 0. -1.
         11    1    3    3    0    0  0.23927675241E+01  0.51860979836E+01  0.45104265792E+00  0.57292572346E+01  0.51100000000E-03 0. -1.
        -11    1    3    3    0    0  0.10952346410E+02  0.11391519773E+02  0.28736092834E+02  0.32794567329E+02  0.51100000000E-03 0.  1.
         12    1    3    3    0    0  0.16627553239E+01 -0.89525666216E+01  0.78235215718E+01  0.12005027870E+02  0.00000000000E+00 0. -1.
</event>
<event>
 7    1  0.5479172E-013  0.5052884E+02  0.7816164E-02  0.1300439E+00
        -11   -1    0    0    0    0  0.00000000000E+00  0.00000000000E+00  0.45593999997E+02  0.45594000000E+02  0.51100000000E-03 0. -1.
         11   -1    0    0    0    0 -0.00000000000E+00 -0.00000000000E+00 -0.45593999997E+02  0.45594000000E+02  0.51100000000E-03 0.  1.
    9900012    2    1    2    0    0 -0.19203147210E+02 -0.33294490841E+02  0.13262086132E+02  0.50528844675E+02  0.29999953874E+02 0.  0.
         12    1    1    2    0    0  0.19203147210E+02  0.33294490841E+02 -0.13262086132E+02  0.40659155325E+02  0.00000000000E+00 0. -1.
         11    1    3    3    0    0 -0.10630332258E+02 -0.15156496611E+02  0.94000489170E+01  0.20762569045E+02  0.51100000000E-03 0. -1.
        -11    1    3    3    0    0 -0.13751680671E+02 -0.19239051416E+02  0.82584311830E+00  0.23662878899E+02  0.51100000000E-03 0.  1.
        -12    1    3    3    0    0  0.51788657194E+01  0.11010571855E+01  0.30361940968E+01  0.61033967312E+01  0.00000000000E+00 0.  1.
</event>
<event>
 7    1  0.5479172E-013  0.5052887E+02  0.7816164E-02  0.1300439E+00
        -11   -1    0    0    0    0  0.00000000000E+00  0.00000000000E+00  0.45593999997E+02  0.45594000000E+02  0.51100000000E-03 0. -1.
         11   -1    0    0    0    0 -0.00000000000E+00 -0.00000000000E+00 -0.45593999997E+02  0.45594000000E+02  0.51100000000E-03 0.  1.
    9900012    2    1    2    0    0  0.33782389805E+02  0.19741134649E+02 -0.11054546428E+02  0.50528865049E+02  0.30000015804E+02 0.  0.
         12    1    1    2    0    0 -0.33782389805E+02 -0.19741134649E+02  0.11054546428E+02  0.40659134951E+02  0.00000000000E+00 0. -1.
         11    1    3    3    0    0  0.14039709723E+02  0.63351120137E+01  0.47667326184E+00  0.15410201523E+02  0.51100000000E-03 0. -1.
        -11    1    3    3    0    0  0.13323330868E+02  0.17080132442E+02 -0.29192067672E+00  0.21663962879E+02  0.51100000000E-03 0.  1.
         12    1    3    3    0    0  0.64193492144E+01 -0.36741098066E+01 -0.11239299013E+02  0.13454700647E+02  0.00000000000E+00 0. -1.
</event>
<event>
 7    1  0.5479172E-013  0.5052888E+02  0.7816164E-02  0.1300439E+00
        -11   -1    0    0    0    0  0.00000000000E+00  0.00000000000E+00  0.45593999997E+02  0.45594000000E+02  0.51100000000E-03 0. -1.
         11   -1    0    0    0    0 -0.00000000000E+00 -0.00000000000E+00 -0.45593999997E+02  0.45594000000E+02  0.51100000000E-03 0.  1.
    9900012    2    1    2    0    0  0.19383633779E+01  0.36243090643E+02 -0.18326070871E+02  0.50528883611E+02  0.30000072224E+02 0.  0.
         12    1    1    2    0    0 -0.19383633779E+01 -0.36243090643E+02  0.18326070871E+02  0.40659116389E+02  0.00000000000E+00 0. -1.
         11    1    3    3    0    0  0.10153817379E+02  0.13021636618E+02 -0.64910738996E+01  0.17742521472E+02  0.51100000000E-03 0. -1.
        -11    1    3    3    0    0  0.52509020125E+01  0.78672221753E+01 -0.70862416676E+01  0.11818628429E+02  0.51100000000E-03 0.  1.
         12    1    3    3    0    0 -0.13466356013E+02  0.15354231850E+02 -0.47487553035E+01  0.20967733710E+02  0.00000000000E+00 0. -1.
</event>
<event>
 7    1  0.5479172E-013  0.5052888E+02  0.7816164E-02  0.1300439E+00
        -11   -1    0    0    0    0  0.00000000000E+00  0.00000000000E+00  0.45593999997E+02  0.45594000000E+02  0.51100000000E-03 0.  1.
         11   -1    0    0    0    0 -0.00000000000E+00 -0.00000000000E+00 -0.45593999997E+02  0.45594000000E+02  0.51100000000E-03 0. -1.
    9900012    2    1    2    0    0 -0.16861888611E+02  0.27356725915E+02  0.24908846207E+02  0.50528876058E+02  0.30000049267E+02 0.  0.
         12    1    1    2    0    0  0.16861888611E+02 -0.27356725915E+02 -0.24908846207E+02  0.40659123942E+02  0.00000000000E+00 0. -1.
         11    1    3    3    0    0 -0.44197917900E+01 -0.18233095708E+01  0.49445454178E+01  0.68780481903E+01  0.51100000000E-03 0. -1.
        -11    1    3    3    0    0 -0.51549077650E+01  0.97185841070E+01  0.20049829076E+02  0.22869621714E+02  0.51100000000E-03 0.  1.
        -12    1    3    3    0    0 -0.72871890560E+01  0.19461451379E+02 -0.85528286818E-01  0.20781206154E+02  0.00000000000E+00 0.  1.
</event>
<event>
 7    1  0.5479172E-013  0.5052886E+02  0.7816164E-02  0.1300439E+00
        -11   -1    0    0    0    0  0.00000000000E+00  0.00000000000E+00  0.45593999997E+02  0.45594000000E+02  0.51100000000E-03 0.  1.
         11   -1    0    0    0    0 -0.00000000000E+00 -0.00000000000E+00 -0.45593999997E+02  0.45594000000E+02  0.51100000000E-03 0. -1.
    9900012    2    1    2    0    0 -0.66704958934E+01  0.21304017097E+02  0.33982481630E+02  0.50528859359E+02  0.29999998507E+02 0.  0.
         12    1    1    2    0    0  0.66704958934E+01 -0.21304017097E+02 -0.33982481630E+02  0.40659140641E+02  0.00000000000E+00 0. -1.
         11    1    3    3    0    0  0.44754770305E+01 -0.35924079577E+01  0.14261334773E+02  0.15372734284E+02  0.51100000000E-03 0. -1.
        -11    1    3    3    0    0 -0.12484796144E+01  0.39444426231E+01  0.84058865616E+01  0.93688984465E+01  0.51100000000E-03 0.  1.
        -12    1    3    3    0    0 -0.98974933095E+01  0.20951982432E+02  0.11315260296E+02  0.25787226628E+02  0.00000000000E+00 0.  1.
</event>
<event>
 7    1  0.5479172E-013  0.5052886E+02  0.7816164E-02  0.1300439E+00
        -11   -1    0    0    0    0  0.00000000000E+00  0.00000000000E+00  0.45593999997E+02  0.45594000000E+02  0.51100000000E-03 0. -1.
         11   -1    0    0    0    0 -0.00000000000E+00 -0.00000000000E+00 -0.45593999997E+02  0.45594000000E+02  0.51100000000E-03 0.  1.
    9900012    2    1    2    0    0 -0.48839659736E+01  0.26466325339E+02 -0.30476981975E+02  0.50528856737E+02  0.29999990538E+02 0.  0.
         12    1    1    2    0    0  0.48839659736E+01 -0.26466325339E+02  0.30476981975E+02  0.40659143263E+02  0.00000000000E+00 0. -1.
         11    1    3    3    0    0 -0.31826876525E+01  0.70609557392E+01 -0.19809189543E+02  0.21269475482E+02  0.51100000000E-03 0.  1.
        -11    1    3    3    0    0 -0.53257597780E+01  0.13641777967E+01  0.30686375062E+01  0.62961285470E+01  0.51100000000E-03 0. -1.
         12    1    3    3    0    0  0.36244814569E+01  0.18041191803E+02 -0.13736429938E+02  0.22963252708E+02  0.00000000000E+00 0. -1.
</event>
<event>
 7    1  0.5479172E-013  0.5052889E+02  0.7816164E-02  0.1300439E+00
        -11   -1    0    0    0    0  0.00000000000E+00  0.00000000000E+00  0.45593999997E+02  0.45594000000E+02  0.51100000000E-03 0.  1.
         11   -1    0    0    0    0 -0.00000000000E+00 -0.00000000000E+00 -0.45593999997E+02  0.45594000000E+02  0.51100000000E-03 0. -1.
    9900012    2    1    2    0    0 -0.10783642833E+02 -0.25163114002E+02  0.30061502646E+02  0.50528890315E+02  0.30000092602E+02 0.  0.
         12    1    1    2    0    0  0.10783642833E+02  0.25163114002E+02 -0.30061502646E+02  0.40659109685E+02  0.00000000000E+00 0. -1.
         11    1    3    3    0    0 -0.15639740189E+02 -0.78860228203E+01  0.58163797279E+01  0.18455923236E+02  0.51100000000E-03 0. -1.
        -11    1    3    3    0    0  0.78493281595E+00  0.13532902219E+01  0.55270098603E+00  0.16592144501E+01  0.51100000000E-03 0.  1.
        -12    1    3    3    0    0  0.40711645402E+01 -0.18630381404E+02  0.23692421932E+02  0.30413752629E+02  0.00000000000E+00 0.  1.
</event>
<event>
 7    1  0.5479172E-013  0.5052886E+02  0.7816164E-02  0.1300439E+00
        -11   -1    0    0    0    0  0.00000000000E+00  0.00000000000E+00  0.45593999997E+02  0.45594000000E+02  0.51100000000E-03 0. -1.
         11   -1    0    0    0    0 -0.00000000000E+00 -0.00000000000E+00 -0.45593999997E+02  0.45594000000E+02  0.51100000000E-03 0.  1.
    9900012    2    1    2    0    0  0.39113523782E+02  0.87223648861E+01 -0.68715450914E+01  0.50528861743E+02  0.30000005754E+02 0.  0.
         12    1    1    2    0    0 -0.39113523782E+02 -0.87223648861E+01  0.68715450914E+01  0.40659138257E+02  0.00000000000E+00 0. -1.
         11    1    3    3    0    0 -0.65577507665E-01 -0.34123810722E+01 -0.37800146946E+01  0.50928534580E+01  0.51100000000E-03 0. -1.
        -11    1    3    3    0    0  0.15053046295E+02 -0.28468659866E+01  0.46328212513E+01  0.16005058004E+02  0.51100000000E-03 0.  1.
        -12    1    3    3    0    0  0.24126054995E+02  0.14981611945E+02 -0.77243516481E+01  0.29430950281E+02  0.00000000000E+00 0.  1.
</event>
<event>
 7    1  0.5479172E-013  0.5052886E+02  0.7816164E-02  0.1300439E+00
        -11   -1    0    0    0    0  0.00000000000E+00  0.00000000000E+00  0.45593999997E+02  0.45594000000E+02  0.51100000000E-03 0. -1.
         11   -1    0    0    0    0 -0.00000000000E+00 -0.00000000000E+00 -0.45593999997E+02  0.45594000000E+02  0.51100000000E-03 0.  1.
    9900012    2    1    2    0    0 -0.26816135650E+02 -0.15590608936E+02 -0.26286748087E+02  0.50528863964E+02  0.30000012506E+02 0.  0.
         12    1    1    2    0    0  0.26816135650E+02  0.15590608936E+02  0.26286748087E+02  0.40659136036E+02  0.00000000000E+00 0. -1.
         11    1    3    3    0    0  0.18837539831E+01 -0.79969904941E+00 -0.82969741314E+00  0.22082675782E+01  0.51100000000E-03 0. -1.
        -11    1    3    3    0    0 -0.51074435445E+01 -0.95700188537E+01 -0.21159682586E+02  0.23778212881E+02  0.51100000000E-03 0.  1.
        -12    1    3    3    0    0 -0.23592446089E+02 -0.52208910329E+01 -0.42973680878E+01  0.24542383505E+02  0.00000000000E+00 0.  1.
</event>
<event>
 7    1  0.5479172E-013  0.5052886E+02  0.7816164E-02  0.1300439E+00
        -11   -1    0    0    0    0  0.00000000000E+00  0.00000000000E+00  0.45593999997E+02  0.45594000000E+02  0.51100000000E-03 0.  1.
         11   -1    0    0    0    0 -0.00000000000E+00 -0.00000000000E+00 -0.45593999997E+02  0.45594000000E+02  0.51100000000E-03 0. -1.
    9900012    2    1    2    0    0 -0.67400773039E+01 -0.27192050777E+02  0.29467426890E+02  0.50528861850E+02  0.30000006080E+02 0.  0.
         12    1    1    2    0    0  0.67400773039E+01  0.27192050777E+02 -0.29467426890E+02  0.40659138150E+02  0.00000000000E+00 0. -1.
         11    1    3    3    0    0  0.50925368492E+01 -0.23677960439E+02  0.20384458612E+02  0.31656056218E+02  0.51100000000E-03 0.  1.
        -11    1    3    3    0    0 -0.40238699063E+01 -0.61985362655E+01  0.12571682361E+01  0.74962559383E+01  0.51100000000E-03 0. -1.
        -12    1    3    3    0    0 -0.78087442467E+01  0.26844459270E+01  0.78258000425E+01  0.11376549694E+02  0.00000000000E+00 0.  1.
</event>
<event>
 7    1  0.5479172E-013  0.5052887E+02  0.7816164E-02  0.1300439E+00
        -11   -1    0    0    0    0  0.00000000000E+00  0.00000000000E+00  0.45593999997E+02  0.45594000000E+02  0.51100000000E-03 0.  1.
         11   -1    0    0    0    0 -0.00000000000E+00 -0.00000000000E+00 -0.45593999997E+02  0.45594000000E+02  0.51100000000E-03 0. -1.
    9900012    2    1    2    0    0 -0.33543900503E+02  0.15327878379E+02  0.17118062571E+02  0.50528865937E+02  0.30000018502E+02 0.  0.
         12    1    1    2    0    0  0.33543900503E+02 -0.15327878379E+02 -0.17118062571E+02  0.40659134063E+02  0.00000000000E+00 0. -1.
         11    1    3    3    0    0 -0.12340546712E+02  0.82578338003E+01 -0.57061717659E+01  0.15907272196E+02  0.51100000000E-03 0. -1.
        -11    1    3    3    0    0 -0.13596361909E+02  0.47883426041E+01  0.52587450068E+01  0.15344174183E+02  0.51100000000E-03 0.  1.
        -12    1    3    3    0    0 -0.76069918810E+01  0.22817019751E+01  0.17565489330E+02  0.19277419558E+02  0.00000000000E+00 0.  1.
</event>
<event>
 7    1  0.5479172E-013  0.5052885E+02  0.7816164E-02  0.1300439E+00
        -11   -1    0    0    0    0  0.00000000000E+00  0.00000000000E+00  0.45593999997E+02  0.45594000000E+02  0.51100000000E-03 0. -1.
         11   -1    0    0    0    0 -0.00000000000E+00 -0.00000000000E+00 -0.45593999997E+02  0.45594000000E+02  0.51100000000E-03 0.  1.
    9900012    2    1    2    0    0  0.13488580979E+02  0.34278640683E+02 -0.17210437768E+02  0.50528853525E+02  0.29999980775E+02 0.  0.
         12    1    1    2    0    0 -0.13488580979E+02 -0.34278640683E+02  0.17210437768E+02  0.40659146475E+02  0.00000000000E+00 0. -1.
         11    1    3    3    0    0  0.20723914742E+00  0.41684780771E+01 -0.52021114403E+00  0.42059217110E+01  0.51100000000E-03 0. -1.
        -11    1    3    3    0    0  0.69072130376E+01  0.33641633686E+02 -0.18219775950E+02  0.38877105666E+02  0.51100000000E-03 0.  1.
         12    1    3    3    0    0  0.63741287945E+01 -0.35314710808E+01  0.15295493265E+01  0.74458261479E+01  0.00000000000E+00 0. -1.
</event>
<event>
 7    1  0.5479172E-013  0.5052894E+02  0.7816164E-02  0.1300439E+00
        -11   -1    0    0    0    0  0.00000000000E+00  0.00000000000E+00  0.45593999997E+02  0.45594000000E+02  0.51100000000E-03 0.  1.
         11   -1    0    0    0    0 -0.00000000000E+00 -0.00000000000E+00 -0.45593999997E+02  0.45594000000E+02  0.51100000000E-03 0. -1.
    9900012    2    1    2    0    0 -0.19719409290E+02 -0.79367891859E+00  0.35548198860E+02  0.50528936175E+02  0.30000231996E+02 0.  0.
         12    1    1    2    0    0  0.19719409290E+02  0.79367891859E+00 -0.35548198860E+02  0.40659063825E+02  0.00000000000E+00 0. -1.
         11    1    3    3    0    0 -0.12776060870E+02  0.53146546401E+01  0.10562736162E+02  0.17408178560E+02  0.51100000000E-03 0. -1.
        -11    1    3    3    0    0 -0.10171348309E+02  0.41515319901E+01  0.12706834110E+02  0.16797475335E+02  0.51100000000E-03 0.  1.
        -12    1    3    3    0    0  0.32279998889E+01 -0.10259865549E+02  0.12278628588E+02  0.16323282279E+02  0.00000000000E+00 0.  1.
</event>
<event>
 7    1  0.5479172E-013  0.5052883E+02  0.7816164E-02  0.1300439E+00
        -11   -1    0    0    0    0  0.00000000000E+00  0.00000000000E+00  0.45593999997E+02  0.45594000000E+02  0.51100000000E-03 0.  1.
         11   -1    0    0    0    0 -0.00000000000E+00 -0.00000000000E+00 -0.45593999997E+02  0.45594000000E+02  0.51100000000E-03 0. -1.
    9900012    2    1    2    0    0 -0.12817890926E+02  0.25699217710E+02  0.28782289702E+02  0.50528827367E+02  0.29999901264E+02 0.  0.
         12    1    1    2    0    0  0.12817890926E+02 -0.25699217710E+02 -0.28782289702E+02  0.40659172633E+02  0.00000000000E+00 0. -1.
         11    1    3    3    0    0  0.34199063306E+01  0.13047537045E+02  0.19339534979E+01  0.13626230537E+02  0.51100000000E-03 0. -1.
        -11    1    3    3    0    0 -0.29427315653E+01  0.89866115753E+01  0.41139377268E+01  0.10312290752E+02  0.51100000000E-03 0.  1.
        -12    1    3    3    0    0 -0.13295065691E+02  0.36650690894E+01  0.22734398478E+02  0.26590306078E+02  0.00000000000E+00 0.  1.
</event>
<event>
 7    1  0.5479172E-013  0.5052880E+02  0.7816164E-02  0.1300439E+00
        -11   -1    0    0    0    0  0.00000000000E+00  0.00000000000E+00  0.45593999997E+02  0.45594000000E+02  0.51100000000E-03 0. -1.
         11   -1    0    0    0    0 -0.00000000000E+00 -0.00000000000E+00 -0.45593999997E+02  0.45594000000E+02  0.51100000000E-03 0.  1.
    9900012    2    1    2    0    0 -0.24722520501E+01  0.13864323951E+02 -0.38142354212E+02  0.50528798167E+02  0.29999812509E+02 0.  0.
         12    1    1    2    0    0  0.24722520501E+01 -0.13864323951E+02  0.38142354212E+02  0.40659201833E+02  0.00000000000E+00 0. -1.
         11    1    3    3    0    0 -0.75102155509E+01  0.14147207046E+02 -0.18835538157E+02  0.24724973261E+02  0.51100000000E-03 0. -1.
        -11    1    3    3    0    0 -0.25483598434E+01  0.63953985151E+01 -0.63016692228E+01  0.93330753406E+01  0.51100000000E-03 0.  1.
        -12    1    3    3    0    0  0.75863233441E+01 -0.66782816095E+01 -0.13005146832E+02  0.16470749566E+02  0.00000000000E+00 0.  1.
</event>
<event>
 7    1  0.5479172E-013  0.5052885E+02  0.7816164E-02  0.1300439E+00
        -11   -1    0    0    0    0  0.00000000000E+00  0.00000000000E+00  0.45593999997E+02  0.45594000000E+02  0.51100000000E-03 0.  1.
         11   -1    0    0    0    0 -0.00000000000E+00 -0.00000000000E+00 -0.45593999997E+02  0.45594000000E+02  0.51100000000E-03 0. -1.
    9900012    2    1    2    0    0  0.73408137533E+01 -0.88460063272E+01  0.39000342431E+02  0.50528854851E+02  0.29999984806E+02 0.  0.
         12    1    1    2    0    0 -0.73408137533E+01  0.88460063272E+01 -0.39000342431E+02  0.40659145149E+02  0.00000000000E+00 0. -1.
         11    1    3    3    0    0  0.50083145964E+01 -0.38549864698E+01  0.27920689091E+01  0.69093982974E+01  0.51100000000E-03 0. -1.
        -11    1    3    3    0    0 -0.31171864898E+01  0.79483717255E+01  0.22204547914E+02  0.23789397072E+02  0.51100000000E-03 0.  1.
         12    1    3    3    0    0  0.54496856467E+01 -0.12939391583E+02  0.14003725608E+02  0.19830059482E+02  0.00000000000E+00 0. -1.
</event>
<event>
 7    1  0.5479172E-013  0.5052886E+02  0.7816164E-02  0.1300439E+00
        -11   -1    0    0    0    0  0.00000000000E+00  0.00000000000E+00  0.45593999997E+02  0.45594000000E+02  0.51100000000E-03 0. -1.
         11   -1    0    0    0    0 -0.00000000000E+00 -0.00000000000E+00 -0.45593999997E+02  0.45594000000E+02  0.51100000000E-03 0.  1.
    9900012    2    1    2    0    0 -0.26719964125E+02 -0.30606280243E+02  0.15698949021E+01  0.50528862734E+02  0.30000008767E+02 0.  0.
         12    1    1    2    0    0  0.26719964125E+02  0.30606280243E+02 -0.15698949021E+01  0.40659137266E+02  0.00000000000E+00 0. -1.
         11    1    3    3    0    0 -0.99834122406E+01 -0.11767662412E+02  0.92923821479E+01  0.18013738225E+02  0.51100000000E-03 0. -1.
        -11    1    3    3    0    0 -0.94453366634E+01 -0.62898879978E+01  0.57420245878E+01  0.12718015660E+02  0.51100000000E-03 0.  1.
         12    1    3    3    0    0 -0.72912152213E+01 -0.12548729833E+02 -0.13464511834E+02  0.19797108848E+02  0.00000000000E+00 0. -1.
</event>
<event>
 7    1  0.5479172E-013  0.5052885E+02  0.7816164E-02  0.1300439E+00
        -11   -1    0    0    0    0  0.00000000000E+00  0.00000000000E+00  0.45593999997E+02  0.45594000000E+02  0.51100000000E-03 0. -1.
         11   -1    0    0    0    0 -0.00000000000E+00 -0.00000000000E+00 -0.45593999997E+02  0.45594000000E+02  0.51100000000E-03 0.  1.
    9900012    2    1    2    0    0 -0.24969930879E+02 -0.19715400235E+02 -0.25317423627E+02  0.50528851046E+02  0.29999973239E+02 0.  0.
         12    1    1    2    0    0  0.24969930879E+02  0.19715400235E+02  0.25317423627E+02  0.40659148954E+02  0.00000000000E+00 0. -1.
         11    1    3    3    0    0  0.28899079798E+01  0.33475726374E+01  0.83484073317E+00  0.45005299694E+01  0.51100000000E-03 0. -1.
        -11    1    3    3    0    0 -0.44154177445E+01  0.67598864779E+00 -0.23807876595E+01  0.50617215106E+01  0.51100000000E-03 0.  1.
        -12    1    3    3    0    0 -0.23444421114E+02 -0.23738961521E+02 -0.23771476701E+02  0.40966599566E+02  0.00000000000E+00 0.  1.
</event>
<event>
 7    1  0.5479172E-013  0.5052884E+02  0.7816164E-02  0.1300439E+00
        -11   -1    0    0    0    0  0.00000000000E+00  0.00000000000E+00  0.45593999997E+02  0.45594000000E+02  0.51100000000E-03 0. -1.
         11   -1    0    0    0    0 -0.00000000000E+00 -0.00000000000E+00 -0.45593999997E+02  0.45594000000E+02  0.51100000000E-03 0.  1.
    9900012    2    1    2    0    0 -0.88008697777E+01 -0.47000326868E+01 -0.39416011922E+02  0.50528836065E+02  0.29999927702E+02 0.  0.
         12    1    1    2    0    0  0.88008697777E+01  0.47000326868E+01  0.39416011922E+02  0.40659163935E+02  0.00000000000E+00 0. -1.
         11    1    3    3    0    0 -0.56948646734E+01 -0.36951011590E+00  0.34325121818E+01  0.66595916927E+01  0.51100000000E-03 0. -1.
        -11    1    3    3    0    0  0.15179570887E+01  0.57116320297E+00 -0.26282024227E+01  0.30883441135E+01  0.51100000000E-03 0.  1.
         12    1    3    3    0    0 -0.46239621931E+01 -0.49016857738E+01 -0.40220321681E+02  0.40780900259E+02  0.00000000000E+00 0. -1.
</event>
<event>
 7    1  0.5479172E-013  0.5052888E+02  0.7816164E-02  0.1300439E+00
        -11   -1    0    0    0    0  0.00000000000E+00  0.00000000000E+00  0.45593999997E+02  0.45594000000E+02  0.51100000000E-03 0.  1.
         11   -1    0    0    0    0 -0.00000000000E+00 -0.00000000000E+00 -0.45593999997E+02  0.45594000000E+02  0.51100000000E-03 0. -1.
    9900012    2    1    2    0    0  0.64192066211E+01 -0.39461002556E+02  0.74018290698E+01  0.50528880359E+02  0.30000062339E+02 0.  0.
         12    1    1    2    0    0 -0.64192066211E+01  0.39461002556E+02 -0.74018290698E+01  0.40659119641E+02  0.00000000000E+00 0. -1.
         11    1    3    3    0    0  0.93629525161E+01 -0.26898261521E+02  0.30232421609E+01  0.28641252524E+02  0.51100000000E-03 0. -1.
        -11    1    3    3    0    0  0.68979998058E+01 -0.73498103035E+01  0.36732654949E+01  0.10728233428E+02  0.51100000000E-03 0.  1.
         12    1    3    3    0    0 -0.98417457009E+01 -0.52129307315E+01  0.70532141406E+00  0.11159394408E+02  0.00000000000E+00 0. -1.
</event>
<event>
 7    1  0.5479172E-013  0.5052886E+02  0.7816164E-02  0.1300439E+00
        -11   -1    0    0    0    0  0.00000000000E+00  0.00000000000E+00  0.45593999997E+02  0.45594000000E+02  0.51100000000E-03 0.  1.
         11   -1    0    0    0    0 -0.00000000000E+00 -0.00000000000E+00 -0.45593999997E+02  0.45594000000E+02  0.51100000000E-03 0. -1.
    9900012    2    1    2    0    0 -0.39245983522E+02 -0.97300817659E+00 -0.10581652752E+02  0.50528863972E+02  0.30000012530E+02 0.  0.
         12    1    1    2    0    0  0.39245983522E+02  0.97300817659E+00  0.10581652752E+02  0.40659136028E+02  0.00000000000E+00 0. -1.
         11    1    3    3    0    0 -0.96759615599E+00 -0.58867856187E+00 -0.31151544422E+01  0.33146601983E+01  0.51100000000E-03 0. -1.
        -11    1    3    3    0    0 -0.30896972074E+02  0.96434173805E+01 -0.11142810967E+02  0.34231281288E+02  0.51100000000E-03 0.  1.
         12    1    3    3    0    0 -0.73814152921E+01 -0.10027746995E+02  0.36763126574E+01  0.12982922486E+02  0.00000000000E+00 0. -1.
</event>
<event>
 7    1  0.5479172E-013  0.5052886E+02  0.7816164E-02  0.1300439E+00
        -11   -1    0    0    0    0  0.00000000000E+00  0.00000000000E+00  0.45593999997E+02  0.45594000000E+02  0.51100000000E-03 0.  1.
         11   -1    0    0    0    0 -0.00000000000E+00 -0.00000000000E+00 -0.45593999997E+02  0.45594000000E+02  0.51100000000E-03 0. -1.
    9900012    2    1    2    0    0  0.21902086601E+02 -0.83594966434E+01  0.33220219717E+02  0.50528861056E+02  0.30000003667E+02 0.  0.
         12    1    1    2    0    0 -0.21902086601E+02  0.83594966434E+01 -0.33220219717E+02  0.40659138944E+02  0.00000000000E+00 0. -1.
         11    1    3    3    0    0  0.13569267232E+02 -0.75144223568E+01  0.98470038420E+01  0.18372671049E+02  0.51100000000E-03 0. -1.
        -11    1    3    3    0    0  0.56516542556E+01 -0.30381375735E+01  0.26635801064E+02  0.27397762214E+02  0.51100000000E-03 0.  1.
         12    1    3    3    0    0  0.26811651137E+01  0.21930632869E+01 -0.32625851890E+01  0.47584277932E+01  0.00000000000E+00 0. -1.
</event>
<event>
 7    1  0.5479172E-013  0.5052886E+02  0.7816164E-02  0.1300439E+00
        -11   -1    0    0    0    0  0.00000000000E+00  0.00000000000E+00  0.45593999997E+02  0.45594000000E+02  0.51100000000E-03 0. -1.
         11   -1    0    0    0    0 -0.00000000000E+00 -0.00000000000E+00 -0.45593999997E+02  0.45594000000E+02  0.51100000000E-03 0.  1.
    9900012    2    1    2    0    0 -0.23926216038E+02 -0.22225905346E+02 -0.24222115466E+02  0.50528861298E+02  0.30000004402E+02 0.  0.
         12    1    1    2    0    0  0.23926216038E+02  0.22225905346E+02  0.24222115466E+02  0.40659138702E+02  0.00000000000E+00 0. -1.
         11    1    3    3    0    0  0.45109756356E+01 -0.31946129808E+01 -0.17721974765E+01  0.58047512814E+01  0.51100000000E-03 0. -1.
        -11    1    3    3    0    0 -0.18323520408E+02 -0.77920937874E+01 -0.21893993971E+02  0.29594173379E+02  0.51100000000E-03 0.  1.
         12    1    3    3    0    0 -0.10113671266E+02 -0.11239198578E+02 -0.55592401821E+00  0.15129936637E+02  0.00000000000E+00 0. -1.
</event>
<event>
 7    1  0.5479172E-013  0.5052886E+02  0.7816164E-02  0.1300439E+00
        -11   -1    0    0    0    0  0.00000000000E+00  0.00000000000E+00  0.45593999997E+02  0.45594000000E+02  0.51100000000E-03 0. -1.
         11   -1    0    0    0    0 -0.00000000000E+00 -0.00000000000E+00 -0.45593999997E+02  0.45594000000E+02  0.51100000000E-03 0.  1.
    9900012    2    1    2    0    0 -0.10599347957E+02  0.17780000343E+02 -0.34995589137E+02  0.50528857752E+02  0.29999993624E+02 0.  0.
         12    1    1    2    0    0  0.10599347957E+02 -0.17780000343E+02  0.34995589137E+02  0.40659142248E+02  0.00000000000E+00 0. -1.
         11    1    3    3    0    0 -0.75054821254E+01  0.15899324430E+02 -0.10148814346E+02  0.20300719499E+02  0.51100000000E-03 0. -1.
        -11    1    3    3    0    0 -0.13635179193E+01  0.83454890716E+01 -0.64003403375E+01  0.10605221622E+02  0.51100000000E-03 0.  1.
        -12    1    3    3    0    0 -0.17303479126E+01 -0.64648131593E+01 -0.18446434453E+02  0.19622916631E+02  0.00000000000E+00 0.  1.
</event>
<event>
 7    1  0.5479172E-013  0.5052885E+02  0.7816164E-02  0.1300439E+00
        -11   -1    0    0    0    0  0.00000000000E+00  0.00000000000E+00  0.45593999997E+02  0.45594000000E+02  0.51100000000E-03 0.  1.
         11   -1    0    0    0    0 -0.00000000000E+00 -0.00000000000E+00 -0.45593999997E+02  0.45594000000E+02  0.51100000000E-03 0. -1.
    9900012    2    1    2    0    0 -0.86177316916E+01 -0.24626979520E+00  0.39734626294E+02  0.50528850045E+02  0.29999970197E+02 0.  0.
         12    1    1    2    0    0  0.86177316916E+01  0.24626979520E+00 -0.39734626294E+02  0.40659149955E+02  0.00000000000E+00 0. -1.
         11    1    3    3    0    0  0.65982925498E+01  0.74946953160E+01  0.15028222710E+02  0.18043153841E+02  0.51100000000E-03 0. -1.
        -11    1    3    3    0    0  0.17777441545E+01  0.67082574235E+00  0.38806084945E+01  0.43208221445E+01  0.51100000000E-03 0.  1.
         12    1    3    3    0    0 -0.16993768396E+02 -0.84117908536E+01  0.20825795089E+02  0.28164874059E+02  0.00000000000E+00 0. -1.
</event>
<event>
 7    1  0.5479172E-013  0.5052886E+02  0.7816164E-02  0.1300439E+00
        -11   -1    0    0    0    0  0.00000000000E+00  0.00000000000E+00  0.45593999997E+02  0.45594000000E+02  0.51100000000E-03 0.  1.
         11   -1    0    0    0    0 -0.00000000000E+00 -0.00000000000E+00 -0.45593999997E+02  0.45594000000E+02  0.51100000000E-03 0. -1.
    9900012    2    1    2    0    0 -0.29752016839E+02 -0.20468773687E+02  0.18681870764E+02  0.50528862067E+02  0.30000006738E+02 0.  0.
         12    1    1    2    0    0  0.29752016839E+02  0.20468773687E+02 -0.18681870764E+02  0.40659137933E+02  0.00000000000E+00 0. -1.
         11    1    3    3    0    0 -0.25279083172E+02 -0.11349384048E+02  0.11490095666E+02  0.29997714295E+02  0.51100000000E-03 0. -1.
        -11    1    3    3    0    0 -0.99532591009E+01 -0.18457847927E+01  0.38422552808E+01  0.10827613501E+02  0.51100000000E-03 0.  1.
         12    1    3    3    0    0  0.54803254338E+01 -0.72736048471E+01  0.33495198166E+01  0.97035342703E+01  0.00000000000E+00 0. -1.
</event>
<event>
 7    1  0.5479172E-013  0.5052886E+02  0.7816164E-02  0.1300439E+00
        -11   -1    0    0    0    0  0.00000000000E+00  0.00000000000E+00  0.45593999997E+02  0.45594000000E+02  0.51100000000E-03 0.  1.
         11   -1    0    0    0    0 -0.00000000000E+00 -0.00000000000E+00 -0.45593999997E+02  0.45594000000E+02  0.51100000000E-03 0. -1.
    9900012    2    1    2    0    0  0.29697618130E+01  0.21920219314E+02  0.34115243572E+02  0.50528863955E+02  0.30000012477E+02 0.  0.
         12    1    1    2    0    0 -0.29697618130E+01 -0.21920219314E+02 -0.34115243572E+02  0.40659136045E+02  0.00000000000E+00 0. -1.
         11    1    3    3    0    0  0.57396836122E+01 -0.30284398700E+01  0.46634327765E+01  0.79914342603E+01  0.51100000000E-03 0. -1.
        -11    1    3    3    0    0  0.54511987844E+01  0.13058538193E+01  0.64132718307E+01  0.85176803309E+01  0.51100000000E-03 0.  1.
        -12    1    3    3    0    0 -0.82211205837E+01  0.23642805364E+02  0.23038538964E+02  0.34019749364E+02  0.00000000000E+00 0.  1.
</event>
<event>
 7    1  0.5479172E-013  0.5052887E+02  0.7816164E-02  0.1300439E+00
        -11   -1    0    0    0    0  0.00000000000E+00  0.00000000000E+00  0.45593999997E+02  0.45594000000E+02  0.51100000000E-03 0.  1.
         11   -1    0    0    0    0 -0.00000000000E+00 -0.00000000000E+00 -0.45593999997E+02  0.45594000000E+02  0.51100000000E-03 0. -1.
    9900012    2    1    2    0    0  0.21449775349E+02 -0.33787387490E+02 -0.71752817958E+01  0.50528867142E+02  0.30000022165E+02 0.  0.
         12    1    1    2    0    0 -0.21449775349E+02  0.33787387490E+02  0.71752817958E+01  0.40659132858E+02  0.00000000000E+00 0. -1.
         11    1    3    3    0    0 -0.96274807412E+00 -0.16425333680E+02 -0.11717088542E+02  0.20199223611E+02  0.51100000000E-03 0. -1.
        -11    1    3    3    0    0  0.45950581620E+01 -0.35220766676E+01 -0.30264157021E+01  0.65328994962E+01  0.51100000000E-03 0.  1.
         12    1    3    3    0    0  0.17817465261E+02 -0.13839977142E+02  0.75682224479E+01  0.23796744035E+02  0.00000000000E+00 0. -1.
</event>
<event>
 7    1  0.5479172E-013  0.5052886E+02  0.7816164E-02  0.1300439E+00
        -11   -1    0    0    0    0  0.00000000000E+00  0.00000000000E+00  0.45593999997E+02  0.45594000000E+02  0.51100000000E-03 0. -1.
         11   -1    0    0    0    0 -0.00000000000E+00 -0.00000000000E+00 -0.45593999997E+02  0.45594000000E+02  0.51100000000E-03 0.  1.
    9900012    2    1    2    0    0 -0.16392589245E+02  0.24669460752E+02 -0.27854372154E+02  0.50528864200E+02  0.30000013222E+02 0.  0.
         12    1    1    2    0    0  0.16392589245E+02 -0.24669460752E+02  0.27854372154E+02  0.40659135800E+02  0.00000000000E+00 0. -1.
         11    1    3    3    0    0 -0.10871168993E+02  0.19928971551E+01 -0.11765349154E+02  0.16142409836E+02  0.51100000000E-03 0. -1.
        -11    1    3    3    0    0 -0.19770667796E+01  0.23250573238E+00 -0.10898678210E+02  0.11078990881E+02  0.51100000000E-03 0.  1.
        -12    1    3    3    0    0 -0.35443534728E+01  0.22444057864E+02 -0.51903447903E+01  0.23307463483E+02  0.00000000000E+00 0.  1.
</event>
<event>
 7    1  0.5479172E-013  0.5052886E+02  0.7816164E-02  0.1300439E+00
        -11   -1    0    0    0    0  0.00000000000E+00  0.00000000000E+00  0.45593999997E+02  0.45594000000E+02  0.51100000000E-03 0.  1.
         11   -1    0    0    0    0 -0.00000000000E+00 -0.00000000000E+00 -0.45593999997E+02  0.45594000000E+02  0.51100000000E-03 0. -1.
    9900012    2    1    2    0    0  0.21045799032E+02  0.39438553847E+01  0.34564233707E+02  0.50528857068E+02  0.29999991544E+02 0.  0.
         12    1    1    2    0    0 -0.21045799032E+02 -0.39438553847E+01 -0.34564233707E+02  0.40659142932E+02  0.00000000000E+00 0. -1.
         11    1    3    3    0    0 -0.52533678105E+00  0.80459242396E+00 -0.43336906219E+01  0.44389438350E+01  0.51100000000E-03 0. -1.
        -11    1    3    3    0    0  0.14052734547E+02 -0.27059340340E+01  0.17071721320E+02  0.22276559347E+02  0.51100000000E-03 0.  1.
        -12    1    3    3    0    0  0.75184012656E+01  0.58451969947E+01  0.21826203009E+02  0.23813353886E+02  0.00000000000E+00 0.  1.
</event>
<event>
 7    1  0.5479172E-013  0.5052886E+02  0.7816164E-02  0.1300439E+00
        -11   -1    0    0    0    0  0.00000000000E+00  0.00000000000E+00  0.45593999997E+02  0.45594000000E+02  0.51100000000E-03 0. -1.
         11   -1    0    0    0    0 -0.00000000000E+00 -0.00000000000E+00 -0.45593999997E+02  0.45594000000E+02  0.51100000000E-03 0.  1.
    9900012    2    1    2    0    0  0.30952519049E+02  0.18846337128E+02 -0.18436993707E+02  0.50528860860E+02  0.30000003071E+02 0.  0.
         12    1    1    2    0    0 -0.30952519049E+02 -0.18846337128E+02  0.18436993707E+02  0.40659139140E+02  0.00000000000E+00 0. -1.
         11    1    3    3    0    0  0.19778612592E+01 -0.43148744763E+00 -0.44389851358E+00  0.20724774377E+01  0.51100000000E-03 0. -1.
        -11    1    3    3    0    0  0.52991922872E+01  0.20238769754E+02 -0.53271177136E+01  0.21588594754E+02  0.51100000000E-03 0.  1.
        -12    1    3    3    0    0  0.23675465503E+02 -0.96094517836E+00 -0.12665977480E+02  0.26867788668E+02  0.00000000000E+00 0.  1.
</event>
<event>
 7    1  0.5479172E-013  0.5052886E+02  0.7816164E-02  0.1300439E+00
        -11   -1    0    0    0    0  0.00000000000E+00  0.00000000000E+00  0.45593999997E+02  0.45594000000E+02  0.51100000000E-03 0.  1.
         11   -1    0    0    0    0 -0.00000000000E+00 -0.00000000000E+00 -0.45593999997E+02  0.45594000000E+02  0.51100000000E-03 0. -1.
    9900012    2    1    2    0    0 -0.32363542685E+02  0.50424356728E+00  0.24607169660E+02  0.50528856435E+02  0.29999989621E+02 0.  0.
         12    1    1    2    0    0  0.32363542685E+02 -0.50424356728E+00 -0.24607169660E+02  0.40659143565E+02  0.00000000000E+00 0. -1.
         11    1    3    3    0    0 -0.12146018436E+02  0.15493564191E+01  0.59068588631E+01  0.13594750864E+02  0.51100000000E-03 0. -1.
        -11    1    3    3    0    0 -0.24322333399E+02 -0.62879562316E+01  0.13765191859E+02  0.28646025950E+02  0.51100000000E-03 0.  1.
         12    1    3    3    0    0  0.41048091505E+01  0.52428433797E+01  0.49351189382E+01  0.82880796207E+01  0.00000000000E+00 0. -1.
</event>
<event>
 7    1  0.5479172E-013  0.5052885E+02  0.7816164E-02  0.1300439E+00
        -11   -1    0    0    0    0  0.00000000000E+00  0.00000000000E+00  0.45593999997E+02  0.45594000000E+02  0.51100000000E-03 0. -1.
         11   -1    0    0    0    0 -0.00000000000E+00 -0.00000000000E+00 -0.45593999997E+02  0.45594000000E+02  0.51100000000E-03 0.  1.
    9900012    2    1    2    0    0  0.33614987529E+02  0.28306297557E+01 -0.22697715247E+02  0.50528854303E+02  0.29999983139E+02 0.  0.
         12    1    1    2    0    0 -0.33614987529E+02 -0.28306297557E+01  0.22697715247E+02  0.40659145697E+02  0.00000000000E+00 0. -1.
         11    1    3    3    0    0 -0.55884719681E+00 -0.20593286195E+01 -0.62108216316E+01  0.65671493171E+01  0.51100000000E-03 0. -1.
        -11    1    3    3    0    0 -0.23437115276E+01  0.32768972762E+01 -0.29046787546E+01  0.49667090122E+01  0.51100000000E-03 0.  1.
        -12    1    3    3    0    0  0.36517546253E+02  0.16130610990E+01 -0.13582214861E+02  0.38994995974E+02  0.00000000000E+00 0.  1.
</event>
<event>
 7    1  0.5479172E-013  0.5052873E+02  0.7816164E-02  0.1300439E+00
        -11   -1    0    0    0    0  0.00000000000E+00  0.00000000000E+00  0.45593999997E+02  0.45594000000E+02  0.51100000000E-03 0.  1.
         11   -1    0    0    0    0 -0.00000000000E+00 -0.00000000000E+00 -0.45593999997E+02  0.45594000000E+02  0.51100000000E-03 0. -1.
    9900012    2    1    2    0    0 -0.63751846908E+01  0.34539202251E+02  0.20483570663E+02  0.50528731204E+02  0.29999608964E+02 0.  0.
         12    1    1    2    0    0  0.63751846908E+01 -0.34539202251E+02 -0.20483570663E+02  0.40659268796E+02  0.00000000000E+00 0. -1.
         11    1    3    3    0    0 -0.60442632260E+01  0.12290169393E+02  0.12701099765E+02  0.18678846783E+02  0.51100000000E-03 0. -1.
        -11    1    3    3    0    0 -0.89186330767E+01  0.24254921023E+01  0.30606773271E+01  0.97361580645E+01  0.51100000000E-03 0.  1.
         12    1    3    3    0    0  0.85877116119E+01  0.19823540756E+02  0.47217935712E+01  0.22113726356E+02  0.00000000000E+00 0. -1.
</event>
<event>
 7    1  0.5479172E-013  0.5052886E+02  0.7816164E-02  0.1300439E+00
        -11   -1    0    0    0    0  0.00000000000E+00  0.00000000000E+00  0.45593999997E+02  0.45594000000E+02  0.51100000000E-03 0.  1.
         11   -1    0    0    0    0 -0.00000000000E+00 -0.00000000000E+00 -0.45593999997E+02  0.45594000000E+02  0.51100000000E-03 0. -1.
    9900012    2    1    2    0    0 -0.49741818370E+01  0.35617758397E+02  0.18968345747E+02  0.50528864021E+02  0.30000012679E+02 0.  0.
         12    1    1    2    0    0  0.49741818370E+01 -0.35617758397E+02 -0.18968345747E+02  0.40659135979E+02  0.00000000000E+00 0. -1.
         11    1    3    3    0    0  0.46370936858E+01  0.62752010396E+01  0.66020683872E+01  0.10220963418E+02  0.51100000000E-03 0. -1.
        -11    1    3    3    0    0  0.43245533058E+01  0.23902150672E+01 -0.35122689865E+01  0.60622539585E+01  0.51100000000E-03 0.  1.
        -12    1    3    3    0    0 -0.13935828829E+02  0.26952342290E+02  0.15878546346E+02  0.34245646645E+02  0.00000000000E+00 0.  1.
</event>
<event>
 7    1  0.5479172E-013  0.5052886E+02  0.7816164E-02  0.1300439E+00
        -11   -1    0    0    0    0  0.00000000000E+00  0.00000000000E+00  0.45593999997E+02  0.45594000000E+02  0.51100000000E-03 0.  1.
         11   -1    0    0    0    0 -0.00000000000E+00 -0.00000000000E+00 -0.45593999997E+02  0.45594000000E+02  0.51100000000E-03 0. -1.
    9900012    2    1    2    0    0  0.15408862863E+02  0.18076457904E+02  0.32999610030E+02  0.50528860225E+02  0.30000001140E+02 0.  0.
         12    1    1    2    0    0 -0.15408862863E+02 -0.18076457904E+02 -0.32999610030E+02  0.40659139775E+02  0.00000000000E+00 0. -1.
         11    1    3    3    0    0  0.46336795145E+01  0.11263804540E+01 -0.14551201324E+01  0.49856888823E+01  0.51100000000E-03 0. -1.
        -11    1    3    3    0    0  0.17181189468E+02  0.10712702804E+02  0.19446406736E+02  0.28073439549E+02  0.51100000000E-03 0.  1.
         12    1    3    3    0    0 -0.64060061194E+01  0.62373746459E+01  0.15008323426E+02  0.17469731794E+02  0.00000000000E+00 0. -1.
</event>
<event>
 7    1  0.5479172E-013  0.5052886E+02  0.7816164E-02  0.1300439E+00
        -11   -1    0    0    0    0  0.00000000000E+00  0.00000000000E+00  0.45593999997E+02  0.45594000000E+02  0.51100000000E-03 0.  1.
         11   -1    0    0    0    0 -0.00000000000E+00 -0.00000000000E+00 -0.45593999997E+02  0.45594000000E+02  0.51100000000E-03 0. -1.
    9900012    2    1    2    0    0 -0.80770556276E+00  0.31038233421E+02 -0.26251505186E+02  0.50528857773E+02  0.29999993686E+02 0.  0.
         12    1    1    2    0    0  0.80770556276E+00 -0.31038233421E+02  0.26251505186E+02  0.40659142227E+02  0.00000000000E+00 0. -1.
         11    1    3    3    0    0  0.73514182084E+00  0.43753045825E+00  0.69263000131E+00  0.11007283854E+01  0.51100000000E-03 0. -1.
        -11    1    3    3    0    0 -0.13038119680E+01 -0.52647773173E+01 -0.21923512304E+01  0.58501461544E+01  0.51100000000E-03 0.  1.
         12    1    3    3    0    0 -0.23903541556E+00  0.35865480280E+02 -0.24751783957E+02  0.43577983233E+02  0.00000000000E+00 0. -1.
</event>
<event>
 7    1  0.5479172E-013  0.5052886E+02  0.7816164E-02  0.1300439E+00
        -11   -1    0    0    0    0  0.00000000000E+00  0.00000000000E+00  0.45593999997E+02  0.45594000000E+02  0.51100000000E-03 0. -1.
         11   -1    0    0    0    0 -0.00000000000E+00 -0.00000000000E+00 -0.45593999997E+02  0.45594000000E+02  0.51100000000E-03 0.  1.
    9900012    2    1    2    0    0  0.39309083282E+02 -0.22830259717E+01 -0.10136537370E+02  0.50528860487E+02  0.30000001938E+02 0.  0.
         12    1    1    2    0    0 -0.39309083282E+02  0.22830259717E+01  0.10136537370E+02  0.40659139513E+02  0.00000000000E+00 0. -1.
         11    1    3    3    0    0  0.10475080114E+02 -0.40137004670E-01 -0.37327722733E+01  0.11120364359E+02  0.51100000000E-03 0. -1.
        -11    1    3    3    0    0  0.17330717493E+02 -0.13618235516E+02 -0.72654104405E+01  0.23207677534E+02  0.51100000000E-03 0.  1.
         12    1    3    3    0    0  0.11503285674E+02  0.11375346549E+02  0.86164534396E+00  0.16200818594E+02  0.00000000000E+00 0. -1.
</event>
<event>
 7    1  0.5479172E-013  0.5052886E+02  0.7816164E-02  0.1300439E+00
        -11   -1    0    0    0    0  0.00000000000E+00  0.00000000000E+00  0.45593999997E+02  0.45594000000E+02  0.51100000000E-03 0.  1.
         11   -1    0    0    0    0 -0.00000000000E+00 -0.00000000000E+00 -0.45593999997E+02  0.45594000000E+02  0.51100000000E-03 0. -1.
    9900012    2    1    2    0    0 -0.37864001985E+02  0.16761534921E+00  0.14814007999E+02  0.50528861123E+02  0.30000003870E+02 0.  0.
         12    1    1    2    0    0  0.37864001985E+02 -0.16761534921E+00 -0.14814007999E+02  0.40659138877E+02  0.00000000000E+00 0. -1.
         11    1    3    3    0    0 -0.11277905293E+02  0.10608599522E+02  0.43640723412E+01  0.16086598749E+02  0.51100000000E-03 0. -1.
        -11    1    3    3    0    0 -0.20386512639E+02  0.33601876363E-02  0.87231350965E+01  0.22174376994E+02  0.51100000000E-03 0.  1.
        -12    1    3    3    0    0 -0.61995840517E+01 -0.10444344361E+02  0.17268005611E+01  0.12267885381E+02  0.00000000000E+00 0.  1.
</event>
<event>
 7    1  0.5479172E-013  0.5052887E+02  0.7816164E-02  0.1300439E+00
        -11   -1    0    0    0    0  0.00000000000E+00  0.00000000000E+00  0.45593999997E+02  0.45594000000E+02  0.51100000000E-03 0. -1.
         11   -1    0    0    0    0 -0.00000000000E+00 -0.00000000000E+00 -0.45593999997E+02  0.45594000000E+02  0.51100000000E-03 0.  1.
    9900012    2    1    2    0    0  0.55149661933E+01 -0.36056549896E+02 -0.17963164748E+02  0.50528869042E+02  0.30000027939E+02 0.  0.
         12    1    1    2    0    0 -0.55149661933E+01  0.36056549896E+02  0.17963164748E+02  0.40659130958E+02  0.00000000000E+00 0. -1.
         11    1    3    3    0    0 -0.52575277178E+01 -0.24984484104E+01  0.74259868148E+00  0.58681594411E+01  0.51100000000E-03 0. -1.
        -11    1    3    3    0    0  0.11352300009E+02 -0.12937176056E+02 -0.16620203968E+02  0.23926479474E+02  0.51100000000E-03 0.  1.
         12    1    3    3    0    0 -0.57980609768E+00 -0.20620925429E+02 -0.20855594614E+01  0.20734230127E+02  0.00000000000E+00 0. -1.
</event>
<event>
 7    1  0.5479172E-013  0.5052887E+02  0.7816164E-02  0.1300439E+00
        -11   -1    0    0    0    0  0.00000000000E+00  0.00000000000E+00  0.45593999997E+02  0.45594000000E+02  0.51100000000E-03 0. -1.
         11   -1    0    0    0    0 -0.00000000000E+00 -0.00000000000E+00 -0.45593999997E+02  0.45594000000E+02  0.51100000000E-03 0.  1.
    9900012    2    1    2    0    0 -0.26625863689E+02  0.17903521468E+02 -0.24973822728E+02  0.50528874089E+02  0.30000043282E+02 0.  0.
         12    1    1    2    0    0  0.26625863689E+02 -0.17903521468E+02  0.24973822728E+02  0.40659125911E+02  0.00000000000E+00 0. -1.
         11    1    3    3    0    0 -0.19639717496E+02  0.23985856115E+01 -0.18511152549E+02  0.27094916224E+02  0.51100000000E-03 0. -1.
        -11    1    3    3    0    0 -0.10742304391E+02  0.10213153457E+02 -0.78869220822E+01  0.16790150308E+02  0.51100000000E-03 0.  1.
         12    1    3    3    0    0  0.37561581977E+01  0.52917823999E+01  0.14242519031E+01  0.66438075572E+01  0.00000000000E+00 0. -1.
</event>
<event>
 7    1  0.5479172E-013  0.5052886E+02  0.7816164E-02  0.1300439E+00
        -11   -1    0    0    0    0  0.00000000000E+00  0.00000000000E+00  0.45593999997E+02  0.45594000000E+02  0.51100000000E-03 0. -1.
         11   -1    0    0    0    0 -0.00000000000E+00 -0.00000000000E+00 -0.45593999997E+02  0.45594000000E+02  0.51100000000E-03 0.  1.
    9900012    2    1    2    0    0 -0.18955024087E+02 -0.64795581201E+01 -0.35382027493E+02  0.50528862268E+02  0.30000007350E+02 0.  0.
         12    1    1    2    0    0  0.18955024087E+02  0.64795581201E+01  0.35382027493E+02  0.40659137732E+02  0.00000000000E+00 0. -1.
         11    1    3    3    0    0  0.32606051184E+01 -0.20789442177E+00 -0.20743446580E+02  0.20999174796E+02  0.51100000000E-03 0. -1.
        -11    1    3    3    0    0 -0.14657545695E+01 -0.68595686526E+00  0.18398031860E+01  0.24502753526E+01  0.51100000000E-03 0.  1.
        -12    1    3    3    0    0 -0.20749874635E+02 -0.55857068331E+01 -0.16478384099E+02  0.27079412119E+02  0.00000000000E+00 0.  1.
</event>
<event>
 7    1  0.5479172E-013  0.5052886E+02  0.7816164E-02  0.1300439E+00
        -11   -1    0    0    0    0  0.00000000000E+00  0.00000000000E+00  0.45593999997E+02  0.45594000000E+02  0.51100000000E-03 0.  1.
         11   -1    0    0    0    0 -0.00000000000E+00 -0.00000000000E+00 -0.45593999997E+02  0.45594000000E+02  0.51100000000E-03 0. -1.
    9900012    2    1    2    0    0  0.25474484623E+02  0.41224498699E+01  0.31420084239E+02  0.50528860150E+02  0.30000000912E+02 0.  0.
         12    1    1    2    0    0 -0.25474484623E+02 -0.41224498699E+01 -0.31420084239E+02  0.40659139850E+02  0.00000000000E+00 0. -1.
         11    1    3    3    0    0  0.25958834881E+01  0.91413313022E+01  0.31462005071E+00  0.95079721864E+01  0.51100000000E-03 0. -1.
        -11    1    3    3    0    0  0.51264285798E+01 -0.32263683316E+01  0.11666212574E+01  0.61685272160E+01  0.51100000000E-03 0.  1.
        -12    1    3    3    0    0  0.17752172555E+02 -0.17925131007E+01  0.29938842931E+02  0.34852360748E+02  0.00000000000E+00 0.  1.
</event>
<event>
 7    1  0.5479172E-013  0.5052881E+02  0.7816164E-02  0.1300439E+00
        -11   -1    0    0    0    0  0.00000000000E+00  0.00000000000E+00  0.45593999997E+02  0.45594000000E+02  0.51100000000E-03 0.  1.
         11   -1    0    0    0    0 -0.00000000000E+00 -0.00000000000E+00 -0.45593999997E+02  0.45594000000E+02  0.51100000000E-03 0. -1.
    9900012    2    1    2    0    0 -0.13936317772E+02 -0.34743286979E+02  0.15869868994E+02  0.50528810571E+02  0.29999850211E+02 0.  0.
         12    1    1    2    0    0  0.13936317772E+02  0.34743286979E+02 -0.15869868994E+02  0.40659189429E+02  0.00000000000E+00 0. -1.
         11    1    3    3    0    0 -0.25944457211E+01  0.25971853862E+01  0.74924779439E+01  0.83434852748E+01  0.51100000000E-03 0. -1.
        -11    1    3    3    0    0  0.96296362935E+00 -0.13396116716E+01  0.34470899318E+01  0.38215556572E+01  0.51100000000E-03 0.  1.
        -12    1    3    3    0    0 -0.12304835680E+02 -0.36000860694E+02  0.49303011183E+01  0.38363769639E+02  0.00000000000E+00 0.  1.
</event>
<event>
 7    1  0.5479172E-013  0.5052886E+02  0.7816164E-02  0.1300439E+00
        -11   -1    0    0    0    0  0.00000000000E+00  0.00000000000E+00  0.45593999997E+02  0.45594000000E+02  0.51100000000E-03 0.  1.
         11   -1    0    0    0    0 -0.00000000000E+00 -0.00000000000E+00 -0.45593999997E+02  0.45594000000E+02  0.51100000000E-03 0. -1.
    9900012    2    1    2    0    0 -0.13118021331E+02 -0.38203359123E+02 -0.46461376887E+01  0.50528859240E+02  0.29999998147E+02 0.  0.
         12    1    1    2    0    0  0.13118021331E+02  0.38203359123E+02  0.46461376887E+01  0.40659140760E+02  0.00000000000E+00 0. -1.
         11    1    3    3    0    0  0.11934603472E+01 -0.19665653707E+02  0.50708627745E+01  0.20343940938E+02  0.51100000000E-03 0. -1.
        -11    1    3    3    0    0 -0.46091938852E+01 -0.16458972178E+02 -0.12446069954E+01  0.17137429220E+02  0.51100000000E-03 0.  1.
        -12    1    3    3    0    0 -0.97022877931E+01 -0.20787332371E+01 -0.84723934678E+01  0.13047489083E+02  0.00000000000E+00 0.  1.
</event>
<event>
 7    1  0.5479172E-013  0.5052886E+02  0.7816164E-02  0.1300439E+00
        -11   -1    0    0    0    0  0.00000000000E+00  0.00000000000E+00  0.45593999997E+02  0.45594000000E+02  0.51100000000E-03 0.  1.
         11   -1    0    0    0    0 -0.00000000000E+00 -0.00000000000E+00 -0.45593999997E+02  0.45594000000E+02  0.51100000000E-03 0. -1.
    9900012    2    1    2    0    0  0.32571908435E+02  0.70586259433E+00  0.24325670122E+02  0.50528859723E+02  0.29999999615E+02 0.  0.
         12    1    1    2    0    0 -0.32571908435E+02 -0.70586259433E+00 -0.24325670122E+02  0.40659140277E+02  0.00000000000E+00 0. -1.
         11    1    3    3    0    0  0.24551496218E+01  0.79480776921E-01 -0.36679705755E+01  0.44145311487E+01  0.51100000000E-03 0. -1.
        -11    1    3    3    0    0  0.15625307758E+02  0.65834317456E+00  0.12402945795E+01  0.15688275532E+02  0.51100000000E-03 0.  1.
        -12    1    3    3    0    0  0.14491451056E+02 -0.31961357156E-01  0.26753346118E+02  0.30426053043E+02  0.00000000000E+00 0.  1.
</event>
<event>
 7    1  0.5479172E-013  0.5052886E+02  0.7816164E-02  0.1300439E+00
        -11   -1    0    0    0    0  0.00000000000E+00  0.00000000000E+00  0.45593999997E+02  0.45594000000E+02  0.51100000000E-03 0.  1.
         11   -1    0    0    0    0 -0.00000000000E+00 -0.00000000000E+00 -0.45593999997E+02  0.45594000000E+02  0.51100000000E-03 0. -1.
    9900012    2    1    2    0    0  0.13541554933E+02 -0.37776225608E+02  0.65382681881E+01  0.50528857337E+02  0.29999992363E+02 0.  0.
         12    1    1    2    0    0 -0.13541554933E+02  0.37776225608E+02 -0.65382681881E+01  0.40659142663E+02  0.00000000000E+00 0. -1.
         11    1    3    3    0    0 -0.31708746821E+01 -0.89041476682E+01  0.73469073305E+01  0.11971438491E+02  0.51100000000E-03 0. -1.
        -11    1    3    3    0    0 -0.76343234834E+00 -0.43004081844E+01  0.62164154090E+01  0.75973785151E+01  0.51100000000E-03 0.  1.
         12    1    3    3    0    0  0.17475861963E+02 -0.24571669755E+02 -0.70250545514E+01  0.30960040332E+02  0.00000000000E+00 0. -1.
</event>
<event>
 7    1  0.5479172E-013  0.5052886E+02  0.7816164E-02  0.1300439E+00
        -11   -1    0    0    0    0  0.00000000000E+00  0.00000000000E+00  0.45593999997E+02  0.45594000000E+02  0.51100000000E-03 0. -1.
         11   -1    0    0    0    0 -0.00000000000E+00 -0.00000000000E+00 -0.45593999997E+02  0.45594000000E+02  0.51100000000E-03 0.  1.
    9900012    2    1    2    0    0  0.30425819164E+02 -0.26490801086E+02  0.50668453188E+01  0.50528856680E+02  0.29999990365E+02 0.  0.
         12    1    1    2    0    0 -0.30425819164E+02  0.26490801086E+02 -0.50668453188E+01  0.40659143320E+02  0.00000000000E+00 0. -1.
         11    1    3    3    0    0  0.17300704145E+02 -0.12658823654E+02  0.82899158661E+01  0.22984405268E+02  0.51100000000E-03 0. -1.
        -11    1    3    3    0    0  0.13086976655E+02 -0.72301274286E+01  0.60770983221E+01  0.16139232475E+02  0.51100000000E-03 0.  1.
        -12    1    3    3    0    0  0.38138364643E-01 -0.66018500033E+01 -0.93001688695E+01  0.11405218937E+02  0.00000000000E+00 0.  1.
</event>
<event>
 7    1  0.5479172E-013  0.5052887E+02  0.7816164E-02  0.1300439E+00
        -11   -1    0    0    0    0  0.00000000000E+00  0.00000000000E+00  0.45593999997E+02  0.45594000000E+02  0.51100000000E-03 0. -1.
         11   -1    0    0    0    0 -0.00000000000E+00 -0.00000000000E+00 -0.45593999997E+02  0.45594000000E+02  0.51100000000E-03 0.  1.
    9900012    2    1    2    0    0  0.71697828100E+00  0.23220977071E+02 -0.33368203657E+02  0.50528870038E+02  0.30000030968E+02 0.  0.
         12    1    1    2    0    0 -0.71697828100E+00 -0.23220977071E+02  0.33368203657E+02  0.40659129962E+02  0.00000000000E+00 0. -1.
         11    1    3    3    0    0 -0.69840636787E+01 -0.10358618628E+01 -0.11307527911E+02  0.13330804289E+02  0.51100000000E-03 0. -1.
        -11    1    3    3    0    0 -0.12574762937E+01  0.19754212295E+02 -0.12977349439E+02  0.23669003966E+02  0.51100000000E-03 0.  1.
        -12    1    3    3    0    0  0.89585182533E+01  0.45026266384E+01 -0.90833263071E+01  0.13529061783E+02  0.00000000000E+00 0.  1.
</event>
<event>
 7    1  0.5479172E-013  0.5052886E+02  0.7816164E-02  0.1300439E+00
        -11   -1    0    0    0    0  0.00000000000E+00  0.00000000000E+00  0.45593999997E+02  0.45594000000E+02  0.51100000000E-03 0.  1.
         11   -1    0    0    0    0 -0.00000000000E+00 -0.00000000000E+00 -0.45593999997E+02  0.45594000000E+02  0.51100000000E-03 0. -1.
    9900012    2    1    2    0    0 -0.31163501046E+02  0.83500672179E+01  0.24744254575E+02  0.50528861366E+02  0.30000004607E+02 0.  0.
         12    1    1    2    0    0  0.31163501046E+02 -0.83500672179E+01 -0.24744254575E+02  0.40659138634E+02  0.00000000000E+00 0. -1.
         11    1    3    3    0    0 -0.21069561486E+01  0.27358936408E+01 -0.22705508881E+01  0.41327690260E+01  0.51100000000E-03 0. -1.
        -11    1    3    3    0    0  0.39156797143E+01  0.24358966115E+00  0.51339142591E+01  0.64613434694E+01  0.51100000000E-03 0.  1.
        -12    1    3    3    0    0 -0.32972224612E+02  0.53705839159E+01  0.21880891204E+02  0.39934748870E+02  0.00000000000E+00 0.  1.
</event>
<event>
 7    1  0.5479172E-013  0.5052886E+02  0.7816164E-02  0.1300439E+00
        -11   -1    0    0    0    0  0.00000000000E+00  0.00000000000E+00  0.45593999997E+02  0.45594000000E+02  0.51100000000E-03 0.  1.
         11   -1    0    0    0    0 -0.00000000000E+00 -0.00000000000E+00 -0.45593999997E+02  0.45594000000E+02  0.51100000000E-03 0. -1.
    9900012    2    1    2    0    0 -0.17513337940E+02 -0.70903369522E+01  0.36002440559E+02  0.50528860682E+02  0.30000002528E+02 0.  0.
         12    1    1    2    0    0  0.17513337940E+02  0.70903369522E+01 -0.36002440559E+02  0.40659139318E+02  0.00000000000E+00 0. -1.
         11    1    3    3    0    0  0.27327936285E+01 -0.54548887876E+01  0.15266123937E+02  0.16440149422E+02  0.51100000000E-03 0. -1.
        -11    1    3    3    0    0  0.98184193246E+00 -0.33215878320E+01  0.92853255295E+01  0.99103092664E+01  0.51100000000E-03 0.  1.
        -12    1    3    3    0    0 -0.21227973501E+02  0.16861396674E+01  0.11450991093E+02  0.24178401993E+02  0.00000000000E+00 0.  1.
</event>
<event>
 7    1  0.5479172E-013  0.5052886E+02  0.7816164E-02  0.1300439E+00
        -11   -1    0    0    0    0  0.00000000000E+00  0.00000000000E+00  0.45593999997E+02  0.45594000000E+02  0.51100000000E-03 0.  1.
         11   -1    0    0    0    0 -0.00000000000E+00 -0.00000000000E+00 -0.45593999997E+02  0.45594000000E+02  0.51100000000E-03 0. -1.
    9900012    2    1    2    0    0  0.61207372271E+01  0.25761721598E+02  0.30855079311E+02  0.50528860275E+02  0.30000001291E+02 0.  0.
         12    1    1    2    0    0 -0.61207372271E+01 -0.25761721598E+02 -0.30855079311E+02  0.40659139725E+02  0.00000000000E+00 0. -1.
         11    1    3    3    0    0 -0.67698176340E+01  0.32425404128E+01  0.85004051354E+01  0.11340255149E+02  0.51100000000E-03 0. -1.
        -11    1    3    3    0    0  0.13797847303E+02  0.80324518148E+01  0.17943259381E+02  0.24017939750E+02  0.51100000000E-03 0.  1.
         12    1    3    3    0    0 -0.90729244188E+00  0.14486729371E+02  0.44114147941E+01  0.15170665375E+02  0.00000000000E+00 0. -1.
</event>
<event>
 7    1  0.5479172E-013  0.5052885E+02  0.7816164E-02  0.1300439E+00
        -11   -1    0    0    0    0  0.00000000000E+00  0.00000000000E+00  0.45593999997E+02  0.45594000000E+02  0.51100000000E-03 0.  1.
         11   -1    0    0    0    0 -0.00000000000E+00 -0.00000000000E+00 -0.45593999997E+02  0.45594000000E+02  0.51100000000E-03 0. -1.
    9900012    2    1    2    0    0  0.31174701698E+02  0.14072223482E+02  0.21983556270E+02  0.50528852862E+02  0.29999978761E+02 0.  0.
         12    1    1    2    0    0 -0.31174701698E+02 -0.14072223482E+02 -0.21983556270E+02  0.40659147138E+02  0.00000000000E+00 0. -1.
         11    1    3    3    0    0  0.18728708212E+02 -0.46688319257E+01  0.10199673926E+02  0.21831075358E+02  0.51100000000E-03 0. -1.
        -11    1    3    3    0    0  0.42387504659E+01  0.37905965314E+00  0.67252918554E+01  0.79586583376E+01  0.51100000000E-03 0.  1.
        -12    1    3    3    0    0  0.82072430202E+01  0.18361995754E+02  0.50585904885E+01  0.20739119167E+02  0.00000000000E+00 0.  1.
</event>
<event>
 7    1  0.5479172E-013  0.5052885E+02  0.7816164E-02  0.1300439E+00
        -11   -1    0    0    0    0  0.00000000000E+00  0.00000000000E+00  0.45593999997E+02  0.45594000000E+02  0.51100000000E-03 0.  1.
         11   -1    0    0    0    0 -0.00000000000E+00 -0.00000000000E+00 -0.45593999997E+02  0.45594000000E+02  0.51100000000E-03 0. -1.
    9900012    2    1    2    0    0 -0.37719902523E+02 -0.13292572070E+02 -0.73268380164E+01  0.50528854978E+02  0.29999985191E+02 0.  0.
         12    1    1    2    0    0  0.37719902523E+02  0.13292572070E+02  0.73268380164E+01  0.40659145022E+02  0.00000000000E+00 0. -1.
         11    1    3    3    0    0 -0.61035490209E+01  0.63718492289E+00 -0.63889540767E+01  0.88587837615E+01  0.51100000000E-03 0. -1.
        -11    1    3    3    0    0  0.29695518193E+01  0.19844706615E+01  0.24591696735E+00  0.35800610651E+01  0.51100000000E-03 0.  1.
        -12    1    3    3    0    0 -0.34585905322E+02 -0.15914227655E+02 -0.11838009070E+01  0.38090010151E+02  0.00000000000E+00 0.  1.
</event>
<event>
 7    1  0.5479172E-013  0.5052886E+02  0.7816164E-02  0.1300439E+00
        -11   -1    0    0    0    0  0.00000000000E+00  0.00000000000E+00  0.45593999997E+02  0.45594000000E+02  0.51100000000E-03 0.  1.
         11   -1    0    0    0    0 -0.00000000000E+00 -0.00000000000E+00 -0.45593999997E+02  0.45594000000E+02  0.51100000000E-03 0. -1.
    9900012    2    1    2    0    0 -0.25263648081E+02 -0.20002212090E+02  0.24795671267E+02  0.50528859374E+02  0.29999998555E+02 0.  0.
         12    1    1    2    0    0  0.25263648081E+02  0.20002212090E+02 -0.24795671267E+02  0.40659140626E+02  0.00000000000E+00 0. -1.
         11    1    3    3    0    0 -0.16463309486E+02 -0.99600033706E+00  0.76528666918E+01  0.18182380063E+02  0.51100000000E-03 0.  1.
        -11    1    3    3    0    0 -0.89767215833E+00 -0.45413055289E+00 -0.34087796711E+01  0.35541284403E+01  0.51100000000E-03 0. -1.
        -12    1    3    3    0    0 -0.79026664366E+01 -0.18552081200E+02  0.20551584246E+02  0.28792350871E+02  0.00000000000E+00 0.  1.
</event>
<event>
 7    1  0.5479172E-013  0.5052885E+02  0.7816164E-02  0.1300439E+00
        -11   -1    0    0    0    0  0.00000000000E+00  0.00000000000E+00  0.45593999997E+02  0.45594000000E+02  0.51100000000E-03 0. -1.
         11   -1    0    0    0    0 -0.00000000000E+00 -0.00000000000E+00 -0.45593999997E+02  0.45594000000E+02  0.51100000000E-03 0.  1.
    9900012    2    1    2    0    0 -0.25457416189E+02  0.29856186486E+00 -0.31701687314E+02  0.50528853959E+02  0.29999982093E+02 0.  0.
         12    1    1    2    0    0  0.25457416189E+02 -0.29856186486E+00  0.31701687314E+02  0.40659146041E+02  0.00000000000E+00 0. -1.
         11    1    3    3    0    0 -0.11043978269E+02  0.12342145659E+02 -0.23400803866E+02  0.28668722283E+02  0.51100000000E-03 0. -1.
        -11    1    3    3    0    0 -0.35548323810E+01 -0.27128511861E+01  0.12582020533E+01  0.46453705432E+01  0.51100000000E-03 0.  1.
        -12    1    3    3    0    0 -0.10858605539E+02 -0.93307326077E+01 -0.95590855012E+01  0.17214761133E+02  0.00000000000E+00 0.  1.
</event>
<event>
 7    1  0.5479172E-013  0.5052886E+02  0.7816164E-02  0.1300439E+00
        -11   -1    0    0    0    0  0.00000000000E+00  0.00000000000E+00  0.45593999997E+02  0.45594000000E+02  0.51100000000E-03 0. -1.
         11   -1    0    0    0    0 -0.00000000000E+00 -0.00000000000E+00 -0.45593999997E+02  0.45594000000E+02  0.51100000000E-03 0.  1.
    9900012    2    1    2    0    0 -0.40519885897E+02 -0.31085344124E+01  0.12811511838E+01  0.50528862188E+02  0.30000007106E+02 0.  0.
         12    1    1    2    0    0  0.40519885897E+02  0.31085344124E+01 -0.12811511838E+01  0.40659137812E+02  0.00000000000E+00 0. -1.
         11    1    3    3    0    0 -0.49428668763E+01 -0.54866265285E+00  0.86198745337E+01  0.99516431257E+01  0.51100000000E-03 0. -1.
        -11    1    3    3    0    0 -0.17598054159E+02  0.61633613800E+00  0.52800391332E+01  0.18383421714E+02  0.51100000000E-03 0.  1.
        -12    1    3    3    0    0 -0.17978964862E+02 -0.31762078976E+01 -0.12618762483E+02  0.22193797348E+02  0.00000000000E+00 0.  1.
</event>
<event>
 7    1  0.5479172E-013  0.5052886E+02  0.7816164E-02  0.1300439E+00
        -11   -1    0    0    0    0  0.00000000000E+00  0.00000000000E+00  0.45593999997E+02  0.45594000000E+02  0.51100000000E-03 0.  1.
         11   -1    0    0    0    0 -0.00000000000E+00 -0.00000000000E+00 -0.45593999997E+02  0.45594000000E+02  0.51100000000E-03 0. -1.
    9900012    2    1    2    0    0 -0.31185116407E+02  0.24763888483E+02  0.82099849912E+01  0.50528861893E+02  0.30000006209E+02 0.  0.
         12    1    1    2    0    0  0.31185116407E+02 -0.24763888483E+02 -0.82099849912E+01  0.40659138107E+02  0.00000000000E+00 0. -1.
         11    1    3    3    0    0 -0.81191524056E+01  0.32467708691E+01  0.14294446057E+02  0.16756889485E+02  0.51100000000E-03 0. -1.
        -11    1    3    3    0    0 -0.17887390894E+02  0.10272563019E+02 -0.19461342641E+01  0.20718874072E+02  0.51100000000E-03 0.  1.
        -12    1    3    3    0    0 -0.51785731068E+01  0.11244554594E+02 -0.41383268016E+01  0.13053098336E+02  0.00000000000E+00 0.  1.
</event>
<event>
 7    1  0.5479172E-013  0.5052886E+02  0.7816164E-02  0.1300439E+00
        -11   -1    0    0    0    0  0.00000000000E+00  0.00000000000E+00  0.45593999997E+02  0.45594000000E+02  0.51100000000E-03 0.  1.
         11   -1    0    0    0    0 -0.00000000000E+00 -0.00000000000E+00 -0.45593999997E+02  0.45594000000E+02  0.51100000000E-03 0. -1.
    9900012    2    1    2    0    0 -0.25402568144E+02 -0.80461807015E+01  0.30710483256E+02  0.50528864814E+02  0.30000015090E+02 0.  0.
         12    1    1    2    0    0  0.25402568144E+02  0.80461807015E+01 -0.30710483256E+02  0.40659135186E+02  0.00000000000E+00 0. -1.
         11    1    3    3    0    0  0.75255339058E+00 -0.11225522335E+01  0.40386433278E+01  0.42587674641E+01  0.51100000000E-03 0. -1.
        -11    1    3    3    0    0 -0.16491291177E+01 -0.78752663225E+01  0.18903605799E+02  0.20544725818E+02  0.51100000000E-03 0.  1.
        -12    1    3    3    0    0 -0.24505992417E+02  0.95163785450E+00  0.77682341295E+01  0.25725371532E+02  0.00000000000E+00 0.  1.
</event>
<event>
 7    1  0.5479172E-013  0.5052886E+02  0.7816164E-02  0.1300439E+00
        -11   -1    0    0    0    0  0.00000000000E+00  0.00000000000E+00  0.45593999997E+02  0.45594000000E+02  0.51100000000E-03 0.  1.
         11   -1    0    0    0    0 -0.00000000000E+00 -0.00000000000E+00 -0.45593999997E+02  0.45594000000E+02  0.51100000000E-03 0. -1.
    9900012    2    1    2    0    0  0.31909834051E+02  0.25173157016E+02  0.11137482058E+01  0.50528858613E+02  0.29999996239E+02 0.  0.
         12    1    1    2    0    0 -0.31909834051E+02 -0.25173157016E+02 -0.11137482058E+01  0.40659141387E+02  0.00000000000E+00 0. -1.
         11    1    3    3    0    0  0.12303249772E+01  0.10143337047E+02  0.60462834478E+00  0.10235553805E+02  0.51100000000E-03 0. -1.
        -11    1    3    3    0    0  0.12985737127E+02  0.17537129940E+02 -0.31623741246E+01  0.22049510326E+02  0.51100000000E-03 0.  1.
        -12    1    3    3    0    0  0.17693771947E+02 -0.25073099711E+01  0.36714939856E+01  0.18243794482E+02  0.00000000000E+00 0.  1.
</event>
<event>
 7    1  0.5479172E-013  0.5052886E+02  0.7816164E-02  0.1300439E+00
        -11   -1    0    0    0    0  0.00000000000E+00  0.00000000000E+00  0.45593999997E+02  0.45594000000E+02  0.51100000000E-03 0.  1.
         11   -1    0    0    0    0 -0.00000000000E+00 -0.00000000000E+00 -0.45593999997E+02  0.45594000000E+02  0.51100000000E-03 0. -1.
    9900012    2    1    2    0    0  0.19914810793E+02 -0.15005432701E+01  0.35416294937E+02  0.50528864912E+02  0.30000015387E+02 0.  0.
         12    1    1    2    0    0 -0.19914810793E+02  0.15005432701E+01 -0.35416294937E+02  0.40659135088E+02  0.00000000000E+00 0. -1.
         11    1    3    3    0    0 -0.41658123264E+01 -0.16613993308E+01 -0.34750285722E-02  0.44848915720E+01  0.51100000000E-03 0. -1.
        -11    1    3    3    0    0  0.67746396505E+01 -0.75877576453E+01  0.94158292428E+01  0.13861011834E+02  0.51100000000E-03 0.  1.
         12    1    3    3    0    0  0.17305983469E+02  0.77486137060E+01  0.26003940723E+02  0.32182961506E+02  0.00000000000E+00 0. -1.
</event>
<event>
 7    1  0.5479172E-013  0.5052886E+02  0.7816164E-02  0.1300439E+00
        -11   -1    0    0    0    0  0.00000000000E+00  0.00000000000E+00  0.45593999997E+02  0.45594000000E+02  0.51100000000E-03 0. -1.
         11   -1    0    0    0    0 -0.00000000000E+00 -0.00000000000E+00 -0.45593999997E+02  0.45594000000E+02  0.51100000000E-03 0.  1.
    9900012    2    1    2    0    0 -0.25385122065E+02  0.27311479039E+02 -0.16212463179E+02  0.50528864841E+02  0.30000015171E+02 0.  0.
         12    1    1    2    0    0  0.25385122065E+02 -0.27311479039E+02  0.16212463179E+02  0.40659135159E+02  0.00000000000E+00 0. -1.
         11    1    3    3    0    0 -0.24809473775E+02  0.24967580918E+02 -0.13411808492E+02  0.37666519526E+02  0.51100000000E-03 0. -1.
        -11    1    3    3    0    0 -0.40773741093E+01  0.56055196456E+01  0.65086133415E+00  0.69620723109E+01  0.51100000000E-03 0.  1.
        -12    1    3    3    0    0  0.35017258192E+01 -0.32616215247E+01 -0.34515160212E+01  0.59002730046E+01  0.00000000000E+00 0.  1.
</event>
<event>
 7    1  0.5479172E-013  0.5052880E+02  0.7816164E-02  0.1300439E+00
        -11   -1    0    0    0    0  0.00000000000E+00  0.00000000000E+00  0.45593999997E+02  0.45594000000E+02  0.51100000000E-03 0. -1.
         11   -1    0    0    0    0 -0.00000000000E+00 -0.00000000000E+00 -0.45593999997E+02  0.45594000000E+02  0.51100000000E-03 0.  1.
    9900012    2    1    2    0    0 -0.33212629092E+02 -0.12851886111E+02 -0.19619404797E+02  0.50528797445E+02  0.29999810314E+02 0.  0.
         12    1    1    2    0    0  0.33212629092E+02  0.12851886111E+02  0.19619404797E+02  0.40659202555E+02  0.00000000000E+00 0. -1.
         11    1    3    3    0    0 -0.10253624380E+02 -0.82969661621E+01 -0.84770305823E+01  0.15679174346E+02  0.51100000000E-03 0. -1.
        -11    1    3    3    0    0  0.86848474764E+00 -0.83925279826E+01 -0.54766833692E+01  0.10058968768E+02  0.51100000000E-03 0.  1.
        -12    1    3    3    0    0 -0.23827489460E+02  0.38376080341E+01 -0.56656908450E+01  0.24790654331E+02  0.00000000000E+00 0.  1.
</event>
<event>
 7    1  0.5479172E-013  0.5052886E+02  0.7816164E-02  0.1300439E+00
        -11   -1    0    0    0    0  0.00000000000E+00  0.00000000000E+00  0.45593999997E+02  0.45594000000E+02  0.51100000000E-03 0.  1.
         11   -1    0    0    0    0 -0.00000000000E+00 -0.00000000000E+00 -0.45593999997E+02  0.45594000000E+02  0.51100000000E-03 0. -1.
    9900012    2    1    2    0    0  0.15563617974E+02 -0.22435966853E+01  0.37495407157E+02  0.50528862178E+02  0.30000007078E+02 0.  0.
         12    1    1    2    0    0 -0.15563617974E+02  0.22435966853E+01 -0.37495407157E+02  0.40659137822E+02  0.00000000000E+00 0. -1.
         11    1    3    3    0    0 -0.10006153666E+01  0.44159562684E+00  0.28334707445E+01  0.30372346848E+01  0.51100000000E-03 0. -1.
        -11    1    3    3    0    0  0.10408434467E+02 -0.11817252015E+02  0.32714983265E+02  0.36307755143E+02  0.51100000000E-03 0.  1.
         12    1    3    3    0    0  0.61557988733E+01  0.91320597031E+01  0.19469531474E+01  0.11183872350E+02  0.00000000000E+00 0. -1.
</event>
<event>
 7    1  0.5479172E-013  0.5052886E+02  0.7816164E-02  0.1300439E+00
        -11   -1    0    0    0    0  0.00000000000E+00  0.00000000000E+00  0.45593999997E+02  0.45594000000E+02  0.51100000000E-03 0.  1.
         11   -1    0    0    0    0 -0.00000000000E+00 -0.00000000000E+00 -0.45593999997E+02  0.45594000000E+02  0.51100000000E-03 0. -1.
    9900012    2    1    2    0    0 -0.19955071443E+02  0.23215507870E+02  0.26758194811E+02  0.50528859927E+02  0.30000000234E+02 0.  0.
         12    1    1    2    0    0  0.19955071443E+02 -0.23215507870E+02 -0.26758194811E+02  0.40659140073E+02  0.00000000000E+00 0. -1.
         11    1    3    3    0    0 -0.16882926773E+02  0.26776250412E+02  0.30093375436E+02  0.43676218333E+02  0.51100000000E-03 0.  1.
        -11    1    3    3    0    0 -0.21653425826E+00 -0.93837645134E+00 -0.27725052373E+01  0.29349996596E+01  0.51100000000E-03 0. -1.
        -12    1    3    3    0    0 -0.28556104110E+01 -0.26223660903E+01 -0.56267538729E+00  0.39176419339E+01  0.00000000000E+00 0.  1.
</event>
<event>
 7    1  0.5479172E-013  0.5052886E+02  0.7816164E-02  0.1300439E+00
        -11   -1    0    0    0    0  0.00000000000E+00  0.00000000000E+00  0.45593999997E+02  0.45594000000E+02  0.51100000000E-03 0. -1.
         11   -1    0    0    0    0 -0.00000000000E+00 -0.00000000000E+00 -0.45593999997E+02  0.45594000000E+02  0.51100000000E-03 0.  1.
    9900012    2    1    2    0    0  0.36477292243E+02  0.17682156909E+02  0.31486469460E+01  0.50528862036E+02  0.30000006646E+02 0.  0.
         12    1    1    2    0    0 -0.36477292243E+02 -0.17682156909E+02 -0.31486469460E+01  0.40659137964E+02  0.00000000000E+00 0. -1.
         11    1    3    3    0    0  0.35109992561E+01 -0.52597161212E+01 -0.48676823988E+00  0.63426077470E+01  0.51100000000E-03 0. -1.
        -11    1    3    3    0    0  0.28398002966E+02  0.11603606415E+02  0.70853028143E+01  0.31484786335E+02  0.51100000000E-03 0.  1.
         12    1    3    3    0    0  0.45682900207E+01  0.11338266615E+02 -0.34498876284E+01  0.12701467955E+02  0.00000000000E+00 0. -1.
</event>
<event>
 7    1  0.5479172E-013  0.5052887E+02  0.7816164E-02  0.1300439E+00
        -11   -1    0    0    0    0  0.00000000000E+00  0.00000000000E+00  0.45593999997E+02  0.45594000000E+02  0.51100000000E-03 0.  1.
         11   -1    0    0    0    0 -0.00000000000E+00 -0.00000000000E+00 -0.45593999997E+02  0.45594000000E+02  0.51100000000E-03 0. -1.
    9900012    2    1    2    0    0 -0.15579043690E+02  0.36336639874E+02  0.94924690299E+01  0.50528868579E+02  0.30000026532E+02 0.  0.
         12    1    1    2    0    0  0.15579043690E+02 -0.36336639874E+02 -0.94924690299E+01  0.40659131421E+02  0.00000000000E+00 0. -1.
         11    1    3    3    0    0  0.28736408278E+01 -0.31816369714E+01 -0.11380887836E+01  0.44357492902E+01  0.51100000000E-03 0. -1.
        -11    1    3    3    0    0 -0.43700293673E+01  0.90252391603E+01 -0.19703629927E+01  0.10219316472E+02  0.51100000000E-03 0.  1.
        -12    1    3    3    0    0 -0.14082655150E+02  0.30493037685E+02  0.12600920806E+02  0.35873802817E+02  0.00000000000E+00 0.  1.
</event>
<event>
 7    1  0.5479172E-013  0.5052886E+02  0.7816164E-02  0.1300439E+00
        -11   -1    0    0    0    0  0.00000000000E+00  0.00000000000E+00  0.45593999997E+02  0.45594000000E+02  0.51100000000E-03 0.  1.
         11   -1    0    0    0    0 -0.00000000000E+00 -0.00000000000E+00 -0.45593999997E+02  0.45594000000E+02  0.51100000000E-03 0. -1.
    9900012    2    1    2    0    0 -0.36433069800E+02 -0.13147556738E+02  0.12366849483E+02  0.50528858477E+02  0.29999995828E+02 0.  0.
         12    1    1    2    0    0  0.36433069800E+02  0.13147556738E+02 -0.12366849483E+02  0.40659141523E+02  0.00000000000E+00 0. -1.
         11    1    3    3    0    0 -0.30264345481E+02 -0.73425474722E+01 -0.21846404325E+01  0.31218844707E+02  0.51100000000E-03 0. -1.
        -11    1    3    3    0    0 -0.59466004794E+01 -0.34237750757E+01  0.29576554189E+01  0.74720826326E+01  0.51100000000E-03 0.  1.
        -12    1    3    3    0    0 -0.22212383914E+00 -0.23812341905E+01  0.11593834497E+02  0.11837931137E+02  0.00000000000E+00 0.  1.
</event>
<event>
 7    1  0.5479172E-013  0.5052887E+02  0.7816164E-02  0.1300439E+00
        -11   -1    0    0    0    0  0.00000000000E+00  0.00000000000E+00  0.45593999997E+02  0.45594000000E+02  0.51100000000E-03 0.  1.
         11   -1    0    0    0    0 -0.00000000000E+00 -0.00000000000E+00 -0.45593999997E+02  0.45594000000E+02  0.51100000000E-03 0. -1.
    9900012    2    1    2    0    0 -0.30242473231E+02 -0.15174723266E+02  0.22545191254E+02  0.50528867422E+02  0.30000023017E+02 0.  0.
         12    1    1    2    0    0  0.30242473231E+02  0.15174723266E+02 -0.22545191254E+02  0.40659132578E+02  0.00000000000E+00 0. -1.
         11    1    3    3    0    0 -0.15074818465E+01 -0.32979064148E+01 -0.30742492031E+01  0.47539138257E+01  0.51100000000E-03 0. -1.
        -11    1    3    3    0    0  0.25289168493E+01 -0.20374933804E+01 -0.11617422341E+01  0.34491223500E+01  0.51100000000E-03 0.  1.
        -12    1    3    3    0    0 -0.31263908233E+02 -0.98393234705E+01  0.26781182691E+02  0.42325831247E+02  0.00000000000E+00 0.  1.
</event>
<event>
 7    1  0.5479172E-013  0.5052887E+02  0.7816164E-02  0.1300439E+00
        -11   -1    0    0    0    0  0.00000000000E+00  0.00000000000E+00  0.45593999997E+02  0.45594000000E+02  0.51100000000E-03 0.  1.
         11   -1    0    0    0    0 -0.00000000000E+00 -0.00000000000E+00 -0.45593999997E+02  0.45594000000E+02  0.51100000000E-03 0. -1.
    9900012    2    1    2    0    0 -0.18472115386E+02  0.29156524000E+02  0.21490536811E+02  0.50528866819E+02  0.30000021182E+02 0.  0.
         12    1    1    2    0    0  0.18472115386E+02 -0.29156524000E+02 -0.21490536811E+02  0.40659133181E+02  0.00000000000E+00 0. -1.
         11    1    3    3    0    0 -0.10267814655E+02 -0.70765206555E+00  0.10432243027E+02  0.14654708597E+02  0.51100000000E-03 0. -1.
        -11    1    3    3    0    0 -0.92862575629E+01  0.12466423030E+02  0.98457308589E+01  0.18400671159E+02  0.51100000000E-03 0.  1.
         12    1    3    3    0    0  0.10819568310E+01  0.17397753036E+02  0.12125629248E+01  0.17473487063E+02  0.00000000000E+00 0. -1.
</event>
<event>
 7    1  0.5479172E-013  0.5052892E+02  0.7816164E-02  0.1300439E+00
        -11   -1    0    0    0    0  0.00000000000E+00  0.00000000000E+00  0.45593999997E+02  0.45594000000E+02  0.51100000000E-03 0.  1.
         11   -1    0    0    0    0 -0.00000000000E+00 -0.00000000000E+00 -0.45593999997E+02  0.45594000000E+02  0.51100000000E-03 0. -1.
    9900012    2    1    2    0    0 -0.21736153630E+02  0.31337411243E+02  0.14094921500E+02  0.50528923152E+02  0.30000192411E+02 0.  0.
         12    1    1    2    0    0  0.21736153630E+02 -0.31337411243E+02 -0.14094921500E+02  0.40659076848E+02  0.00000000000E+00 0. -1.
         11    1    3    3    0    0 -0.65290606272E+01 -0.18975302259E+01 -0.35597973511E+01  0.76747254722E+01  0.51100000000E-03 0. -1.
        -11    1    3    3    0    0 -0.69616905653E+01  0.27130090936E+02  0.89637658637E+01  0.29408435328E+02  0.51100000000E-03 0.  1.
         12    1    3    3    0    0 -0.82454024375E+01  0.61048505336E+01  0.86909529873E+01  0.13445762352E+02  0.00000000000E+00 0. -1.
</event>
<event>
 7    1  0.6017638E-013  0.5052887E+02  0.7816164E-02  0.1300439E+00
        -11   -1    0    0    0    0  0.00000000000E+00  0.00000000000E+00  0.45593999997E+02  0.45594000000E+02  0.51100000000E-03 0. -1.
         11   -1    0    0    0    0 -0.00000000000E+00 -0.00000000000E+00 -0.45593999997E+02  0.45594000000E+02  0.51100000000E-03 0.  1.
    9900012    2    1    2    0    0  0.35516973123E+01 -0.29489647199E+02 -0.27765289849E+02  0.50528866141E+02  0.30000019123E+02 0.  0.
         12    1    1    2    0    0 -0.35516973123E+01  0.29489647199E+02  0.27765289849E+02  0.40659133859E+02  0.00000000000E+00 0. -1.
         11    1    3    3    0    0 -0.29343430542E+01  0.17811244320E+01  0.24430384702E+01  0.42132185594E+01  0.51100000000E-03 0. -1.
        -11    1    3    3    0    0 -0.24306522432E+01 -0.42554029222E+01 -0.11254554786E+00  0.49019578863E+01  0.51100000000E-03 0.  1.
        -12    1    3    3    0    0  0.89166926097E+01 -0.27015368709E+02 -0.30095782771E+02  0.41413689696E+02  0.00000000000E+00 0.  1.
</event>
<event>
 7    1  0.5479172E-013  0.5052886E+02  0.7816164E-02  0.1300439E+00
        -11   -1    0    0    0    0  0.00000000000E+00  0.00000000000E+00  0.45593999997E+02  0.45594000000E+02  0.51100000000E-03 0.  1.
         11   -1    0    0    0    0 -0.00000000000E+00 -0.00000000000E+00 -0.45593999997E+02  0.45594000000E+02  0.51100000000E-03 0. -1.
    9900012    2    1    2    0    0 -0.98090603202E+01 -0.19028793593E+02  0.34566643436E+02  0.50528862178E+02  0.30000007078E+02 0.  0.
         12    1    1    2    0    0  0.98090603202E+01  0.19028793593E+02 -0.34566643436E+02  0.40659137822E+02  0.00000000000E+00 0. -1.
         11    1    3    3    0    0  0.64681237132E+01 -0.23837760827E+01  0.45585346675E+00  0.69084597000E+01  0.51100000000E-03 0. -1.
        -11    1    3    3    0    0  0.21188704008E+01 -0.16164378335E+01  0.74496849836E+01  0.79120344830E+01  0.51100000000E-03 0.  1.
        -12    1    3    3    0    0 -0.18396054434E+02 -0.15028579677E+02  0.26661104985E+02  0.35708367995E+02  0.00000000000E+00 0.  1.
</event>
<event>
 7    1  0.5479172E-013  0.5052888E+02  0.7816164E-02  0.1300439E+00
        -11   -1    0    0    0    0  0.00000000000E+00  0.00000000000E+00  0.45593999997E+02  0.45594000000E+02  0.51100000000E-03 0.  1.
         11   -1    0    0    0    0 -0.00000000000E+00 -0.00000000000E+00 -0.45593999997E+02  0.45594000000E+02  0.51100000000E-03 0. -1.
    9900012    2    1    2    0    0  0.15809358136E+02 -0.26956597826E+02  0.26010967746E+02  0.50528875390E+02  0.30000047234E+02 0.  0.
         12    1    1    2    0    0 -0.15809358136E+02  0.26956597826E+02 -0.26010967746E+02  0.40659124610E+02  0.00000000000E+00 0. -1.
         11    1    3    3    0    0 -0.29717703089E+01 -0.61928045886E+01  0.41621302977E+01  0.80315363610E+01  0.51100000000E-03 0. -1.
        -11    1    3    3    0    0 -0.43986973756E+01 -0.61260130064E+01  0.16462072519E+00  0.75434524060E+01  0.51100000000E-03 0.  1.
        -12    1    3    3    0    0  0.23179825820E+02 -0.14637780231E+02  0.21684216723E+02  0.34953886623E+02  0.00000000000E+00 0.  1.
</event>
<event>
 7    1  0.5479172E-013  0.5052887E+02  0.7816164E-02  0.1300439E+00
        -11   -1    0    0    0    0  0.00000000000E+00  0.00000000000E+00  0.45593999997E+02  0.45594000000E+02  0.51100000000E-03 0.  1.
         11   -1    0    0    0    0 -0.00000000000E+00 -0.00000000000E+00 -0.45593999997E+02  0.45594000000E+02  0.51100000000E-03 0. -1.
    9900012    2    1    2    0    0  0.12321120776E+02  0.94182417915E+01  0.37585260095E+02  0.50528867299E+02  0.30000022642E+02 0.  0.
         12    1    1    2    0    0 -0.12321120776E+02 -0.94182417915E+01 -0.37585260095E+02  0.40659132701E+02  0.00000000000E+00 0. -1.
         11    1    3    3    0    0  0.10500223026E+02 -0.35827906690E+01  0.14742447971E+02  0.18450768141E+02  0.51100000000E-03 0. -1.
        -11    1    3    3    0    0  0.92339892464E+01  0.30626595125E+01  0.13057368601E+02  0.16283160496E+02  0.51100000000E-03 0.  1.
         12    1    3    3    0    0 -0.74130914963E+01  0.99383729480E+01  0.97854435235E+01  0.15794938662E+02  0.00000000000E+00 0. -1.
</event>
<event>
 7    1  0.5479172E-013  0.5052876E+02  0.7816164E-02  0.1300439E+00
        -11   -1    0    0    0    0  0.00000000000E+00  0.00000000000E+00  0.45593999997E+02  0.45594000000E+02  0.51100000000E-03 0. -1.
         11   -1    0    0    0    0 -0.00000000000E+00 -0.00000000000E+00 -0.45593999997E+02  0.45594000000E+02  0.51100000000E-03 0.  1.
    9900012    2    1    2    0    0 -0.14103847070E+02  0.11607986430E+02 -0.36325055737E+02  0.50528763344E+02  0.29999706660E+02 0.  0.
         12    1    1    2    0    0  0.14103847070E+02 -0.11607986430E+02  0.36325055737E+02  0.40659236656E+02  0.00000000000E+00 0. -1.
         11    1    3    3    0    0 -0.13235695311E+01  0.11421762197E+02 -0.26565054067E+02  0.28946685231E+02  0.51100000000E-03 0. -1.
        -11    1    3    3    0    0 -0.42135413979E+01 -0.69283279801E+00 -0.11955253999E+02  0.12694961474E+02  0.51100000000E-03 0.  1.
         12    1    3    3    0    0 -0.85667361407E+01  0.87905703112E+00  0.21952523291E+01  0.88871166391E+01  0.00000000000E+00 0. -1.
</event>
<event>
 7    1  0.5479172E-013  0.5052884E+02  0.7816164E-02  0.1300439E+00
        -11   -1    0    0    0    0  0.00000000000E+00  0.00000000000E+00  0.45593999997E+02  0.45594000000E+02  0.51100000000E-03 0. -1.
         11   -1    0    0    0    0 -0.00000000000E+00 -0.00000000000E+00 -0.45593999997E+02  0.45594000000E+02  0.51100000000E-03 0.  1.
    9900012    2    1    2    0    0 -0.52405490147E+01 -0.39626416186E+02 -0.74465432832E+01  0.50528840877E+02  0.29999942329E+02 0.  0.
         12    1    1    2    0    0  0.52405490147E+01  0.39626416186E+02  0.74465432832E+01  0.40659159123E+02  0.00000000000E+00 0. -1.
         11    1    3    3    0    0 -0.73206234577E+01 -0.75042148040E+01  0.50902304669E+00  0.10495897882E+02  0.51100000000E-03 0. -1.
        -11    1    3    3    0    0  0.64078123208E+00 -0.26093233648E+02 -0.15431533622E+02  0.30321604063E+02  0.51100000000E-03 0.  1.
         12    1    3    3    0    0  0.14392932109E+01 -0.60289677342E+01  0.74759672919E+01  0.97113389311E+01  0.00000000000E+00 0. -1.
</event>
<event>
 7    1  0.5479172E-013  0.5052886E+02  0.7816164E-02  0.1300439E+00
        -11   -1    0    0    0    0  0.00000000000E+00  0.00000000000E+00  0.45593999997E+02  0.45594000000E+02  0.51100000000E-03 0.  1.
         11   -1    0    0    0    0 -0.00000000000E+00 -0.00000000000E+00 -0.45593999997E+02  0.45594000000E+02  0.51100000000E-03 0. -1.
    9900012    2    1    2    0    0  0.17129486941E+02 -0.17838636912E+02  0.32272738454E+02  0.50528856661E+02  0.29999990308E+02 0.  0.
         12    1    1    2    0    0 -0.17129486941E+02  0.17838636912E+02 -0.32272738454E+02  0.40659143339E+02  0.00000000000E+00 0. -1.
         11    1    3    3    0    0  0.12890697549E+02 -0.13551876507E+02  0.11119196970E+02  0.21759135591E+02  0.51100000000E-03 0. -1.
        -11    1    3    3    0    0  0.94568396107E+01 -0.62748099393E+01  0.64783015330E+01  0.13068031459E+02  0.51100000000E-03 0.  1.
         12    1    3    3    0    0 -0.52180502186E+01  0.19880495345E+01  0.14675239951E+02  0.15701689611E+02  0.00000000000E+00 0. -1.
</event>
<event>
 7    1  0.5479172E-013  0.5052886E+02  0.7816164E-02  0.1300439E+00
        -11   -1    0    0    0    0  0.00000000000E+00  0.00000000000E+00  0.45593999997E+02  0.45594000000E+02  0.51100000000E-03 0.  1.
         11   -1    0    0    0    0 -0.00000000000E+00 -0.00000000000E+00 -0.45593999997E+02  0.45594000000E+02  0.51100000000E-03 0. -1.
    9900012    2    1    2    0    0  0.34570551993E+02 -0.14434580631E+02 -0.15801440400E+02  0.50528859554E+02  0.29999999101E+02 0.  0.
         12    1    1    2    0    0 -0.34570551993E+02  0.14434580631E+02  0.15801440400E+02  0.40659140446E+02  0.00000000000E+00 0. -1.
         11    1    3    3    0    0 -0.10857916487E+01 -0.52960376112E+01 -0.42645045288E+01  0.68857067191E+01  0.51100000000E-03 0. -1.
        -11    1    3    3    0    0  0.12148335630E+02 -0.13411514499E+02 -0.34730291253E+01  0.18425870707E+02  0.51100000000E-03 0.  1.
         12    1    3    3    0    0  0.23508008011E+02  0.42729714793E+01 -0.80639067463E+01  0.25217282128E+02  0.00000000000E+00 0. -1.
</event>
<event>
 7    1  0.5479172E-013  0.5052887E+02  0.7816164E-02  0.1300439E+00
        -11   -1    0    0    0    0  0.00000000000E+00  0.00000000000E+00  0.45593999997E+02  0.45594000000E+02  0.51100000000E-03 0.  1.
         11   -1    0    0    0    0 -0.00000000000E+00 -0.00000000000E+00 -0.45593999997E+02  0.45594000000E+02  0.51100000000E-03 0. -1.
    9900012    2    1    2    0    0 -0.36248226090E+02 -0.12260701762E+02  0.13744307085E+02  0.50528872124E+02  0.30000037308E+02 0.  0.
         12    1    1    2    0    0  0.36248226090E+02  0.12260701762E+02 -0.13744307085E+02  0.40659127876E+02  0.00000000000E+00 0. -1.
         11    1    3    3    0    0 -0.80857684135E+01 -0.41425581509E+01 -0.46835325542E+01  0.10221346111E+02  0.51100000000E-03 0. -1.
        -11    1    3    3    0    0 -0.76017730081E+01 -0.20851939125E+01 -0.43762602376E+01  0.90159104059E+01  0.51100000000E-03 0.  1.
         12    1    3    3    0    0 -0.20560684669E+02 -0.60329496987E+01  0.22804099877E+02  0.31291615607E+02  0.00000000000E+00 0. -1.
</event>
<event>
 7    1  0.5479172E-013  0.5052887E+02  0.7816164E-02  0.1300439E+00
        -11   -1    0    0    0    0  0.00000000000E+00  0.00000000000E+00  0.45593999997E+02  0.45594000000E+02  0.51100000000E-03 0. -1.
         11   -1    0    0    0    0 -0.00000000000E+00 -0.00000000000E+00 -0.45593999997E+02  0.45594000000E+02  0.51100000000E-03 0.  1.
    9900012    2    1    2    0    0  0.18114389695E+02 -0.43803669738E+00 -0.36398375836E+02  0.50528871213E+02  0.30000034540E+02 0.  0.
         12    1    1    2    0    0 -0.18114389695E+02  0.43803669738E+00  0.36398375836E+02  0.40659128787E+02  0.00000000000E+00 0. -1.
         11    1    3    3    0    0  0.15535244765E+01  0.53026194691E-01 -0.10494817069E+02  0.10609308914E+02  0.51100000000E-03 0. -1.
        -11    1    3    3    0    0  0.73954311694E+01 -0.97133609159E+01 -0.23799801970E+02  0.26748315022E+02  0.51100000000E-03 0.  1.
         12    1    3    3    0    0  0.91654340494E+01  0.92222980239E+01 -0.21037567973E+01  0.13171247276E+02  0.00000000000E+00 0. -1.
</event>
<event>
 7    1  0.5479172E-013  0.5052886E+02  0.7816164E-02  0.1300439E+00
        -11   -1    0    0    0    0  0.00000000000E+00  0.00000000000E+00  0.45593999997E+02  0.45594000000E+02  0.51100000000E-03 0.  1.
         11   -1    0    0    0    0 -0.00000000000E+00 -0.00000000000E+00 -0.45593999997E+02  0.45594000000E+02  0.51100000000E-03 0. -1.
    9900012    2    1    2    0    0 -0.20148924880E+02 -0.78042730165E+01  0.34442407790E+02  0.50528864427E+02  0.30000013914E+02 0.  0.
         12    1    1    2    0    0  0.20148924880E+02  0.78042730165E+01 -0.34442407790E+02  0.40659135573E+02  0.00000000000E+00 0. -1.
         11    1    3    3    0    0  0.15759647793E+01 -0.71445446240E+01  0.12317176580E+02  0.14326235446E+02  0.51100000000E-03 0. -1.
        -11    1    3    3    0    0 -0.66200127869E+01 -0.91285410291E+01  0.98954994273E+01  0.15002524447E+02  0.51100000000E-03 0.  1.
        -12    1    3    3    0    0 -0.15104876872E+02  0.84688126365E+01  0.12229731782E+02  0.21200104534E+02  0.00000000000E+00 0.  1.
</event>
<event>
 7    1  0.5479172E-013  0.5052886E+02  0.7816164E-02  0.1300439E+00
        -11   -1    0    0    0    0  0.00000000000E+00  0.00000000000E+00  0.45593999997E+02  0.45594000000E+02  0.51100000000E-03 0.  1.
         11   -1    0    0    0    0 -0.00000000000E+00 -0.00000000000E+00 -0.45593999997E+02  0.45594000000E+02  0.51100000000E-03 0. -1.
    9900012    2    1    2    0    0  0.32791591508E+02 -0.24032752900E+02  0.55136177337E+00  0.50528859756E+02  0.29999999715E+02 0.  0.
         12    1    1    2    0    0 -0.32791591508E+02  0.24032752900E+02 -0.55136177337E+00  0.40659140244E+02  0.00000000000E+00 0. -1.
         11    1    3    3    0    0  0.11326574594E+02 -0.61383733936E+01 -0.44415237930E+01  0.13627107317E+02  0.51100000000E-03 0. -1.
        -11    1    3    3    0    0  0.98000909820E+01 -0.63535124086E+01 -0.94640060816E+01  0.15032508592E+02  0.51100000000E-03 0.  1.
         12    1    3    3    0    0  0.11664925932E+02 -0.11540867098E+02  0.14456891648E+02  0.21869243848E+02  0.00000000000E+00 0. -1.
</event>
<event>
 7    1  0.5479172E-013  0.5052887E+02  0.7816164E-02  0.1300439E+00
        -11   -1    0    0    0    0  0.00000000000E+00  0.00000000000E+00  0.45593999997E+02  0.45594000000E+02  0.51100000000E-03 0.  1.
         11   -1    0    0    0    0 -0.00000000000E+00 -0.00000000000E+00 -0.45593999997E+02  0.45594000000E+02  0.51100000000E-03 0. -1.
    9900012    2    1    2    0    0 -0.40305035194E+02  0.46181572972E+01  0.27096097263E+01  0.50528865434E+02  0.30000016973E+02 0.  0.
         12    1    1    2    0    0  0.40305035194E+02 -0.46181572972E+01 -0.27096097263E+01  0.40659134566E+02  0.00000000000E+00 0. -1.
         11    1    3    3    0    0 -0.17153828569E+01 -0.41205330820E+00  0.37631291804E+01  0.41561361581E+01  0.51100000000E-03 0. -1.
        -11    1    3    3    0    0 -0.32433574914E+02  0.47256457532E+01  0.95228587859E+01  0.34131412938E+02  0.51100000000E-03 0.  1.
         12    1    3    3    0    0 -0.61560774234E+01  0.30456485221E+00 -0.10576378240E+02  0.12241316337E+02  0.00000000000E+00 0. -1.
</event>
<event>
 7    1  0.5479172E-013  0.5052886E+02  0.7816164E-02  0.1300439E+00
        -11   -1    0    0    0    0  0.00000000000E+00  0.00000000000E+00  0.45593999997E+02  0.45594000000E+02  0.51100000000E-03 0.  1.
         11   -1    0    0    0    0 -0.00000000000E+00 -0.00000000000E+00 -0.45593999997E+02  0.45594000000E+02  0.51100000000E-03 0. -1.
    9900012    2    1    2    0    0  0.17136656942E+02 -0.67219773123E+01  0.36253494275E+02  0.50528857888E+02  0.29999994035E+02 0.  0.
         12    1    1    2    0    0 -0.17136656942E+02  0.67219773123E+01 -0.36253494275E+02  0.40659142112E+02  0.00000000000E+00 0. -1.
         11    1    3    3    0    0  0.90992092619E+01 -0.77312099345E+01  0.19189546252E+02  0.22601015505E+02  0.51100000000E-03 0. -1.
        -11    1    3    3    0    0 -0.44941652204E-01 -0.66302480757E+01  0.15290103283E+02  0.16665817351E+02  0.51100000000E-03 0.  1.
         12    1    3    3    0    0  0.80823893324E+01  0.76394806979E+01  0.17738447403E+01  0.11262025032E+02  0.00000000000E+00 0. -1.
</event>
<event>
 7    1  0.5479172E-013  0.5052887E+02  0.7816164E-02  0.1300439E+00
        -11   -1    0    0    0    0  0.00000000000E+00  0.00000000000E+00  0.45593999997E+02  0.45594000000E+02  0.51100000000E-03 0. -1.
         11   -1    0    0    0    0 -0.00000000000E+00 -0.00000000000E+00 -0.45593999997E+02  0.45594000000E+02  0.51100000000E-03 0.  1.
    9900012    2    1    2    0    0 -0.25440851302E+02  0.37953285386E+01 -0.31488466188E+02  0.50528868965E+02  0.30000027705E+02 0.  0.
         12    1    1    2    0    0  0.25440851302E+02 -0.37953285386E+01  0.31488466188E+02  0.40659131035E+02  0.00000000000E+00 0. -1.
         11    1    3    3    0    0 -0.39362593485E+01 -0.33093867940E+01 -0.14147197089E+02  0.15052885582E+02  0.51100000000E-03 0. -1.
        -11    1    3    3    0    0 -0.15455811865E+02  0.86329172983E+01 -0.21595698557E+02  0.27924605242E+02  0.51100000000E-03 0.  1.
        -12    1    3    3    0    0 -0.60487800883E+01 -0.15282019656E+01  0.42544294582E+01  0.75513781404E+01  0.00000000000E+00 0.  1.
</event>
<event>
 7    1  0.5479172E-013  0.5052886E+02  0.7816164E-02  0.1300439E+00
        -11   -1    0    0    0    0  0.00000000000E+00  0.00000000000E+00  0.45593999997E+02  0.45594000000E+02  0.51100000000E-03 0. -1.
         11   -1    0    0    0    0 -0.00000000000E+00 -0.00000000000E+00 -0.45593999997E+02  0.45594000000E+02  0.51100000000E-03 0.  1.
    9900012    2    1    2    0    0 -0.25856196046E+02 -0.29698747965E+02 -0.10129521528E+02  0.50528859440E+02  0.29999998755E+02 0.  0.
         12    1    1    2    0    0  0.25856196046E+02  0.29698747965E+02  0.10129521528E+02  0.40659140560E+02  0.00000000000E+00 0. -1.
         11    1    3    3    0    0 -0.82162003483E+01 -0.26133781339E+01 -0.12617618134E+02  0.15282014954E+02  0.51100000000E-03 0. -1.
        -11    1    3    3    0    0 -0.47522295035E+01 -0.87108385933E+01 -0.55955753843E+01  0.11391789078E+02  0.51100000000E-03 0.  1.
         12    1    3    3    0    0 -0.12887766194E+02 -0.18374531238E+02  0.80836719903E+01  0.23855055408E+02  0.00000000000E+00 0. -1.
</event>
<event>
 7    1  0.5479172E-013  0.5052885E+02  0.7816164E-02  0.1300439E+00
        -11   -1    0    0    0    0  0.00000000000E+00  0.00000000000E+00  0.45593999997E+02  0.45594000000E+02  0.51100000000E-03 0.  1.
         11   -1    0    0    0    0 -0.00000000000E+00 -0.00000000000E+00 -0.45593999997E+02  0.45594000000E+02  0.51100000000E-03 0. -1.
    9900012    2    1    2    0    0 -0.20338790278E+02  0.19770271335E+02  0.29131360424E+02  0.50528853688E+02  0.29999981271E+02 0.  0.
         12    1    1    2    0    0  0.20338790278E+02 -0.19770271335E+02 -0.29131360424E+02  0.40659146312E+02  0.00000000000E+00 0. -1.
         11    1    3    3    0    0  0.42201885026E+01  0.78831561726E+01  0.11964956683E+02  0.14937012115E+02  0.51100000000E-03 0. -1.
        -11    1    3    3    0    0 -0.44143952750E+01  0.94526557687E+01  0.87814355676E+01  0.13636465730E+02  0.51100000000E-03 0.  1.
        -12    1    3    3    0    0 -0.20144583506E+02  0.24344593939E+01  0.83849681738E+01  0.21955375843E+02  0.00000000000E+00 0.  1.
</event>
<event>
 7    1  0.5479172E-013  0.5052886E+02  0.7816164E-02  0.1300439E+00
        -11   -1    0    0    0    0  0.00000000000E+00  0.00000000000E+00  0.45593999997E+02  0.45594000000E+02  0.51100000000E-03 0.  1.
         11   -1    0    0    0    0 -0.00000000000E+00 -0.00000000000E+00 -0.45593999997E+02  0.45594000000E+02  0.51100000000E-03 0. -1.
    9900012    2    1    2    0    0  0.40508638301E+02  0.28840244453E+01  0.19744460539E+01  0.50528858208E+02  0.29999995009E+02 0.  0.
         12    1    1    2    0    0 -0.40508638301E+02 -0.28840244453E+01 -0.19744460539E+01  0.40659141792E+02  0.00000000000E+00 0. -1.
         11    1    3    3    0    0  0.15618358848E+02 -0.12126820287E+01  0.11591258759E+02  0.19487457779E+02  0.51100000000E-03 0. -1.
        -11    1    3    3    0    0  0.14553437449E+02 -0.42777430552E+01 -0.10228705790E+01  0.15203548655E+02  0.51100000000E-03 0.  1.
         12    1    3    3    0    0  0.10336842005E+02  0.83744495292E+01 -0.85939421263E+01  0.15837851774E+02  0.00000000000E+00 0. -1.
</event>
<event>
 7    1  0.5479172E-013  0.5052885E+02  0.7816164E-02  0.1300439E+00
        -11   -1    0    0    0    0  0.00000000000E+00  0.00000000000E+00  0.45593999997E+02  0.45594000000E+02  0.51100000000E-03 0.  1.
         11   -1    0    0    0    0 -0.00000000000E+00 -0.00000000000E+00 -0.45593999997E+02  0.45594000000E+02  0.51100000000E-03 0. -1.
    9900012    2    1    2    0    0 -0.29263187293E+02  0.25138148359E+02  0.12841570363E+02  0.50528848966E+02  0.29999966916E+02 0.  0.
         12    1    1    2    0    0  0.29263187293E+02 -0.25138148359E+02 -0.12841570363E+02  0.40659151034E+02  0.00000000000E+00 0. -1.
         11    1    3    3    0    0 -0.22140548370E+01  0.17943277437E+01 -0.22877225363E+01  0.36544938825E+01  0.51100000000E-03 0. -1.
        -11    1    3    3    0    0  0.29492180744E+01  0.11679988945E+02  0.57564700682E+01  0.13351291208E+02  0.51100000000E-03 0.  1.
        -12    1    3    3    0    0 -0.29998350530E+02  0.11663831670E+02  0.93728228314E+01  0.33523063875E+02  0.00000000000E+00 0.  1.
</event>
<event>
 7    1  0.5479172E-013  0.5052886E+02  0.7816164E-02  0.1300439E+00
        -11   -1    0    0    0    0  0.00000000000E+00  0.00000000000E+00  0.45593999997E+02  0.45594000000E+02  0.51100000000E-03 0.  1.
         11   -1    0    0    0    0 -0.00000000000E+00 -0.00000000000E+00 -0.45593999997E+02  0.45594000000E+02  0.51100000000E-03 0. -1.
    9900012    2    1    2    0    0  0.25475378736E+02  0.25873479860E+02  0.18295729675E+02  0.50528860731E+02  0.30000002678E+02 0.  0.
         12    1    1    2    0    0 -0.25475378736E+02 -0.25873479860E+02 -0.18295729675E+02  0.40659139269E+02  0.00000000000E+00 0. -1.
         11    1    3    3    0    0  0.11322948717E+02  0.10771022932E+02  0.18792711074E+02  0.24441564852E+02  0.51100000000E-03 0. -1.
        -11    1    3    3    0    0  0.67190564002E+01  0.12138560860E+02  0.66248996507E+01  0.15374643876E+02  0.51100000000E-03 0.  1.
         12    1    3    3    0    0  0.74333736185E+01  0.29638960683E+01 -0.71218810499E+01  0.10712652003E+02  0.00000000000E+00 0. -1.
</event>
<event>
 7    1  0.5479172E-013  0.5052884E+02  0.7816164E-02  0.1300439E+00
        -11   -1    0    0    0    0  0.00000000000E+00  0.00000000000E+00  0.45593999997E+02  0.45594000000E+02  0.51100000000E-03 0.  1.
         11   -1    0    0    0    0 -0.00000000000E+00 -0.00000000000E+00 -0.45593999997E+02  0.45594000000E+02  0.51100000000E-03 0. -1.
    9900012    2    1    2    0    0 -0.23222684169E+02  0.30857287084E+02  0.12716207727E+02  0.50528841559E+02  0.29999944402E+02 0.  0.
         12    1    1    2    0    0  0.23222684169E+02 -0.30857287084E+02 -0.12716207727E+02  0.40659158441E+02  0.00000000000E+00 0. -1.
         11    1    3    3    0    0 -0.13127336676E+02  0.22978476112E+02 -0.49087274712E+01  0.26915291904E+02  0.51100000000E-03 0. -1.
        -11    1    3    3    0    0 -0.43755610633E+00 -0.18927920423E+01  0.27199751113E+01  0.33425113206E+01  0.51100000000E-03 0.  1.
        -12    1    3    3    0    0 -0.96577913865E+01  0.97716030140E+01  0.14904960087E+02  0.20271038334E+02  0.00000000000E+00 0.  1.
</event>
<event>
 7    1  0.5479172E-013  0.5052886E+02  0.7816164E-02  0.1300439E+00
        -11   -1    0    0    0    0  0.00000000000E+00  0.00000000000E+00  0.45593999997E+02  0.45594000000E+02  0.51100000000E-03 0.  1.
         11   -1    0    0    0    0 -0.00000000000E+00 -0.00000000000E+00 -0.45593999997E+02  0.45594000000E+02  0.51100000000E-03 0. -1.
    9900012    2    1    2    0    0  0.15495783765E+02 -0.36716362015E+02  0.80594523969E+01  0.50528864163E+02  0.30000013109E+02 0.  0.
         12    1    1    2    0    0 -0.15495783765E+02  0.36716362015E+02 -0.80594523969E+01  0.40659135837E+02  0.00000000000E+00 0. -1.
         11    1    3    3    0    0  0.76981010665E+01 -0.60170244773E+01 -0.74817553416E+01  0.12306177589E+02  0.51100000000E-03 0. -1.
        -11    1    3    3    0    0  0.76893780018E+01 -0.96279566085E+01  0.49701375640E+00  0.12331711375E+02  0.51100000000E-03 0.  1.
         12    1    3    3    0    0  0.10830469716E+00 -0.21071380929E+02  0.15044193982E+02  0.25890975199E+02  0.00000000000E+00 0. -1.
</event>
<event>
 7    1  0.5479172E-013  0.5052886E+02  0.7816164E-02  0.1300439E+00
        -11   -1    0    0    0    0  0.00000000000E+00  0.00000000000E+00  0.45593999997E+02  0.45594000000E+02  0.51100000000E-03 0.  1.
         11   -1    0    0    0    0 -0.00000000000E+00 -0.00000000000E+00 -0.45593999997E+02  0.45594000000E+02  0.51100000000E-03 0. -1.
    9900012    2    1    2    0    0  0.14961092971E+02 -0.32568614218E+01  0.37665957544E+02  0.50528858261E+02  0.29999995171E+02 0.  0.
         12    1    1    2    0    0 -0.14961092971E+02  0.32568614218E+01 -0.37665957544E+02  0.40659141739E+02  0.00000000000E+00 0. -1.
         11    1    3    3    0    0  0.17594895835E+02  0.50220299976E+01  0.26799382609E+02  0.32450085565E+02  0.51100000000E-03 0. -1.
        -11    1    3    3    0    0  0.34478533293E+01 -0.61432548526E+01  0.24094534914E+01  0.74453165918E+01  0.51100000000E-03 0.  1.
        -12    1    3    3    0    0 -0.60816561933E+01 -0.21356365669E+01  0.84571214442E+01  0.10633456104E+02  0.00000000000E+00 0.  1.
</event>
<event>
 7    1  0.5479172E-013  0.5052885E+02  0.7816164E-02  0.1300439E+00
        -11   -1    0    0    0    0  0.00000000000E+00  0.00000000000E+00  0.45593999997E+02  0.45594000000E+02  0.51100000000E-03 0.  1.
         11   -1    0    0    0    0 -0.00000000000E+00 -0.00000000000E+00 -0.45593999997E+02  0.45594000000E+02  0.51100000000E-03 0. -1.
    9900012    2    1    2    0    0  0.24501538535E+02 -0.31644504035E+02  0.71739897372E+01  0.50528853981E+02  0.29999982161E+02 0.  0.
         12    1    1    2    0    0 -0.24501538535E+02  0.31644504035E+02 -0.71739897372E+01  0.40659146019E+02  0.00000000000E+00 0. -1.
         11    1    3    3    0    0  0.45391898111E+01 -0.32927801510E+01  0.62989523876E+01  0.84334718062E+01  0.51100000000E-03 0. -1.
        -11    1    3    3    0    0  0.75409424860E+01 -0.20998070470E+02  0.10588892084E+02  0.24696344119E+02  0.51100000000E-03 0.  1.
         12    1    3    3    0    0  0.12421406238E+02 -0.73536534145E+01 -0.97138547340E+01  0.17399038056E+02  0.00000000000E+00 0. -1.
</event>
<event>
 7    1  0.5479172E-013  0.5052886E+02  0.7816164E-02  0.1300439E+00
        -11   -1    0    0    0    0  0.00000000000E+00  0.00000000000E+00  0.45593999997E+02  0.45594000000E+02  0.51100000000E-03 0.  1.
         11   -1    0    0    0    0 -0.00000000000E+00 -0.00000000000E+00 -0.45593999997E+02  0.45594000000E+02  0.51100000000E-03 0. -1.
    9900012    2    1    2    0    0  0.56384539244E+01 -0.10233572613E+02  0.38944158455E+02  0.50528860206E+02  0.30000001081E+02 0.  0.
         12    1    1    2    0    0 -0.56384539244E+01  0.10233572613E+02 -0.38944158455E+02  0.40659139794E+02  0.00000000000E+00 0. -1.
         11    1    3    3    0    0 -0.12973701467E+01  0.31803855632E+01  0.36174194318E+01  0.49883609768E+01  0.51100000000E-03 0. -1.
        -11    1    3    3    0    0 -0.69510406353E+01 -0.12841622058E+01  0.18258898217E+01  0.73006788990E+01  0.51100000000E-03 0.  1.
        -12    1    3    3    0    0  0.13886864706E+02 -0.12129795971E+02  0.33500849201E+02  0.38239820330E+02  0.00000000000E+00 0.  1.
</event>
<event>
 7    1  0.5479172E-013  0.5052885E+02  0.7816164E-02  0.1300439E+00
        -11   -1    0    0    0    0  0.00000000000E+00  0.00000000000E+00  0.45593999997E+02  0.45594000000E+02  0.51100000000E-03 0.  1.
         11   -1    0    0    0    0 -0.00000000000E+00 -0.00000000000E+00 -0.45593999997E+02  0.45594000000E+02  0.51100000000E-03 0. -1.
    9900012    2    1    2    0    0 -0.13112576670E+02 -0.30117878532E+02  0.23961221375E+02  0.50528850919E+02  0.29999972855E+02 0.  0.
         12    1    1    2    0    0  0.13112576670E+02  0.30117878532E+02 -0.23961221375E+02  0.40659149081E+02  0.00000000000E+00 0. -1.
         11    1    3    3    0    0 -0.15294570971E+02 -0.28662771088E+02  0.23496345683E+02  0.40094346339E+02  0.51100000000E-03 0.  1.
        -11    1    3    3    0    0  0.46681568198E+01  0.48047930290E+00  0.36568633464E+01  0.59493863759E+01  0.51100000000E-03 0. -1.
        -12    1    3    3    0    0 -0.24861625193E+01 -0.19355867469E+01 -0.31919876544E+01  0.44851182050E+01  0.00000000000E+00 0.  1.
</event>
<event>
 7    1  0.5479172E-013  0.5052886E+02  0.7816164E-02  0.1300439E+00
        -11   -1    0    0    0    0  0.00000000000E+00  0.00000000000E+00  0.45593999997E+02  0.45594000000E+02  0.51100000000E-03 0.  1.
         11   -1    0    0    0    0 -0.00000000000E+00 -0.00000000000E+00 -0.45593999997E+02  0.45594000000E+02  0.51100000000E-03 0. -1.
    9900012    2    1    2    0    0 -0.86931436464E+01 -0.18337558479E+02  0.35232498072E+02  0.50528859357E+02  0.29999998503E+02 0.  0.
         12    1    1    2    0    0  0.86931436464E+01  0.18337558479E+02 -0.35232498072E+02  0.40659140643E+02  0.00000000000E+00 0. -1.
         11    1    3    3    0    0  0.42131654247E+01 -0.12885706925E+02  0.19995590594E+02  0.24158142506E+02  0.51100000000E-03 0. -1.
        -11    1    3    3    0    0 -0.49050285335E+01 -0.74241806085E+01  0.15775883062E+02  0.18112323133E+02  0.51100000000E-03 0.  1.
         12    1    3    3    0    0 -0.80012805377E+01  0.19723290550E+01 -0.53897558389E+00  0.82583937193E+01  0.00000000000E+00 0. -1.
</event>
<event>
 7    1  0.5479172E-013  0.5052887E+02  0.7816164E-02  0.1300439E+00
        -11   -1    0    0    0    0  0.00000000000E+00  0.00000000000E+00  0.45593999997E+02  0.45594000000E+02  0.51100000000E-03 0.  1.
         11   -1    0    0    0    0 -0.00000000000E+00 -0.00000000000E+00 -0.45593999997E+02  0.45594000000E+02  0.51100000000E-03 0. -1.
    9900012    2    1    2    0    0  0.18370097053E+02 -0.13272305405E+02  0.33757223638E+02  0.50528871821E+02  0.30000036388E+02 0.  0.
         12    1    1    2    0    0 -0.18370097053E+02  0.13272305405E+02 -0.33757223638E+02  0.40659128179E+02  0.00000000000E+00 0. -1.
         11    1    3    3    0    0  0.82351611216E+01 -0.15278614797E+02  0.11388992491E+02  0.20759650744E+02  0.51100000000E-03 0. -1.
        -11    1    3    3    0    0  0.74494901922E+01  0.13157515445E+01  0.34556482365E+00  0.75726825867E+01  0.51100000000E-03 0.  1.
        -12    1    3    3    0    0  0.26854457390E+01  0.69055784733E+00  0.22022666324E+02  0.22196538491E+02  0.00000000000E+00 0.  1.
</event>
<event>
 7    1  0.5479172E-013  0.5052886E+02  0.7816164E-02  0.1300439E+00
        -11   -1    0    0    0    0  0.00000000000E+00  0.00000000000E+00  0.45593999997E+02  0.45594000000E+02  0.51100000000E-03 0. -1.
         11   -1    0    0    0    0 -0.00000000000E+00 -0.00000000000E+00 -0.45593999997E+02  0.45594000000E+02  0.51100000000E-03 0.  1.
    9900012    2    1    2    0    0 -0.22024873232E+02  0.33818453929E+02 -0.49379225679E+01  0.50528856547E+02  0.29999989959E+02 0.  0.
         12    1    1    2    0    0  0.22024873232E+02 -0.33818453929E+02  0.49379225679E+01  0.40659143453E+02  0.00000000000E+00 0. -1.
         11    1    3    3    0    0  0.67788125682E+00  0.25171230162E+00  0.39638767814E+01  0.40292929256E+01  0.51100000000E-03 0. -1.
        -11    1    3    3    0    0  0.35384476216E+01  0.26621256671E+01  0.14445051746E+01  0.46576947194E+01  0.51100000000E-03 0.  1.
         12    1    3    3    0    0 -0.26241202111E+02  0.30904615961E+02 -0.10346304524E+02  0.41841868902E+02  0.00000000000E+00 0. -1.
</event>
<event>
 7    1  0.5479172E-013  0.5052886E+02  0.7816164E-02  0.1300439E+00
        -11   -1    0    0    0    0  0.00000000000E+00  0.00000000000E+00  0.45593999997E+02  0.45594000000E+02  0.51100000000E-03 0.  1.
         11   -1    0    0    0    0 -0.00000000000E+00 -0.00000000000E+00 -0.45593999997E+02  0.45594000000E+02  0.51100000000E-03 0. -1.
    9900012    2    1    2    0    0  0.32426028689E+02 -0.14091929019E+02  0.20078237368E+02  0.50528863071E+02  0.30000009790E+02 0.  0.
         12    1    1    2    0    0 -0.32426028689E+02  0.14091929019E+02 -0.20078237368E+02  0.40659136929E+02  0.00000000000E+00 0. -1.
         11    1    3    3    0    0  0.17061087652E+02 -0.11672953077E+02  0.31572754943E+01  0.20911884999E+02  0.51100000000E-03 0. -1.
        -11    1    3    3    0    0  0.11131021409E+02 -0.10235101998E+02  0.83735387355E+01  0.17285054288E+02  0.51100000000E-03 0.  1.
        -12    1    3    3    0    0  0.42339196284E+01  0.78161260551E+01  0.85474231380E+01  0.12331923785E+02  0.00000000000E+00 0.  1.
</event>
<event>
 7    1  0.5479172E-013  0.5052872E+02  0.7816164E-02  0.1300439E+00
        -11   -1    0    0    0    0  0.00000000000E+00  0.00000000000E+00  0.45593999997E+02  0.45594000000E+02  0.51100000000E-03 0. -1.
         11   -1    0    0    0    0 -0.00000000000E+00 -0.00000000000E+00 -0.45593999997E+02  0.45594000000E+02  0.51100000000E-03 0.  1.
    9900012    2    1    2    0    0 -0.24722660647E+02  0.27495406372E+02 -0.16910639516E+02  0.50528720003E+02  0.29999574919E+02 0.  0.
         12    1    1    2    0    0  0.24722660647E+02 -0.27495406372E+02  0.16910639516E+02  0.40659279997E+02  0.00000000000E+00 0. -1.
         11    1    3    3    0    0 -0.16247219974E+01  0.56346836231E-02 -0.11017758563E+01  0.19630750412E+01  0.51100000000E-03 0. -1.
        -11    1    3    3    0    0 -0.19096840661E+02  0.11867173492E+01 -0.87502530792E+01  0.21039594827E+02  0.51100000000E-03 0.  1.
         12    1    3    3    0    0 -0.40010979889E+01  0.26303054339E+02 -0.70586105801E+01  0.27526050135E+02  0.00000000000E+00 0. -1.
</event>
<event>
 7    1  0.5479172E-013  0.5052888E+02  0.7816164E-02  0.1300439E+00
        -11   -1    0    0    0    0  0.00000000000E+00  0.00000000000E+00  0.45593999997E+02  0.45594000000E+02  0.51100000000E-03 0.  1.
         11   -1    0    0    0    0 -0.00000000000E+00 -0.00000000000E+00 -0.45593999997E+02  0.45594000000E+02  0.51100000000E-03 0. -1.
    9900012    2    1    2    0    0 -0.23074844791E+02 -0.23343415165E+02  0.23995836857E+02  0.50528884414E+02  0.30000074666E+02 0.  0.
         12    1    1    2    0    0  0.23074844791E+02  0.23343415165E+02 -0.23995836857E+02  0.40659115586E+02  0.00000000000E+00 0. -1.
         11    1    3    3    0    0 -0.11690871901E+02 -0.62974940526E+01  0.18364147493E+02  0.22662233574E+02  0.51100000000E-03 0. -1.
        -11    1    3    3    0    0 -0.40389680296E+01 -0.11695333007E+02  0.11627842227E+02  0.16979422605E+02  0.51100000000E-03 0.  1.
         12    1    3    3    0    0 -0.73450048606E+01 -0.53505881057E+01 -0.59961528631E+01  0.10887228235E+02  0.00000000000E+00 0. -1.
</event>
<event>
 7    1  0.5479172E-013  0.5052887E+02  0.7816164E-02  0.1300439E+00
        -11   -1    0    0    0    0  0.00000000000E+00  0.00000000000E+00  0.45593999997E+02  0.45594000000E+02  0.51100000000E-03 0.  1.
         11   -1    0    0    0    0 -0.00000000000E+00 -0.00000000000E+00 -0.45593999997E+02  0.45594000000E+02  0.51100000000E-03 0. -1.
    9900012    2    1    2    0    0 -0.31188270573E+01  0.76650049366E+01  0.39808112924E+02  0.50528865264E+02  0.30000016457E+02 0.  0.
         12    1    1    2    0    0  0.31188270573E+01 -0.76650049366E+01 -0.39808112924E+02  0.40659134736E+02  0.00000000000E+00 0. -1.
         11    1    3    3    0    0 -0.57412916598E-01 -0.21203347601E+01 -0.81410548986E+00  0.22719779373E+01  0.51100000000E-03 0. -1.
        -11    1    3    3    0    0 -0.51209292666E+00 -0.32729553512E+01 -0.18188365756E+01  0.37792383686E+01  0.51100000000E-03 0.  1.
        -12    1    3    3    0    0 -0.25493212141E+01  0.13058295048E+02  0.42441054990E+02  0.44477648958E+02  0.00000000000E+00 0.  1.
</event>
<event>
 7    1  0.5479172E-013  0.5052886E+02  0.7816164E-02  0.1300439E+00
        -11   -1    0    0    0    0  0.00000000000E+00  0.00000000000E+00  0.45593999997E+02  0.45594000000E+02  0.51100000000E-03 0.  1.
         11   -1    0    0    0    0 -0.00000000000E+00 -0.00000000000E+00 -0.45593999997E+02  0.45594000000E+02  0.51100000000E-03 0. -1.
    9900012    2    1    2    0    0 -0.12293938373E+02 -0.17377802243E+02  0.34641549587E+02  0.50528857249E+02  0.29999992093E+02 0.  0.
         12    1    1    2    0    0  0.12293938373E+02  0.17377802243E+02 -0.34641549587E+02  0.40659142751E+02  0.00000000000E+00 0. -1.
         11    1    3    3    0    0  0.69399377947E+01  0.12700488164E+00  0.17642236635E+02  0.18958570109E+02  0.51100000000E-03 0.  1.
        -11    1    3    3    0    0 -0.14930818533E+01 -0.67647430479E+00 -0.23309133805E+00  0.16556698761E+01  0.51100000000E-03 0. -1.
        -12    1    3    3    0    0 -0.17740794315E+02 -0.16828332819E+02  0.17232404290E+02  0.29914617263E+02  0.00000000000E+00 0.  1.
</event>
<event>
 7    1  0.5479172E-013  0.5052885E+02  0.7816164E-02  0.1300439E+00
        -11   -1    0    0    0    0  0.00000000000E+00  0.00000000000E+00  0.45593999997E+02  0.45594000000E+02  0.51100000000E-03 0.  1.
         11   -1    0    0    0    0 -0.00000000000E+00 -0.00000000000E+00 -0.45593999997E+02  0.45594000000E+02  0.51100000000E-03 0. -1.
    9900012    2    1    2    0    0 -0.79591315396E+01  0.34211631448E+02  0.20478838072E+02  0.50528852075E+02  0.29999976367E+02 0.  0.
         12    1    1    2    0    0  0.79591315396E+01 -0.34211631448E+02 -0.20478838072E+02  0.40659147925E+02  0.00000000000E+00 0. -1.
         11    1    3    3    0    0 -0.69775651790E+01  0.16735047371E+02  0.32993592037E+01  0.18429161613E+02  0.51100000000E-03 0. -1.
        -11    1    3    3    0    0 -0.22652121572E+01  0.18111222162E+02  0.21115792623E+02  0.27911005942E+02  0.51100000000E-03 0.  1.
         12    1    3    3    0    0  0.12836457966E+01 -0.63463808439E+00 -0.39363137554E+01  0.41886845202E+01  0.00000000000E+00 0. -1.
</event>
<event>
 7    1  0.5479172E-013  0.5052880E+02  0.7816164E-02  0.1300439E+00
        -11   -1    0    0    0    0  0.00000000000E+00  0.00000000000E+00  0.45593999997E+02  0.45594000000E+02  0.51100000000E-03 0.  1.
         11   -1    0    0    0    0 -0.00000000000E+00 -0.00000000000E+00 -0.45593999997E+02  0.45594000000E+02  0.51100000000E-03 0. -1.
    9900012    2    1    2    0    0 -0.27656337817E+02 -0.76485563389E+01  0.28806193419E+02  0.50528804057E+02  0.29999830410E+02 0.  0.
         12    1    1    2    0    0  0.27656337817E+02  0.76485563389E+01 -0.28806193419E+02  0.40659195943E+02  0.00000000000E+00 0. -1.
         11    1    3    3    0    0 -0.18399469429E+02 -0.12916964548E+01  0.10723646943E+02  0.21335546841E+02  0.51100000000E-03 0. -1.
        -11    1    3    3    0    0 -0.13981257661E+02 -0.11647817675E+00  0.15674326228E+02  0.21004133782E+02  0.51100000000E-03 0.  1.
         12    1    3    3    0    0  0.47243892731E+01 -0.62403817074E+01  0.24082202479E+01  0.81891234341E+01  0.00000000000E+00 0. -1.
</event>
<event>
 7    1  0.5479172E-013  0.5052886E+02  0.7816164E-02  0.1300439E+00
        -11   -1    0    0    0    0  0.00000000000E+00  0.00000000000E+00  0.45593999997E+02  0.45594000000E+02  0.51100000000E-03 0.  1.
         11   -1    0    0    0    0 -0.00000000000E+00 -0.00000000000E+00 -0.45593999997E+02  0.45594000000E+02  0.51100000000E-03 0. -1.
    9900012    2    1    2    0    0 -0.14189535524E+01 -0.26470991898E+02  0.30829189066E+02  0.50528859087E+02  0.29999997682E+02 0.  0.
         12    1    1    2    0    0  0.14189535524E+01  0.26470991898E+02 -0.30829189066E+02  0.40659140913E+02  0.00000000000E+00 0. -1.
         11    1    3    3    0    0  0.38376035621E+01 -0.41819923025E+01 -0.21446198104E+01  0.60675905523E+01  0.51100000000E-03 0. -1.
        -11    1    3    3    0    0 -0.76080341172E+01 -0.20476937833E+02  0.15618189837E+02  0.26853584866E+02  0.51100000000E-03 0.  1.
        -12    1    3    3    0    0  0.23514770026E+01 -0.18120617632E+01  0.17355619040E+02  0.17607683669E+02  0.00000000000E+00 0.  1.
</event>
<event>
 7    1  0.5479172E-013  0.5052886E+02  0.7816164E-02  0.1300439E+00
        -11   -1    0    0    0    0  0.00000000000E+00  0.00000000000E+00  0.45593999997E+02  0.45594000000E+02  0.51100000000E-03 0. -1.
         11   -1    0    0    0    0 -0.00000000000E+00 -0.00000000000E+00 -0.45593999997E+02  0.45594000000E+02  0.51100000000E-03 0.  1.
    9900012    2    1    2    0    0 -0.30978898882E+02 -0.16432286322E+02 -0.20577990103E+02  0.50528857284E+02  0.29999992201E+02 0.  0.
         12    1    1    2    0    0  0.30978898882E+02  0.16432286322E+02  0.20577990103E+02  0.40659142716E+02  0.00000000000E+00 0. -1.
         11    1    3    3    0    0 -0.20727483356E+02  0.28926160952E+01 -0.69106664485E+01  0.22039807285E+02  0.51100000000E-03 0. -1.
        -11    1    3    3    0    0 -0.95069323700E+01 -0.56583412016E+01 -0.41394580339E+01  0.11812438415E+02  0.51100000000E-03 0.  1.
         12    1    3    3    0    0 -0.74448315635E+00 -0.13666561215E+02 -0.95278656206E+01  0.16676611584E+02  0.00000000000E+00 0. -1.
</event>
<event>
 7    1  0.5479172E-013  0.5052886E+02  0.7816164E-02  0.1300439E+00
        -11   -1    0    0    0    0  0.00000000000E+00  0.00000000000E+00  0.45593999997E+02  0.45594000000E+02  0.51100000000E-03 0.  1.
         11   -1    0    0    0    0 -0.00000000000E+00 -0.00000000000E+00 -0.45593999997E+02  0.45594000000E+02  0.51100000000E-03 0. -1.
    9900012    2    1    2    0    0 -0.24315376635E+02 -0.16085233451E+02  0.28340666499E+02  0.50528860146E+02  0.30000000899E+02 0.  0.
         12    1    1    2    0    0  0.24315376635E+02  0.16085233451E+02 -0.28340666499E+02  0.40659139854E+02  0.00000000000E+00 0. -1.
         11    1    3    3    0    0 -0.16428723909E+01 -0.45118364568E+01  0.10461063345E+02  0.11510410265E+02  0.51100000000E-03 0.  1.
        -11    1    3    3    0    0  0.45616681232E-01 -0.16325695450E+01  0.13789117493E+02  0.13885500557E+02  0.51100000000E-03 0. -1.
        -12    1    3    3    0    0 -0.22718120925E+02 -0.99408274495E+01  0.40904856606E+01  0.25132949323E+02  0.00000000000E+00 0.  1.
</event>
<event>
 7    1  0.5479172E-013  0.5052885E+02  0.7816164E-02  0.1300439E+00
        -11   -1    0    0    0    0  0.00000000000E+00  0.00000000000E+00  0.45593999997E+02  0.45594000000E+02  0.51100000000E-03 0.  1.
         11   -1    0    0    0    0 -0.00000000000E+00 -0.00000000000E+00 -0.45593999997E+02  0.45594000000E+02  0.51100000000E-03 0. -1.
    9900012    2    1    2    0    0  0.12514071983E+02 -0.22728595708E+02  0.31304563276E+02  0.50528846758E+02  0.29999960207E+02 0.  0.
         12    1    1    2    0    0 -0.12514071983E+02  0.22728595708E+02 -0.31304563276E+02  0.40659153242E+02  0.00000000000E+00 0. -1.
         11    1    3    3    0    0  0.12801653494E+02 -0.15354935870E+02  0.29720774616E+02  0.35818721805E+02  0.51100000000E-03 0. -1.
        -11    1    3    3    0    0 -0.23117713577E+01  0.79669970976E+00  0.50470081612E+01  0.56081466527E+01  0.51100000000E-03 0.  1.
         12    1    3    3    0    0  0.20241898473E+01 -0.81703595471E+01 -0.34632195012E+01  0.91019783003E+01  0.00000000000E+00 0. -1.
</event>
<event>
 7    1  0.5479172E-013  0.5052887E+02  0.7816164E-02  0.1300439E+00
        -11   -1    0    0    0    0  0.00000000000E+00  0.00000000000E+00  0.45593999997E+02  0.45594000000E+02  0.51100000000E-03 0. -1.
         11   -1    0    0    0    0 -0.00000000000E+00 -0.00000000000E+00 -0.45593999997E+02  0.45594000000E+02  0.51100000000E-03 0.  1.
    9900012    2    1    2    0    0  0.29916545528E+02  0.14135187436E+01 -0.27498496539E+02  0.50528867650E+02  0.30000023710E+02 0.  0.
         12    1    1    2    0    0 -0.29916545528E+02 -0.14135187436E+01  0.27498496539E+02  0.40659132350E+02  0.00000000000E+00 0. -1.
         11    1    3    3    0    0  0.87255166879E+01 -0.59885643820E+01 -0.96367271461E+00  0.10626674465E+02  0.51100000000E-03 0.  1.
        -11    1    3    3    0    0  0.23579837076E+02  0.10339530164E+02 -0.24759751593E+02  0.35720580898E+02  0.51100000000E-03 0. -1.
         12    1    3    3    0    0 -0.23888082361E+01 -0.29374470378E+01 -0.17750722313E+01  0.41816122866E+01  0.00000000000E+00 0. -1.
</event>
<event>
 7    1  0.5479172E-013  0.5052885E+02  0.7816164E-02  0.1300439E+00
        -11   -1    0    0    0    0  0.00000000000E+00  0.00000000000E+00  0.45593999997E+02  0.45594000000E+02  0.51100000000E-03 0. -1.
         11   -1    0    0    0    0 -0.00000000000E+00 -0.00000000000E+00 -0.45593999997E+02  0.45594000000E+02  0.51100000000E-03 0.  1.
    9900012    2    1    2    0    0  0.19915569541E+02  0.44990304925E+01 -0.35160996836E+02  0.50528845016E+02  0.29999954911E+02 0.  0.
         12    1    1    2    0    0 -0.19915569541E+02 -0.44990304925E+01  0.35160996836E+02  0.40659154984E+02  0.00000000000E+00 0. -1.
         11    1    3    3    0    0  0.11659810866E+02  0.18971521666E+01 -0.34791334862E+01  0.12314818141E+02  0.51100000000E-03 0. -1.
        -11    1    3    3    0    0  0.79103296947E+01 -0.51653245598E+01 -0.55653948608E+01  0.10964830774E+02  0.51100000000E-03 0.  1.
        -12    1    3    3    0    0  0.34542898085E+00  0.77672028857E+01 -0.26116468489E+02  0.27249196101E+02  0.00000000000E+00 0.  1.
</event>
<event>
 7    1  0.5479172E-013  0.5052884E+02  0.7816164E-02  0.1300439E+00
        -11   -1    0    0    0    0  0.00000000000E+00  0.00000000000E+00  0.45593999997E+02  0.45594000000E+02  0.51100000000E-03 0. -1.
         11   -1    0    0    0    0 -0.00000000000E+00 -0.00000000000E+00 -0.45593999997E+02  0.45594000000E+02  0.51100000000E-03 0.  1.
    9900012    2    1    2    0    0 -0.27696221348E+02  0.12825169354E+02 -0.26862651166E+02  0.50528835307E+02  0.29999925398E+02 0.  0.
         12    1    1    2    0    0  0.27696221348E+02 -0.12825169354E+02  0.26862651166E+02  0.40659164693E+02  0.00000000000E+00 0. -1.
         11    1    3    3    0    0 -0.12685601563E+02  0.73120242844E+01 -0.11848363037E+02  0.18835442471E+02  0.51100000000E-03 0. -1.
        -11    1    3    3    0    0 -0.11099803151E+02  0.50302882817E+01  0.35678872740E+01  0.12698001813E+02  0.51100000000E-03 0.  1.
         12    1    3    3    0    0 -0.39108166343E+01  0.48285678751E+00 -0.18582175403E+02  0.18995391023E+02  0.00000000000E+00 0. -1.
</event>
<event>
 7    1  0.5479172E-013  0.5052886E+02  0.7816164E-02  0.1300439E+00
        -11   -1    0    0    0    0  0.00000000000E+00  0.00000000000E+00  0.45593999997E+02  0.45594000000E+02  0.51100000000E-03 0.  1.
         11   -1    0    0    0    0 -0.00000000000E+00 -0.00000000000E+00 -0.45593999997E+02  0.45594000000E+02  0.51100000000E-03 0. -1.
    9900012    2    1    2    0    0  0.13375258804E+02 -0.37487122039E+02  0.83056245464E+01  0.50528864914E+02  0.30000015393E+02 0.  0.
         12    1    1    2    0    0 -0.13375258804E+02  0.37487122039E+02 -0.83056245464E+01  0.40659135086E+02  0.00000000000E+00 0. -1.
         11    1    3    3    0    0  0.16017088718E-01 -0.19042041101E+01 -0.60232331319E+01  0.63170869443E+01  0.51100000000E-03 0. -1.
        -11    1    3    3    0    0 -0.23327040953E+01  0.48708988070E+00  0.11103748264E+00  0.23856015031E+01  0.51100000000E-03 0.  1.
        -12    1    3    3    0    0  0.15691945811E+02 -0.36070007809E+02  0.14217820196E+02  0.41826176467E+02  0.00000000000E+00 0.  1.
</event>
<event>
 7    1  0.5479172E-013  0.5052885E+02  0.7816164E-02  0.1300439E+00
        -11   -1    0    0    0    0  0.00000000000E+00  0.00000000000E+00  0.45593999997E+02  0.45594000000E+02  0.51100000000E-03 0. -1.
         11   -1    0    0    0    0 -0.00000000000E+00 -0.00000000000E+00 -0.45593999997E+02  0.45594000000E+02  0.51100000000E-03 0.  1.
    9900012    2    1    2    0    0  0.37442001249E+02  0.15698964682E+02  0.21920779309E+01  0.50528853978E+02  0.29999982151E+02 0.  0.
         12    1    1    2    0    0 -0.37442001249E+02 -0.15698964682E+02 -0.21920779309E+01  0.40659146022E+02  0.00000000000E+00 0. -1.
         11    1    3    3    0    0  0.14391542993E+02  0.14684250448E+02  0.16890635419E+01  0.20629994106E+02  0.51100000000E-03 0. -1.
        -11    1    3    3    0    0  0.98984714700E+01  0.53536237973E+01 -0.78543191890E+01  0.13723387169E+02  0.51100000000E-03 0.  1.
        -12    1    3    3    0    0  0.13151986786E+02 -0.43389095634E+01  0.83573335780E+01  0.16175472703E+02  0.00000000000E+00 0.  1.
</event>
<event>
 7    1  0.5479172E-013  0.5052886E+02  0.7816164E-02  0.1300439E+00
        -11   -1    0    0    0    0  0.00000000000E+00  0.00000000000E+00  0.45593999997E+02  0.45594000000E+02  0.51100000000E-03 0.  1.
         11   -1    0    0    0    0 -0.00000000000E+00 -0.00000000000E+00 -0.45593999997E+02  0.45594000000E+02  0.51100000000E-03 0. -1.
    9900012    2    1    2    0    0 -0.27369725755E+02 -0.29068193223E+02  0.76879253642E+01  0.50528856606E+02  0.29999990139E+02 0.  0.
         12    1    1    2    0    0  0.27369725755E+02  0.29068193223E+02 -0.76879253642E+01  0.40659143394E+02  0.00000000000E+00 0. -1.
         11    1    3    3    0    0 -0.60028602076E+01  0.46765398579E+00  0.12127385550E+01  0.61419675990E+01  0.51100000000E-03 0. -1.
        -11    1    3    3    0    0  0.19429724966E+01 -0.96168824332E+00  0.71842058235E+01  0.75041854972E+01  0.51100000000E-03 0.  1.
        -12    1    3    3    0    0 -0.23309838044E+02 -0.28574158965E+02 -0.70901901436E+00  0.36882703510E+02  0.00000000000E+00 0.  1.
</event>
<event>
 7    1  0.5479172E-013  0.5052885E+02  0.7816164E-02  0.1300439E+00
        -11   -1    0    0    0    0  0.00000000000E+00  0.00000000000E+00  0.45593999997E+02  0.45594000000E+02  0.51100000000E-03 0.  1.
         11   -1    0    0    0    0 -0.00000000000E+00 -0.00000000000E+00 -0.45593999997E+02  0.45594000000E+02  0.51100000000E-03 0. -1.
    9900012    2    1    2    0    0 -0.28720757777E+02 -0.13939430678E+02  0.25178902161E+02  0.50528846431E+02  0.29999959211E+02 0.  0.
         12    1    1    2    0    0  0.28720757777E+02  0.13939430678E+02 -0.25178902161E+02  0.40659153569E+02  0.00000000000E+00 0. -1.
         11    1    3    3    0    0 -0.10134637064E+02  0.33928950507E+01  0.14379000472E+02  0.17915866155E+02  0.51100000000E-03 0. -1.
        -11    1    3    3    0    0 -0.56943061663E+01 -0.48107952157E+01  0.12507229559E+02  0.14560208269E+02  0.51100000000E-03 0.  1.
        -12    1    3    3    0    0 -0.12891814546E+02 -0.12521530513E+02 -0.17073278700E+01  0.18052772007E+02  0.00000000000E+00 0.  1.
</event>
<event>
 7    1  0.5479172E-013  0.5052886E+02  0.7816164E-02  0.1300439E+00
        -11   -1    0    0    0    0  0.00000000000E+00  0.00000000000E+00  0.45593999997E+02  0.45594000000E+02  0.51100000000E-03 0.  1.
         11   -1    0    0    0    0 -0.00000000000E+00 -0.00000000000E+00 -0.45593999997E+02  0.45594000000E+02  0.51100000000E-03 0. -1.
    9900012    2    1    2    0    0 -0.37096158634E+02  0.78992614904E+01  0.14650682180E+02  0.50528858274E+02  0.29999995211E+02 0.  0.
         12    1    1    2    0    0  0.37096158634E+02 -0.78992614904E+01 -0.14650682180E+02  0.40659141726E+02  0.00000000000E+00 0. -1.
         11    1    3    3    0    0 -0.30354361367E+02  0.32943094063E+01  0.20637754806E+02  0.36853176962E+02  0.51100000000E-03 0.  1.
        -11    1    3    3    0    0  0.39689894633E+00  0.42502055250E+01  0.12599129783E+00  0.42705561519E+01  0.51100000000E-03 0. -1.
        -12    1    3    3    0    0 -0.71386962133E+01  0.35474655913E+00 -0.61130639238E+01  0.94051251605E+01  0.00000000000E+00 0.  1.
</event>
<event>
 7    1  0.5479172E-013  0.5052886E+02  0.7816164E-02  0.1300439E+00
        -11   -1    0    0    0    0  0.00000000000E+00  0.00000000000E+00  0.45593999997E+02  0.45594000000E+02  0.51100000000E-03 0.  1.
         11   -1    0    0    0    0 -0.00000000000E+00 -0.00000000000E+00 -0.45593999997E+02  0.45594000000E+02  0.51100000000E-03 0. -1.
    9900012    2    1    2    0    0 -0.81504174399E+01  0.31224030772E+01  0.39711293065E+02  0.50528862007E+02  0.30000006557E+02 0.  0.
         12    1    1    2    0    0  0.81504174399E+01 -0.31224030772E+01 -0.39711293065E+02  0.40659137993E+02  0.00000000000E+00 0. -1.
         11    1    3    3    0    0 -0.34795296539E+01  0.30366155842E+01  0.41243707772E+02  0.41501464936E+02  0.51100000000E-03 0.  1.
        -11    1    3    3    0    0 -0.59807019464E+01  0.72363289402E+00  0.99909862064E+00  0.61066061484E+01  0.51100000000E-03 0. -1.
        -12    1    3    3    0    0  0.13098141604E+01 -0.63784540103E+00 -0.25315133272E+01  0.29207909230E+01  0.00000000000E+00 0.  1.
</event>
<event>
 7    1  0.5479172E-013  0.5052886E+02  0.7816164E-02  0.1300439E+00
        -11   -1    0    0    0    0  0.00000000000E+00  0.00000000000E+00  0.45593999997E+02  0.45594000000E+02  0.51100000000E-03 0. -1.
         11   -1    0    0    0    0 -0.00000000000E+00 -0.00000000000E+00 -0.45593999997E+02  0.45594000000E+02  0.51100000000E-03 0.  1.
    9900012    2    1    2    0    0 -0.25478210473E+02 -0.10274449576E+02 -0.29974364346E+02  0.50528855384E+02  0.29999986424E+02 0.  0.
         12    1    1    2    0    0  0.25478210473E+02  0.10274449576E+02  0.29974364346E+02  0.40659144616E+02  0.00000000000E+00 0. -1.
         11    1    3    3    0    0 -0.42557652538E+00  0.15687907033E+01  0.11806147986E+00  0.16297725068E+01  0.51100000000E-03 0. -1.
        -11    1    3    3    0    0 -0.36533712279E+01  0.40325461292E+01  0.31566834025E+01  0.62907233271E+01  0.51100000000E-03 0.  1.
        -12    1    3    3    0    0 -0.21399262720E+02 -0.15875786409E+02 -0.33249109228E+02  0.42608359550E+02  0.00000000000E+00 0.  1.
</event>
<event>
 7    1  0.5479172E-013  0.5052886E+02  0.7816164E-02  0.1300439E+00
        -11   -1    0    0    0    0  0.00000000000E+00  0.00000000000E+00  0.45593999997E+02  0.45594000000E+02  0.51100000000E-03 0.  1.
         11   -1    0    0    0    0 -0.00000000000E+00 -0.00000000000E+00 -0.45593999997E+02  0.45594000000E+02  0.51100000000E-03 0. -1.
    9900012    2    1    2    0    0 -0.13457685325E+01  0.39087239520E+02 -0.11114946597E+02  0.50528862970E+02  0.30000009482E+02 0.  0.
         12    1    1    2    0    0  0.13457685325E+01 -0.39087239520E+02  0.11114946597E+02  0.40659137030E+02  0.00000000000E+00 0. -1.
         11    1    3    3    0    0  0.31931062238E+01  0.22183831984E+01 -0.56719584965E+01  0.68766463352E+01  0.51100000000E-03 0. -1.
        -11    1    3    3    0    0 -0.66866570067E+01  0.76144356246E+00 -0.30876586470E+01  0.74043780567E+01  0.51100000000E-03 0.  1.
        -12    1    3    3    0    0  0.21477822504E+01  0.36107412759E+02 -0.23553294534E+01  0.36247838578E+02  0.00000000000E+00 0.  1.
</event>
<event>
 7    1  0.5479172E-013  0.5052880E+02  0.7816164E-02  0.1300439E+00
        -11   -1    0    0    0    0  0.00000000000E+00  0.00000000000E+00  0.45593999997E+02  0.45594000000E+02  0.51100000000E-03 0.  1.
         11   -1    0    0    0    0 -0.00000000000E+00 -0.00000000000E+00 -0.45593999997E+02  0.45594000000E+02  0.51100000000E-03 0. -1.
    9900012    2    1    2    0    0 -0.20068980243E+02  0.31631161782E+02 -0.15807474249E+02  0.50528799247E+02  0.29999815792E+02 0.  0.
         12    1    1    2    0    0  0.20068980243E+02 -0.31631161782E+02  0.15807474249E+02  0.40659200753E+02  0.00000000000E+00 0. -1.
         11    1    3    3    0    0  0.28150604285E+01  0.74747891854E+00 -0.55266214857E+00  0.29645784964E+01  0.51100000000E-03 0. -1.
        -11    1    3    3    0    0 -0.18976066490E+02  0.30643347215E+02 -0.47516049231E+01  0.36354966340E+02  0.51100000000E-03 0.  1.
         12    1    3    3    0    0 -0.39079741816E+01  0.24033564831E+00 -0.10503207178E+02  0.11209254411E+02  0.00000000000E+00 0. -1.
</event>
<event>
 7    1  0.5479172E-013  0.5052885E+02  0.7816164E-02  0.1300439E+00
        -11   -1    0    0    0    0  0.00000000000E+00  0.00000000000E+00  0.45593999997E+02  0.45594000000E+02  0.51100000000E-03 0.  1.
         11   -1    0    0    0    0 -0.00000000000E+00 -0.00000000000E+00 -0.45593999997E+02  0.45594000000E+02  0.51100000000E-03 0. -1.
    9900012    2    1    2    0    0  0.14886061417E+02  0.37761538746E+02 -0.23744271635E+01  0.50528849279E+02  0.29999967869E+02 0.  0.
         12    1    1    2    0    0 -0.14886061417E+02 -0.37761538746E+02  0.23744271635E+01  0.40659150721E+02  0.00000000000E+00 0. -1.
         11    1    3    3    0    0 -0.43351927929E+01  0.24765896811E+01  0.29574916812E+01  0.58029432451E+01  0.51100000000E-03 0.  1.
        -11    1    3    3    0    0 -0.56442440442E+00  0.17197125839E+01 -0.54712676756E+01  0.57628774513E+01  0.51100000000E-03 0. -1.
         12    1    3    3    0    0  0.19785678614E+02  0.33565236481E+02  0.13934883087E+00  0.38963028583E+02  0.00000000000E+00 0. -1.
</event>
<event>
 7    1  0.5479172E-013  0.5052885E+02  0.7816164E-02  0.1300439E+00
        -11   -1    0    0    0    0  0.00000000000E+00  0.00000000000E+00  0.45593999997E+02  0.45594000000E+02  0.51100000000E-03 0. -1.
         11   -1    0    0    0    0 -0.00000000000E+00 -0.00000000000E+00 -0.45593999997E+02  0.45594000000E+02  0.51100000000E-03 0.  1.
    9900012    2    1    2    0    0 -0.27383894058E+02  0.29142794377E+02 -0.73475187467E+01  0.50528854047E+02  0.29999982360E+02 0.  0.
         12    1    1    2    0    0  0.27383894058E+02 -0.29142794377E+02  0.73475187467E+01  0.40659145953E+02  0.00000000000E+00 0. -1.
         11    1    3    3    0    0 -0.11244884833E+02  0.87883184101E+01 -0.10054478915E+01  0.14307092685E+02  0.51100000000E-03 0. -1.
        -11    1    3    3    0    0 -0.11451305018E+02  0.25529232955E+02 -0.78876830808E+01  0.29070425978E+02  0.51100000000E-03 0.  1.
         12    1    3    3    0    0 -0.46877042072E+01 -0.51747569876E+01  0.15456122257E+01  0.71513353835E+01  0.00000000000E+00 0. -1.
</event>
<event>
 7    1  0.5479172E-013  0.5052885E+02  0.7816164E-02  0.1300439E+00
        -11   -1    0    0    0    0  0.00000000000E+00  0.00000000000E+00  0.45593999997E+02  0.45594000000E+02  0.51100000000E-03 0.  1.
         11   -1    0    0    0    0 -0.00000000000E+00 -0.00000000000E+00 -0.45593999997E+02  0.45594000000E+02  0.51100000000E-03 0. -1.
    9900012    2    1    2    0    0 -0.30369752266E+02  0.13995523629E+02  0.23129419348E+02  0.50528848832E+02  0.29999966508E+02 0.  0.
         12    1    1    2    0    0  0.30369752266E+02 -0.13995523629E+02 -0.23129419348E+02  0.40659151168E+02  0.00000000000E+00 0. -1.
         11    1    3    3    0    0 -0.78558794217E+01 -0.31880523109E+01  0.10218777765E+02  0.13277874013E+02  0.51100000000E-03 0. -1.
        -11    1    3    3    0    0 -0.13256120333E+02  0.56808594092E+01  0.16641699470E+02  0.22021422557E+02  0.51100000000E-03 0.  1.
         12    1    3    3    0    0 -0.92577525114E+01  0.11502716531E+02 -0.37310578869E+01  0.15229552262E+02  0.00000000000E+00 0. -1.
</event>
<event>
 7    1  0.5479172E-013  0.5052884E+02  0.7816164E-02  0.1300439E+00
        -11   -1    0    0    0    0  0.00000000000E+00  0.00000000000E+00  0.45593999997E+02  0.45594000000E+02  0.51100000000E-03 0.  1.
         11   -1    0    0    0    0 -0.00000000000E+00 -0.00000000000E+00 -0.45593999997E+02  0.45594000000E+02  0.51100000000E-03 0. -1.
    9900012    2    1    2    0    0  0.17235831638E+02  0.34858796125E+02 -0.11872560859E+02  0.50528840381E+02  0.29999940823E+02 0.  0.
         12    1    1    2    0    0 -0.17235831638E+02 -0.34858796125E+02  0.11872560859E+02  0.40659159619E+02  0.00000000000E+00 0. -1.
         11    1    3    3    0    0  0.90337758302E+01  0.33278117341E+02 -0.82958923647E+01  0.35466378866E+02  0.51100000000E-03 0. -1.
        -11    1    3    3    0    0  0.40384963653E+01  0.67567851799E+01 -0.98970859447E+00  0.79336701609E+01  0.51100000000E-03 0.  1.
         12    1    3    3    0    0  0.41635594429E+01 -0.51761063956E+01 -0.25869598994E+01  0.71287913544E+01  0.00000000000E+00 0. -1.
</event>
<event>
 7    1  0.5479172E-013  0.5052889E+02  0.7816164E-02  0.1300439E+00
        -11   -1    0    0    0    0  0.00000000000E+00  0.00000000000E+00  0.45593999997E+02  0.45594000000E+02  0.51100000000E-03 0.  1.
         11   -1    0    0    0    0 -0.00000000000E+00 -0.00000000000E+00 -0.45593999997E+02  0.45594000000E+02  0.51100000000E-03 0. -1.
    9900012    2    1    2    0    0 -0.25954782503E+02  0.18318156834E+02  0.25376326893E+02  0.50528885755E+02  0.30000078742E+02 0.  0.
         12    1    1    2    0    0  0.25954782503E+02 -0.18318156834E+02 -0.25376326893E+02  0.40659114245E+02  0.00000000000E+00 0. -1.
         11    1    3    3    0    0 -0.15334561223E+01  0.10991410789E+02  0.88158993966E+01  0.14173308761E+02  0.51100000000E-03 0.  1.
        -11    1    3    3    0    0 -0.23488815038E+01  0.70224499621E+01  0.11549497987E+02  0.13719437008E+02  0.51100000000E-03 0. -1.
         12    1    3    3    0    0 -0.22072444876E+02  0.30429608338E+00  0.50109295093E+01  0.22636139986E+02  0.00000000000E+00 0. -1.
</event>
<event>
 7    1  0.5479172E-013  0.5052886E+02  0.7816164E-02  0.1300439E+00
        -11   -1    0    0    0    0  0.00000000000E+00  0.00000000000E+00  0.45593999997E+02  0.45594000000E+02  0.51100000000E-03 0.  1.
         11   -1    0    0    0    0 -0.00000000000E+00 -0.00000000000E+00 -0.45593999997E+02  0.45594000000E+02  0.51100000000E-03 0. -1.
    9900012    2    1    2    0    0  0.18899844239E+02 -0.54203327090E+01  0.35589064649E+02  0.50528860296E+02  0.30000001355E+02 0.  0.
         12    1    1    2    0    0 -0.18899844239E+02  0.54203327090E+01 -0.35589064649E+02  0.40659139704E+02  0.00000000000E+00 0. -1.
         11    1    3    3    0    0  0.20979880526E+00 -0.71353028440E+01  0.19767835887E+01  0.74070396132E+01  0.51100000000E-03 0. -1.
        -11    1    3    3    0    0  0.10464563417E+02 -0.79863261926E+01  0.10900983833E+02  0.17091516678E+02  0.51100000000E-03 0.  1.
        -12    1    3    3    0    0  0.82254820168E+01  0.97012963276E+01  0.22711297227E+02  0.26030304005E+02  0.00000000000E+00 0.  1.
</event>
<event>
 7    1  0.5479172E-013  0.5052887E+02  0.7816164E-02  0.1300439E+00
        -11   -1    0    0    0    0  0.00000000000E+00  0.00000000000E+00  0.45593999997E+02  0.45594000000E+02  0.51100000000E-03 0.  1.
         11   -1    0    0    0    0 -0.00000000000E+00 -0.00000000000E+00 -0.45593999997E+02  0.45594000000E+02  0.51100000000E-03 0. -1.
    9900012    2    1    2    0    0  0.17617384729E+02  0.21475789403E+02  0.29691469403E+02  0.50528866580E+02  0.30000020456E+02 0.  0.
         12    1    1    2    0    0 -0.17617384729E+02 -0.21475789403E+02 -0.29691469403E+02  0.40659133420E+02  0.00000000000E+00 0. -1.
         11    1    3    3    0    0  0.93360747014E+00 -0.42768966808E+00 -0.10233080043E+00  0.10319947744E+01  0.51100000000E-03 0. -1.
        -11    1    3    3    0    0  0.17164245273E+02  0.25350426409E+02  0.32821986401E+02  0.44883607548E+02  0.51100000000E-03 0.  1.
         12    1    3    3    0    0 -0.48046801368E+00 -0.34469473375E+01 -0.30281861983E+01  0.46132642577E+01  0.00000000000E+00 0. -1.
</event>
<event>
 7    1  0.5479172E-013  0.5052885E+02  0.7816164E-02  0.1300439E+00
        -11   -1    0    0    0    0  0.00000000000E+00  0.00000000000E+00  0.45593999997E+02  0.45594000000E+02  0.51100000000E-03 0.  1.
         11   -1    0    0    0    0 -0.00000000000E+00 -0.00000000000E+00 -0.45593999997E+02  0.45594000000E+02  0.51100000000E-03 0. -1.
    9900012    2    1    2    0    0 -0.15995595142E+02  0.36769446237E+02 -0.67316379347E+01  0.50528853553E+02  0.29999980859E+02 0.  0.
         12    1    1    2    0    0  0.15995595142E+02 -0.36769446237E+02  0.67316379347E+01  0.40659146447E+02  0.00000000000E+00 0. -1.
         11    1    3    3    0    0 -0.13036633912E+02  0.60346773103E+01 -0.93626219144E+00  0.14396101596E+02  0.51100000000E-03 0. -1.
        -11    1    3    3    0    0 -0.75294806391E+01  0.72610328121E+01  0.26155041365E+01  0.10782232531E+02  0.51100000000E-03 0.  1.
         12    1    3    3    0    0  0.45705194095E+01  0.23473736115E+02 -0.84108798798E+01  0.25350519427E+02  0.00000000000E+00 0. -1.
</event>
<event>
 7    1  0.5479172E-013  0.5052887E+02  0.7816164E-02  0.1300439E+00
        -11   -1    0    0    0    0  0.00000000000E+00  0.00000000000E+00  0.45593999997E+02  0.45594000000E+02  0.51100000000E-03 0. -1.
         11   -1    0    0    0    0 -0.00000000000E+00 -0.00000000000E+00 -0.45593999997E+02  0.45594000000E+02  0.51100000000E-03 0.  1.
    9900012    2    1    2    0    0 -0.79344640238E+01  0.39800327196E+02 -0.24784650940E+01  0.50528873675E+02  0.30000042023E+02 0.  0.
         12    1    1    2    0    0  0.79344640238E+01 -0.39800327196E+02  0.24784650940E+01  0.40659126325E+02  0.00000000000E+00 0. -1.
         11    1    3    3    0    0 -0.20236744288E+01 -0.62588310102E+00 -0.71134580034E+00  0.22345023962E+01  0.51100000000E-03 0. -1.
        -11    1    3    3    0    0  0.45663602603E+01  0.35582838061E+02  0.25637568714E+01  0.35966134906E+02  0.51100000000E-03 0.  1.
         12    1    3    3    0    0 -0.10477149855E+02  0.48433722362E+01 -0.43308761651E+01  0.12328236373E+02  0.00000000000E+00 0. -1.
</event>
<event>
 7    1  0.5479172E-013  0.5052889E+02  0.7816164E-02  0.1300439E+00
        -11   -1    0    0    0    0  0.00000000000E+00  0.00000000000E+00  0.45593999997E+02  0.45594000000E+02  0.51100000000E-03 0.  1.
         11   -1    0    0    0    0 -0.00000000000E+00 -0.00000000000E+00 -0.45593999997E+02  0.45594000000E+02  0.51100000000E-03 0. -1.
    9900012    2    1    2    0    0 -0.26774291064E+02  0.96593641521E+01  0.29034421699E+02  0.50528885140E+02  0.30000076870E+02 0.  0.
         12    1    1    2    0    0  0.26774291064E+02 -0.96593641521E+01 -0.29034421699E+02  0.40659114860E+02  0.00000000000E+00 0. -1.
         11    1    3    3    0    0 -0.23655849357E+02  0.17903199182E+01  0.80980645606E+01  0.25067570766E+02  0.51100000000E-03 0.  1.
        -11    1    3    3    0    0  0.13490585903E+01 -0.24981011168E+01  0.68123201275E+01  0.73802556900E+01  0.51100000000E-03 0. -1.
        -12    1    3    3    0    0 -0.44675002973E+01  0.10367145351E+02  0.14124037011E+02  0.18081058684E+02  0.00000000000E+00 0.  1.
</event>
<event>
 7    1  0.5479172E-013  0.5052884E+02  0.7816164E-02  0.1300439E+00
        -11   -1    0    0    0    0  0.00000000000E+00  0.00000000000E+00  0.45593999997E+02  0.45594000000E+02  0.51100000000E-03 0.  1.
         11   -1    0    0    0    0 -0.00000000000E+00 -0.00000000000E+00 -0.45593999997E+02  0.45594000000E+02  0.51100000000E-03 0. -1.
    9900012    2    1    2    0    0 -0.10526296363E+02 -0.13474667235E+02  0.36888988303E+02  0.50528843217E+02  0.29999949444E+02 0.  0.
         12    1    1    2    0    0  0.10526296363E+02  0.13474667235E+02 -0.36888988303E+02  0.40659156783E+02  0.00000000000E+00 0. -1.
         11    1    3    3    0    0 -0.59965045440E+01  0.31385784381E+01  0.70286944373E+01  0.97576271251E+01  0.51100000000E-03 0. -1.
        -11    1    3    3    0    0 -0.80641212518E+01 -0.40617388248E+01  0.97834637988E+00  0.90821217645E+01  0.51100000000E-03 0.  1.
         12    1    3    3    0    0  0.35343294333E+01 -0.12551506849E+02  0.28881947486E+02  0.31689094328E+02  0.00000000000E+00 0. -1.
</event>
<event>
 7    1  0.5479172E-013  0.5052887E+02  0.7816164E-02  0.1300439E+00
        -11   -1    0    0    0    0  0.00000000000E+00  0.00000000000E+00  0.45593999997E+02  0.45594000000E+02  0.51100000000E-03 0.  1.
         11   -1    0    0    0    0 -0.00000000000E+00 -0.00000000000E+00 -0.45593999997E+02  0.45594000000E+02  0.51100000000E-03 0. -1.
    9900012    2    1    2    0    0  0.33214148017E+02  0.10437333988E+02  0.21001134559E+02  0.50528865454E+02  0.30000017033E+02 0.  0.
         12    1    1    2    0    0 -0.33214148017E+02 -0.10437333988E+02 -0.21001134559E+02  0.40659134546E+02  0.00000000000E+00 0. -1.
         11    1    3    3    0    0  0.21117750040E+02  0.10518698852E+02  0.15729457968E+02  0.28355215402E+02  0.51100000000E-03 0.  1.
        -11    1    3    3    0    0  0.70170376276E+01  0.71280775710E+01 -0.26192682419E+01  0.10339674720E+02  0.51100000000E-03 0. -1.
         12    1    3    3    0    0  0.50793603499E+01 -0.72094424355E+01  0.78909448337E+01  0.11833975332E+02  0.00000000000E+00 0. -1.
</event>
<event>
 7    1  0.5479172E-013  0.5052886E+02  0.7816164E-02  0.1300439E+00
        -11   -1    0    0    0    0  0.00000000000E+00  0.00000000000E+00  0.45593999997E+02  0.45594000000E+02  0.51100000000E-03 0. -1.
         11   -1    0    0    0    0 -0.00000000000E+00 -0.00000000000E+00 -0.45593999997E+02  0.45594000000E+02  0.51100000000E-03 0.  1.
    9900012    2    1    2    0    0 -0.50750053794E+01  0.36300538031E+02 -0.17597760362E+02  0.50528856985E+02  0.29999991293E+02 0.  0.
         12    1    1    2    0    0  0.50750053794E+01 -0.36300538031E+02  0.17597760362E+02  0.40659143015E+02  0.00000000000E+00 0. -1.
         11    1    3    3    0    0  0.51999006705E+01  0.37388851085E+01  0.31355167039E+01  0.71308971455E+01  0.51100000000E-03 0. -1.
        -11    1    3    3    0    0  0.29526466352E+01  0.25142769659E+01  0.10261826116E+01  0.40115784707E+01  0.51100000000E-03 0.  1.
        -12    1    3    3    0    0 -0.13227552685E+02  0.30047375956E+02 -0.21759459678E+02  0.39386381369E+02  0.00000000000E+00 0.  1.
</event>
<event>
 7    1  0.5479172E-013  0.5052886E+02  0.7816164E-02  0.1300439E+00
        -11   -1    0    0    0    0  0.00000000000E+00  0.00000000000E+00  0.45593999997E+02  0.45594000000E+02  0.51100000000E-03 0.  1.
         11   -1    0    0    0    0 -0.00000000000E+00 -0.00000000000E+00 -0.45593999997E+02  0.45594000000E+02  0.51100000000E-03 0. -1.
    9900012    2    1    2    0    0 -0.43652925224E+01  0.26914633622E+02  0.30161432470E+02  0.50528864612E+02  0.30000014475E+02 0.  0.
         12    1    1    2    0    0  0.43652925224E+01 -0.26914633622E+02 -0.30161432470E+02  0.40659135388E+02  0.00000000000E+00 0. -1.
         11    1    3    3    0    0 -0.52749713958E+01  0.67063592968E+01  0.14298137933E+02  0.16650445245E+02  0.51100000000E-03 0.  1.
        -11    1    3    3    0    0 -0.24861900942E+01  0.16305388127E+02  0.20922746981E+02  0.26642225220E+02  0.51100000000E-03 0. -1.
         12    1    3    3    0    0  0.33958689676E+01  0.39028861981E+01 -0.50594524433E+01  0.72361941479E+01  0.00000000000E+00 0. -1.
</event>
<event>
 7    1  0.5479172E-013  0.5052887E+02  0.7816164E-02  0.1300439E+00
        -11   -1    0    0    0    0  0.00000000000E+00  0.00000000000E+00  0.45593999997E+02  0.45594000000E+02  0.51100000000E-03 0.  1.
         11   -1    0    0    0    0 -0.00000000000E+00 -0.00000000000E+00 -0.45593999997E+02  0.45594000000E+02  0.51100000000E-03 0. -1.
    9900012    2    1    2    0    0  0.23960316417E+02 -0.18519694018E+02  0.27130962071E+02  0.50528869018E+02  0.30000027866E+02 0.  0.
         12    1    1    2    0    0 -0.23960316417E+02  0.18519694018E+02 -0.27130962071E+02  0.40659130982E+02  0.00000000000E+00 0. -1.
         11    1    3    3    0    0  0.18029196758E+02 -0.88734551955E+01  0.10525221998E+02  0.22684145151E+02  0.51100000000E-03 0. -1.
        -11    1    3    3    0    0  0.11341171287E+02 -0.35915365616E+01  0.15665998059E+02  0.19670912447E+02  0.51100000000E-03 0.  1.
         12    1    3    3    0    0 -0.54100516278E+01 -0.60547022612E+01  0.93974201372E+00  0.81738114205E+01  0.00000000000E+00 0. -1.
</event>
<event>
 7    1  0.5479172E-013  0.5052886E+02  0.7816164E-02  0.1300439E+00
        -11   -1    0    0    0    0  0.00000000000E+00  0.00000000000E+00  0.45593999997E+02  0.45594000000E+02  0.51100000000E-03 0. -1.
         11   -1    0    0    0    0 -0.00000000000E+00 -0.00000000000E+00 -0.45593999997E+02  0.45594000000E+02  0.51100000000E-03 0.  1.
    9900012    2    1    2    0    0  0.25453985265E+02 -0.17451451100E+02 -0.26470870115E+02  0.50528862331E+02  0.30000007540E+02 0.  0.
         12    1    1    2    0    0 -0.25453985265E+02  0.17451451100E+02  0.26470870115E+02  0.40659137669E+02  0.00000000000E+00 0. -1.
         11    1    3    3    0    0 -0.13930717840E+01  0.20493020695E+01  0.40251603965E+01  0.47267541132E+01  0.51100000000E-03 0. -1.
        -11    1    3    3    0    0  0.15156107367E+01 -0.42110784709E+01 -0.28346703200E+01  0.52976989229E+01  0.51100000000E-03 0.  1.
         12    1    3    3    0    0  0.25331446313E+02 -0.15289674698E+02 -0.27661360191E+02  0.40504409295E+02  0.00000000000E+00 0. -1.
</event>
<event>
 7    1  0.5479172E-013  0.5052886E+02  0.7816164E-02  0.1300439E+00
        -11   -1    0    0    0    0  0.00000000000E+00  0.00000000000E+00  0.45593999997E+02  0.45594000000E+02  0.51100000000E-03 0. -1.
         11   -1    0    0    0    0 -0.00000000000E+00 -0.00000000000E+00 -0.45593999997E+02  0.45594000000E+02  0.51100000000E-03 0.  1.
    9900012    2    1    2    0    0  0.13786010284E+02 -0.19476753713E+02 -0.32920622748E+02  0.50528863058E+02  0.30000009750E+02 0.  0.
         12    1    1    2    0    0 -0.13786010284E+02  0.19476753713E+02  0.32920622748E+02  0.40659136942E+02  0.00000000000E+00 0. -1.
         11    1    3    3    0    0  0.25755793610E+01  0.40091193034E+01 -0.74206737854E+01  0.88189027846E+01  0.51100000000E-03 0. -1.
        -11    1    3    3    0    0  0.98863173565E+01 -0.31944058928E+01 -0.16441229025E+02  0.19448843462E+02  0.51100000000E-03 0.  1.
         12    1    3    3    0    0  0.13241135670E+01 -0.20291467124E+02 -0.90587199379E+01  0.22261116811E+02  0.00000000000E+00 0. -1.
</event>
<event>
 7    1  0.5479172E-013  0.5052887E+02  0.7816164E-02  0.1300439E+00
        -11   -1    0    0    0    0  0.00000000000E+00  0.00000000000E+00  0.45593999997E+02  0.45594000000E+02  0.51100000000E-03 0. -1.
         11   -1    0    0    0    0 -0.00000000000E+00 -0.00000000000E+00 -0.45593999997E+02  0.45594000000E+02  0.51100000000E-03 0.  1.
    9900012    2    1    2    0    0  0.17983088577E+02  0.35203609414E+02 -0.95120411864E+01  0.50528874111E+02  0.30000043348E+02 0.  0.
         12    1    1    2    0    0 -0.17983088577E+02 -0.35203609414E+02  0.95120411864E+01  0.40659125889E+02  0.00000000000E+00 0. -1.
         11    1    3    3    0    0  0.34371938564E+01 -0.26425567299E+01 -0.65390802853E+00  0.43846326697E+01  0.51100000000E-03 0. -1.
        -11    1    3    3    0    0  0.93731761613E+01  0.31022264055E+01  0.17394019805E+00  0.98747402739E+01  0.51100000000E-03 0.  1.
        -12    1    3    3    0    0  0.51727185593E+01  0.34743939738E+02 -0.90320733560E+01  0.36269501167E+02  0.00000000000E+00 0.  1.
</event>
<event>
 7    1  0.5479172E-013  0.5052886E+02  0.7816164E-02  0.1300439E+00
        -11   -1    0    0    0    0  0.00000000000E+00  0.00000000000E+00  0.45593999997E+02  0.45594000000E+02  0.51100000000E-03 0. -1.
         11   -1    0    0    0    0 -0.00000000000E+00 -0.00000000000E+00 -0.45593999997E+02  0.45594000000E+02  0.51100000000E-03 0.  1.
    9900012    2    1    2    0    0  0.51690511422E+01  0.37719799332E+02 -0.14271073393E+02  0.50528857275E+02  0.29999992172E+02 0.  0.
         12    1    1    2    0    0 -0.51690511422E+01 -0.37719799332E+02  0.14271073393E+02  0.40659142725E+02  0.00000000000E+00 0. -1.
         11    1    3    3    0    0  0.23567075000E+01  0.81136867291E+00 -0.43635424469E+01  0.50252255980E+01  0.51100000000E-03 0. -1.
        -11    1    3    3    0    0  0.20962712610E+01  0.22223905558E+02 -0.18041307466E+02  0.28701656865E+02  0.51100000000E-03 0.  1.
         12    1    3    3    0    0  0.71607238123E+00  0.14684525101E+02  0.81337765196E+01  0.16801974812E+02  0.00000000000E+00 0. -1.
</event>
<event>
 7    1  0.5479172E-013  0.5052887E+02  0.7816164E-02  0.1300439E+00
        -11   -1    0    0    0    0  0.00000000000E+00  0.00000000000E+00  0.45593999997E+02  0.45594000000E+02  0.51100000000E-03 0.  1.
         11   -1    0    0    0    0 -0.00000000000E+00 -0.00000000000E+00 -0.45593999997E+02  0.45594000000E+02  0.51100000000E-03 0. -1.
    9900012    2    1    2    0    0 -0.32380279160E+02 -0.11434134037E+02  0.21770239558E+02  0.50528865356E+02  0.30000016735E+02 0.  0.
         12    1    1    2    0    0  0.32380279160E+02  0.11434134037E+02 -0.21770239558E+02  0.40659134644E+02  0.00000000000E+00 0. -1.
         11    1    3    3    0    0  0.32500014284E+01 -0.20138778768E+01  0.11572790349E+02  0.12188014198E+02  0.51100000000E-03 0. -1.
        -11    1    3    3    0    0 -0.28645734225E+01 -0.15710755447E+01  0.89088673865E+00  0.33864049821E+01  0.51100000000E-03 0.  1.
         12    1    3    3    0    0 -0.32765707165E+02 -0.78491806153E+01  0.93065624705E+01  0.34954446175E+02  0.00000000000E+00 0. -1.
</event>
<event>
 7    1  0.5479172E-013  0.5052886E+02  0.7816164E-02  0.1300439E+00
        -11   -1    0    0    0    0  0.00000000000E+00  0.00000000000E+00  0.45593999997E+02  0.45594000000E+02  0.51100000000E-03 0.  1.
         11   -1    0    0    0    0 -0.00000000000E+00 -0.00000000000E+00 -0.45593999997E+02  0.45594000000E+02  0.51100000000E-03 0. -1.
    9900012    2    1    2    0    0  0.98525314591E+01 -0.33597595637E+02  0.20671118639E+02  0.50528856446E+02  0.29999989654E+02 0.  0.
         12    1    1    2    0    0 -0.98525314591E+01  0.33597595637E+02 -0.20671118639E+02  0.40659143554E+02  0.00000000000E+00 0. -1.
         11    1    3    3    0    0  0.84901943287E+01 -0.37534302305E+01 -0.29381081134E+01  0.97367406139E+01  0.51100000000E-03 0. -1.
        -11    1    3    3    0    0  0.52395814226E+01 -0.43148300874E+01  0.18777904957E+01  0.70425186954E+01  0.51100000000E-03 0.  1.
         12    1    3    3    0    0 -0.38772442922E+01 -0.25529335319E+02  0.21731436257E+02  0.33749597137E+02  0.00000000000E+00 0. -1.
</event>
<event>
 7    1  0.5479172E-013  0.5052886E+02  0.7816164E-02  0.1300439E+00
        -11   -1    0    0    0    0  0.00000000000E+00  0.00000000000E+00  0.45593999997E+02  0.45594000000E+02  0.51100000000E-03 0.  1.
         11   -1    0    0    0    0 -0.00000000000E+00 -0.00000000000E+00 -0.45593999997E+02  0.45594000000E+02  0.51100000000E-03 0. -1.
    9900012    2    1    2    0    0  0.31716028227E+02 -0.75518504787E+01 -0.24294629696E+02  0.50528856819E+02  0.29999990786E+02 0.  0.
         12    1    1    2    0    0 -0.31716028227E+02  0.75518504787E+01  0.24294629696E+02  0.40659143181E+02  0.00000000000E+00 0. -1.
         11    1    3    3    0    0  0.82701195883E+01  0.19122280745E+01 -0.18668925574E+01  0.86911899240E+01  0.51100000000E-03 0. -1.
        -11    1    3    3    0    0  0.24018891627E+02 -0.98188372164E+01 -0.76611115905E+01  0.27055671316E+02  0.51100000000E-03 0.  1.
         12    1    3    3    0    0 -0.57298298803E+00  0.35475866320E+00 -0.14766625548E+02  0.14781995579E+02  0.00000000000E+00 0. -1.
</event>
<event>
 7    1  0.5479172E-013  0.5052886E+02  0.7816164E-02  0.1300439E+00
        -11   -1    0    0    0    0  0.00000000000E+00  0.00000000000E+00  0.45593999997E+02  0.45594000000E+02  0.51100000000E-03 0. -1.
         11   -1    0    0    0    0 -0.00000000000E+00 -0.00000000000E+00 -0.45593999997E+02  0.45594000000E+02  0.51100000000E-03 0.  1.
    9900012    2    1    2    0    0 -0.11164476064E+02 -0.37120027153E+02 -0.12272887304E+02  0.50528859522E+02  0.29999999004E+02 0.  0.
         12    1    1    2    0    0  0.11164476064E+02  0.37120027153E+02  0.12272887304E+02  0.40659140478E+02  0.00000000000E+00 0. -1.
         11    1    3    3    0    0  0.43102769995E+01 -0.15659684415E+02 -0.78607379632E+00  0.16261061345E+02  0.51100000000E-03 0. -1.
        -11    1    3    3    0    0 -0.37790978357E+01 -0.16477130995E+02  0.33406018897E+00  0.16908253096E+02  0.51100000000E-03 0.  1.
         12    1    3    3    0    0 -0.11695655228E+02 -0.49832117425E+01 -0.11820873697E+02  0.17359545082E+02  0.00000000000E+00 0. -1.
</event>
<event>
 7    1  0.5479172E-013  0.5052888E+02  0.7816164E-02  0.1300439E+00
        -11   -1    0    0    0    0  0.00000000000E+00  0.00000000000E+00  0.45593999997E+02  0.45594000000E+02  0.51100000000E-03 0.  1.
         11   -1    0    0    0    0 -0.00000000000E+00 -0.00000000000E+00 -0.45593999997E+02  0.45594000000E+02  0.51100000000E-03 0. -1.
    9900012    2    1    2    0    0  0.20126017894E+02  0.25788527890E+02  0.24146621191E+02  0.50528879474E+02  0.30000059650E+02 0.  0.
         12    1    1    2    0    0 -0.20126017894E+02 -0.25788527890E+02 -0.24146621191E+02  0.40659120526E+02  0.00000000000E+00 0. -1.
         11    1    3    3    0    0 -0.13311718546E+01  0.14259750230E+01 -0.32597789474E+01  0.37988922490E+01  0.51100000000E-03 0. -1.
        -11    1    3    3    0    0 -0.23848713587E+01 -0.13330036823E+01  0.13124031023E+01  0.30309919793E+01  0.51100000000E-03 0.  1.
        -12    1    3    3    0    0  0.23842061107E+02  0.25695556549E+02  0.26093997036E+02  0.43698995246E+02  0.00000000000E+00 0.  1.
</event>
<event>
 7    1  0.5610415E-013  0.5052886E+02  0.7816164E-02  0.1300439E+00
        -11   -1    0    0    0    0  0.00000000000E+00  0.00000000000E+00  0.45593999997E+02  0.45594000000E+02  0.51100000000E-03 0. -1.
         11   -1    0    0    0    0 -0.00000000000E+00 -0.00000000000E+00 -0.45593999997E+02  0.45594000000E+02  0.51100000000E-03 0.  1.
    9900012    2    1    2    0    0 -0.73580783396E+00  0.45755279976E+00 -0.40649902958E+02  0.50528863534E+02  0.30000011197E+02 0.  0.
         12    1    1    2    0    0  0.73580783396E+00 -0.45755279976E+00  0.40649902958E+02  0.40659136466E+02  0.00000000000E+00 0. -1.
         11    1    3    3    0    0  0.74937445068E+01  0.67539635243E+01 -0.11123231624E+02  0.15016607874E+02  0.51100000000E-03 0.  1.
        -11    1    3    3    0    0  0.40842947631E+00 -0.91752428194E+01 -0.81568366434E+01  0.12283561361E+02  0.51100000000E-03 0. -1.
        -12    1    3    3    0    0 -0.86379818170E+01  0.28788320949E+01 -0.21369834690E+02  0.23228694298E+02  0.00000000000E+00 0.  1.
</event>
<event>
 7    1  0.5479172E-013  0.5052886E+02  0.7816164E-02  0.1300439E+00
        -11   -1    0    0    0    0  0.00000000000E+00  0.00000000000E+00  0.45593999997E+02  0.45594000000E+02  0.51100000000E-03 0. -1.
         11   -1    0    0    0    0 -0.00000000000E+00 -0.00000000000E+00 -0.45593999997E+02  0.45594000000E+02  0.51100000000E-03 0.  1.
    9900012    2    1    2    0    0  0.31819958326E+01 -0.10579079953E+02 -0.39129579709E+02  0.50528855416E+02  0.29999986521E+02 0.  0.
         12    1    1    2    0    0 -0.31819958326E+01  0.10579079953E+02  0.39129579709E+02  0.40659144584E+02  0.00000000000E+00 0. -1.
         11    1    3    3    0    0  0.20122107047E+01 -0.15678218658E+02 -0.18785807377E+02  0.24551213641E+02  0.51100000000E-03 0. -1.
        -11    1    3    3    0    0 -0.16801376701E+01 -0.51224381380E+01 -0.52326597347E+01  0.75128532015E+01  0.51100000000E-03 0.  1.
         12    1    3    3    0    0  0.28499227981E+01  0.10221576843E+02 -0.15111112597E+02  0.18464788573E+02  0.00000000000E+00 0. -1.
</event>
<event>
 7    1  0.5479172E-013  0.5052886E+02  0.7816164E-02  0.1300439E+00
        -11   -1    0    0    0    0  0.00000000000E+00  0.00000000000E+00  0.45593999997E+02  0.45594000000E+02  0.51100000000E-03 0.  1.
         11   -1    0    0    0    0 -0.00000000000E+00 -0.00000000000E+00 -0.45593999997E+02  0.45594000000E+02  0.51100000000E-03 0. -1.
    9900012    2    1    2    0    0  0.10533509889E+02 -0.30818732661E+02  0.24339608646E+02  0.50528860038E+02  0.30000000571E+02 0.  0.
         12    1    1    2    0    0 -0.10533509889E+02  0.30818732661E+02 -0.24339608646E+02  0.40659139962E+02  0.00000000000E+00 0. -1.
         11    1    3    3    0    0  0.39687429412E+00 -0.68952661221E+01 -0.15850667757E+01  0.70862289721E+01  0.51100000000E-03 0. -1.
        -11    1    3    3    0    0  0.99651213201E+01 -0.24117334600E+02  0.10680316592E+02  0.28196074796E+02  0.51100000000E-03 0.  1.
         12    1    3    3    0    0  0.17151427449E+00  0.19386806038E+00  0.15244358830E+02  0.15246556270E+02  0.00000000000E+00 0. -1.
</event>
<event>
 7    1  0.5479172E-013  0.5052886E+02  0.7816164E-02  0.1300439E+00
        -11   -1    0    0    0    0  0.00000000000E+00  0.00000000000E+00  0.45593999997E+02  0.45594000000E+02  0.51100000000E-03 0.  1.
         11   -1    0    0    0    0 -0.00000000000E+00 -0.00000000000E+00 -0.45593999997E+02  0.45594000000E+02  0.51100000000E-03 0. -1.
    9900012    2    1    2    0    0 -0.16109382946E+01 -0.25429311347E+01  0.40547550141E+02  0.50528862732E+02  0.30000008760E+02 0.  0.
         12    1    1    2    0    0  0.16109382946E+01  0.25429311347E+01 -0.40547550141E+02  0.40659137268E+02  0.00000000000E+00 0. -1.
         11    1    3    3    0    0 -0.52672578155E+01 -0.67379404225E+01  0.13292063812E+00  0.85534504259E+01  0.51100000000E-03 0. -1.
        -11    1    3    3    0    0 -0.30694346805E+01  0.29795804125E+01  0.11667881560E+02  0.12427340385E+02  0.51100000000E-03 0.  1.
        -12    1    3    3    0    0  0.67257542014E+01  0.12154288752E+01  0.28746747943E+02  0.29548071921E+02  0.00000000000E+00 0.  1.
</event>
<event>
 7    1  0.5479172E-013  0.5052886E+02  0.7816164E-02  0.1300439E+00
        -11   -1    0    0    0    0  0.00000000000E+00  0.00000000000E+00  0.45593999997E+02  0.45594000000E+02  0.51100000000E-03 0.  1.
         11   -1    0    0    0    0 -0.00000000000E+00 -0.00000000000E+00 -0.45593999997E+02  0.45594000000E+02  0.51100000000E-03 0. -1.
    9900012    2    1    2    0    0 -0.11963500508E+02  0.18431926948E+02  0.34209710289E+02  0.50528861378E+02  0.30000004646E+02 0.  0.
         12    1    1    2    0    0  0.11963500508E+02 -0.18431926948E+02 -0.34209710289E+02  0.40659138622E+02  0.00000000000E+00 0. -1.
         11    1    3    3    0    0 -0.18924151212E+01  0.11542949218E+02  0.17703237633E+02  0.21218518671E+02  0.51100000000E-03 0. -1.
        -11    1    3    3    0    0 -0.15985884449E+01  0.13318617021E+02  0.10916844544E+02  0.17295043782E+02  0.51100000000E-03 0.  1.
         12    1    3    3    0    0 -0.84724969422E+01 -0.64296392907E+01  0.55896281118E+01  0.12015298926E+02  0.00000000000E+00 0. -1.
</event>
<event>
 7    1  0.6814912E-013  0.5052886E+02  0.7816164E-02  0.1300439E+00
        -11   -1    0    0    0    0  0.00000000000E+00  0.00000000000E+00  0.45593999997E+02  0.45594000000E+02  0.51100000000E-03 0. -1.
         11   -1    0    0    0    0 -0.00000000000E+00 -0.00000000000E+00 -0.45593999997E+02  0.45594000000E+02  0.51100000000E-03 0.  1.
    9900012    2    1    2    0    0  0.26534401445E+02 -0.20077195366E+02 -0.23366594759E+02  0.50528856079E+02  0.29999988536E+02 0.  0.
         12    1    1    2    0    0 -0.26534401445E+02  0.20077195366E+02  0.23366594759E+02  0.40659143921E+02  0.00000000000E+00 0. -1.
         11    1    3    3    0    0 -0.26834902954E+01 -0.59257430555E+01  0.19788979142E+01  0.67993814529E+01  0.51100000000E-03 0. -1.
        -11    1    3    3    0    0  0.12034065012E+02 -0.84558237047E+01 -0.30688800528E+01  0.15024569887E+02  0.51100000000E-03 0.  1.
        -12    1    3    3    0    0  0.17183826728E+02 -0.56956286056E+01 -0.22276612620E+02  0.28704904739E+02  0.00000000000E+00 0.  1.
</event>
<event>
 7    1  0.5479172E-013  0.5052886E+02  0.7816164E-02  0.1300439E+00
        -11   -1    0    0    0    0  0.00000000000E+00  0.00000000000E+00  0.45593999997E+02  0.45594000000E+02  0.51100000000E-03 0.  1.
         11   -1    0    0    0    0 -0.00000000000E+00 -0.00000000000E+00 -0.45593999997E+02  0.45594000000E+02  0.51100000000E-03 0. -1.
    9900012    2    1    2    0    0  0.14337064265E+02 -0.35675852329E+02  0.13222993562E+02  0.50528863144E+02  0.30000010013E+02 0.  0.
         12    1    1    2    0    0 -0.14337064265E+02  0.35675852329E+02 -0.13222993562E+02  0.40659136856E+02  0.00000000000E+00 0. -1.
         11    1    3    3    0    0  0.74712310380E+00 -0.74733183016E+00  0.20825427575E+01  0.23353120551E+01  0.51100000000E-03 0. -1.
        -11    1    3    3    0    0  0.18973937580E+02 -0.29890872150E+02  0.16517455140E+02  0.39067900760E+02  0.51100000000E-03 0.  1.
         12    1    3    3    0    0 -0.53839964187E+01 -0.50376483480E+01 -0.53770043353E+01  0.91256503295E+01  0.00000000000E+00 0. -1.
</event>
<event>
 7    1  0.5479172E-013  0.5052887E+02  0.7816164E-02  0.1300439E+00
        -11   -1    0    0    0    0  0.00000000000E+00  0.00000000000E+00  0.45593999997E+02  0.45594000000E+02  0.51100000000E-03 0.  1.
         11   -1    0    0    0    0 -0.00000000000E+00 -0.00000000000E+00 -0.45593999997E+02  0.45594000000E+02  0.51100000000E-03 0. -1.
    9900012    2    1    2    0    0 -0.12037079900E+02  0.34686428491E+02  0.17467843644E+02  0.50528866026E+02  0.30000018772E+02 0.  0.
         12    1    1    2    0    0  0.12037079900E+02 -0.34686428491E+02 -0.17467843644E+02  0.40659133974E+02  0.00000000000E+00 0. -1.
         11    1    3    3    0    0 -0.43166195746E+01  0.64637260579E+01  0.94093254681E+01  0.12204440386E+02  0.51100000000E-03 0. -1.
        -11    1    3    3    0    0 -0.10441477061E+02  0.19040945604E+02  0.15089707917E+02  0.26443928188E+02  0.51100000000E-03 0.  1.
         12    1    3    3    0    0  0.27210167362E+01  0.91817568288E+01 -0.70311897408E+01  0.11880497452E+02  0.00000000000E+00 0. -1.
</event>
<event>
 7    1  0.5479172E-013  0.5052886E+02  0.7816164E-02  0.1300439E+00
        -11   -1    0    0    0    0  0.00000000000E+00  0.00000000000E+00  0.45593999997E+02  0.45594000000E+02  0.51100000000E-03 0. -1.
         11   -1    0    0    0    0 -0.00000000000E+00 -0.00000000000E+00 -0.45593999997E+02  0.45594000000E+02  0.51100000000E-03 0.  1.
    9900012    2    1    2    0    0 -0.12978647777E+02 -0.89501394145E+01 -0.37478201810E+02  0.50528857061E+02  0.29999991521E+02 0.  0.
         12    1    1    2    0    0  0.12978647777E+02  0.89501394145E+01  0.37478201810E+02  0.40659142939E+02  0.00000000000E+00 0. -1.
         11    1    3    3    0    0 -0.12781443315E+02 -0.12674090150E+01 -0.12086153389E+02  0.17636516743E+02  0.51100000000E-03 0. -1.
        -11    1    3    3    0    0 -0.82919325115E+01 -0.90730088436E+01 -0.11970478295E+02  0.17157155508E+02  0.51100000000E-03 0.  1.
        -12    1    3    3    0    0  0.80947280494E+01  0.13902784440E+01 -0.13421570127E+02  0.15735184810E+02  0.00000000000E+00 0.  1.
</event>
<event>
 7    1  0.5479172E-013  0.5052886E+02  0.7816164E-02  0.1300439E+00
        -11   -1    0    0    0    0  0.00000000000E+00  0.00000000000E+00  0.45593999997E+02  0.45594000000E+02  0.51100000000E-03 0.  1.
         11   -1    0    0    0    0 -0.00000000000E+00 -0.00000000000E+00 -0.45593999997E+02  0.45594000000E+02  0.51100000000E-03 0. -1.
    9900012    2    1    2    0    0  0.20179515554E+02 -0.89489742846E+01  0.34144818811E+02  0.50528860309E+02  0.30000001397E+02 0.  0.
         12    1    1    2    0    0 -0.20179515554E+02  0.89489742846E+01 -0.34144818811E+02  0.40659139691E+02  0.00000000000E+00 0. -1.
         11    1    3    3    0    0  0.50414606413E+01  0.10734153746E+02  0.10562066300E+02  0.15880668337E+02  0.51100000000E-03 0.  1.
        -11    1    3    3    0    0  0.44889979013E+01 -0.79374024087E+01  0.57205705261E+01  0.10764682372E+02  0.51100000000E-03 0. -1.
        -12    1    3    3    0    0  0.10649057012E+02 -0.11745725622E+02  0.17862181985E+02  0.23883509601E+02  0.00000000000E+00 0.  1.
</event>
<event>
 7    1  0.5479172E-013  0.5052885E+02  0.7816164E-02  0.1300439E+00
        -11   -1    0    0    0    0  0.00000000000E+00  0.00000000000E+00  0.45593999997E+02  0.45594000000E+02  0.51100000000E-03 0.  1.
         11   -1    0    0    0    0 -0.00000000000E+00 -0.00000000000E+00 -0.45593999997E+02  0.45594000000E+02  0.51100000000E-03 0. -1.
    9900012    2    1    2    0    0  0.36065860537E+02  0.11034548386E+02  0.15187447765E+02  0.50528854363E+02  0.29999983321E+02 0.  0.
         12    1    1    2    0    0 -0.36065860537E+02 -0.11034548386E+02 -0.15187447765E+02  0.40659145637E+02  0.00000000000E+00 0. -1.
         11    1    3    3    0    0  0.10220003986E+02  0.91231228033E+01  0.11249885918E+02  0.17726809769E+02  0.51100000000E-03 0. -1.
        -11    1    3    3    0    0  0.16396956012E+02  0.10007216760E+02  0.61377182798E+01  0.20166212824E+02  0.51100000000E-03 0.  1.
         12    1    3    3    0    0  0.94489005382E+01 -0.80957911769E+01 -0.22001564326E+01  0.12635831769E+02  0.00000000000E+00 0. -1.
</event>
<event>
 7    1  0.5479172E-013  0.5052887E+02  0.7816164E-02  0.1300439E+00
        -11   -1    0    0    0    0  0.00000000000E+00  0.00000000000E+00  0.45593999997E+02  0.45594000000E+02  0.51100000000E-03 0.  1.
         11   -1    0    0    0    0 -0.00000000000E+00 -0.00000000000E+00 -0.45593999997E+02  0.45594000000E+02  0.51100000000E-03 0. -1.
    9900012    2    1    2    0    0  0.18409463863E+02  0.26256668094E+02  0.24996878797E+02  0.50528869061E+02  0.30000027998E+02 0.  0.
         12    1    1    2    0    0 -0.18409463863E+02 -0.26256668094E+02 -0.24996878797E+02  0.40659130939E+02  0.00000000000E+00 0. -1.
         11    1    3    3    0    0  0.10961168292E+02  0.97758204567E+01 -0.29749570075E+01  0.14985467806E+02  0.51100000000E-03 0. -1.
        -11    1    3    3    0    0 -0.14478812812E+01  0.16494530982E+01 -0.48076133991E+00  0.22468171832E+01  0.51100000000E-03 0.  1.
        -12    1    3    3    0    0  0.88961768523E+01  0.14831394539E+02  0.28452597145E+02  0.33296584072E+02  0.00000000000E+00 0.  1.
</event>
<event>
 7    1  0.5479172E-013  0.5052886E+02  0.7816164E-02  0.1300439E+00
        -11   -1    0    0    0    0  0.00000000000E+00  0.00000000000E+00  0.45593999997E+02  0.45594000000E+02  0.51100000000E-03 0.  1.
         11   -1    0    0    0    0 -0.00000000000E+00 -0.00000000000E+00 -0.45593999997E+02  0.45594000000E+02  0.51100000000E-03 0. -1.
    9900012    2    1    2    0    0  0.26483359150E+02 -0.26249505785E+02  0.16209906681E+02  0.50528856620E+02  0.29999990181E+02 0.  0.
         12    1    1    2    0    0 -0.26483359150E+02  0.26249505785E+02 -0.16209906681E+02  0.40659143380E+02  0.00000000000E+00 0. -1.
         11    1    3    3    0    0  0.24720032027E+01 -0.59680841519E+01  0.19885655323E+01  0.67589364116E+01  0.51100000000E-03 0. -1.
        -11    1    3    3    0    0  0.10497652880E+02 -0.80575280959E+01  0.20582330412E+02  0.24469507565E+02  0.51100000000E-03 0.  1.
         12    1    3    3    0    0  0.13513703067E+02 -0.12223893537E+02 -0.63609892633E+01  0.19300412643E+02  0.00000000000E+00 0. -1.
</event>
<event>
 7    1  0.5479172E-013  0.5052886E+02  0.7816164E-02  0.1300439E+00
        -11   -1    0    0    0    0  0.00000000000E+00  0.00000000000E+00  0.45593999997E+02  0.45594000000E+02  0.51100000000E-03 0.  1.
         11   -1    0    0    0    0 -0.00000000000E+00 -0.00000000000E+00 -0.45593999997E+02  0.45594000000E+02  0.51100000000E-03 0. -1.
    9900012    2    1    2    0    0  0.84807961341E+01  0.19401526045E+02  0.34710550832E+02  0.50528862589E+02  0.30000008325E+02 0.  0.
         12    1    1    2    0    0 -0.84807961341E+01 -0.19401526045E+02 -0.34710550832E+02  0.40659137411E+02  0.00000000000E+00 0. -1.
         11    1    3    3    0    0 -0.25933827177E+01 -0.22439849059E+01  0.13240910415E+02  0.13677821869E+02  0.51100000000E-03 0. -1.
        -11    1    3    3    0    0  0.62815639465E+01 -0.22033139331E-01  0.10157415602E+02  0.11942848196E+02  0.51100000000E-03 0.  1.
        -12    1    3    3    0    0  0.47926149053E+01  0.21667544090E+02  0.11312224815E+02  0.24908192524E+02  0.00000000000E+00 0.  1.
</event>
<event>
 7    1  0.5479172E-013  0.5052887E+02  0.7816164E-02  0.1300439E+00
        -11   -1    0    0    0    0  0.00000000000E+00  0.00000000000E+00  0.45593999997E+02  0.45594000000E+02  0.51100000000E-03 0.  1.
         11   -1    0    0    0    0 -0.00000000000E+00 -0.00000000000E+00 -0.45593999997E+02  0.45594000000E+02  0.51100000000E-03 0. -1.
    9900012    2    1    2    0    0 -0.20022429074E+02 -0.80485670341E+00  0.35378234768E+02  0.50528868730E+02  0.30000026990E+02 0.  0.
         12    1    1    2    0    0  0.20022429074E+02  0.80485670341E+00 -0.35378234768E+02  0.40659131270E+02  0.00000000000E+00 0. -1.
         11    1    3    3    0    0 -0.91086044959E+00  0.29014718949E+01  0.93714214148E+01  0.98524994550E+01  0.51100000000E-03 0.  1.
        -11    1    3    3    0    0  0.55595495107E+01  0.16655627597E+01  0.68776338029E+01  0.89991409066E+01  0.51100000000E-03 0. -1.
        -12    1    3    3    0    0 -0.24671118135E+02 -0.53718913581E+01  0.19129179551E+02  0.31677228368E+02  0.00000000000E+00 0.  1.
</event>
<event>
 7    1  0.5479172E-013  0.5052886E+02  0.7816164E-02  0.1300439E+00
        -11   -1    0    0    0    0  0.00000000000E+00  0.00000000000E+00  0.45593999997E+02  0.45594000000E+02  0.51100000000E-03 0.  1.
         11   -1    0    0    0    0 -0.00000000000E+00 -0.00000000000E+00 -0.45593999997E+02  0.45594000000E+02  0.51100000000E-03 0. -1.
    9900012    2    1    2    0    0  0.51139747818E+01  0.87934330677E+01  0.39366086033E+02  0.50528856715E+02  0.29999990470E+02 0.  0.
         12    1    1    2    0    0 -0.51139747818E+01 -0.87934330677E+01 -0.39366086033E+02  0.40659143285E+02  0.00000000000E+00 0. -1.
         11    1    3    3    0    0  0.19082044719E+01 -0.14268356871E+00 -0.42284920922E+00  0.19596950329E+01  0.51100000000E-03 0. -1.
        -11    1    3    3    0    0 -0.64389593353E-01 -0.88367341866E+01  0.76050250146E+01  0.11658834540E+02  0.51100000000E-03 0.  1.
        -12    1    3    3    0    0  0.32701599032E+01  0.17772850823E+02  0.32183910227E+02  0.36910327141E+02  0.00000000000E+00 0.  1.
</event>
<event>
 7    1  0.5479172E-013  0.5052886E+02  0.7816164E-02  0.1300439E+00
        -11   -1    0    0    0    0  0.00000000000E+00  0.00000000000E+00  0.45593999997E+02  0.45594000000E+02  0.51100000000E-03 0.  1.
         11   -1    0    0    0    0 -0.00000000000E+00 -0.00000000000E+00 -0.45593999997E+02  0.45594000000E+02  0.51100000000E-03 0. -1.
    9900012    2    1    2    0    0  0.36967589055E+02 -0.34555005552E+01  0.16571732264E+02  0.50528862836E+02  0.30000009077E+02 0.  0.
         12    1    1    2    0    0 -0.36967589055E+02  0.34555005552E+01 -0.16571732264E+02  0.40659137164E+02  0.00000000000E+00 0. -1.
         11    1    3    3    0    0 -0.92772984284E+00 -0.34350667150E+01 -0.35592593618E+00  0.35758984229E+01  0.51100000000E-03 0. -1.
        -11    1    3    3    0    0  0.73489299668E+01  0.92350250132E+01  0.58058887959E+01  0.13152976987E+02  0.51100000000E-03 0.  1.
        -12    1    3    3    0    0  0.30546388931E+02 -0.92554588534E+01  0.11121769405E+02  0.33799987426E+02  0.00000000000E+00 0.  1.
</event>
<event>
 7    1  0.5479172E-013  0.5052886E+02  0.7816164E-02  0.1300439E+00
        -11   -1    0    0    0    0  0.00000000000E+00  0.00000000000E+00  0.45593999997E+02  0.45594000000E+02  0.51100000000E-03 0.  1.
         11   -1    0    0    0    0 -0.00000000000E+00 -0.00000000000E+00 -0.45593999997E+02  0.45594000000E+02  0.51100000000E-03 0. -1.
    9900012    2    1    2    0    0 -0.36719055622E+02  0.26803330545E+01  0.17253757120E+02  0.50528863686E+02  0.30000011660E+02 0.  0.
         12    1    1    2    0    0  0.36719055622E+02 -0.26803330545E+01 -0.17253757120E+02  0.40659136314E+02  0.00000000000E+00 0. -1.
         11    1    3    3    0    0 -0.39441759465E+01  0.17630050878E+00  0.11594818328E+02  0.12248568001E+02  0.51100000000E-03 0. -1.
        -11    1    3    3    0    0 -0.12036540376E+02 -0.63625515117E+01  0.76872104598E+01  0.15635011061E+02  0.51100000000E-03 0.  1.
         12    1    3    3    0    0 -0.20738339299E+02  0.88665840574E+01 -0.20282716675E+01  0.22645284624E+02  0.00000000000E+00 0. -1.
</event>
<event>
 7    1  0.5479172E-013  0.5052891E+02  0.7816164E-02  0.1300439E+00
        -11   -1    0    0    0    0  0.00000000000E+00  0.00000000000E+00  0.45593999997E+02  0.45594000000E+02  0.51100000000E-03 0.  1.
         11   -1    0    0    0    0 -0.00000000000E+00 -0.00000000000E+00 -0.45593999997E+02  0.45594000000E+02  0.51100000000E-03 0. -1.
    9900012    2    1    2    0    0 -0.22322457066E+02  0.25271320545E+02  0.22720699981E+02  0.50528905824E+02  0.30000139743E+02 0.  0.
         12    1    1    2    0    0  0.22322457066E+02 -0.25271320545E+02 -0.22720699981E+02  0.40659094176E+02  0.00000000000E+00 0. -1.
         11    1    3    3    0    0 -0.71825019261E+01  0.20070077998E+02  0.84664762185E+01  0.22936381245E+02  0.51100000000E-03 0. -1.
        -11    1    3    3    0    0 -0.10345590368E+02  0.11595242597E+02  0.82297772691E+01  0.17584371615E+02  0.51100000000E-03 0.  1.
         12    1    3    3    0    0 -0.47943647716E+01 -0.63940000499E+01  0.60244464937E+01  0.10008152964E+02  0.00000000000E+00 0. -1.
</event>
<event>
 7    1  0.5479172E-013  0.5052886E+02  0.7816164E-02  0.1300439E+00
        -11   -1    0    0    0    0  0.00000000000E+00  0.00000000000E+00  0.45593999997E+02  0.45594000000E+02  0.51100000000E-03 0.  1.
         11   -1    0    0    0    0 -0.00000000000E+00 -0.00000000000E+00 -0.45593999997E+02  0.45594000000E+02  0.51100000000E-03 0. -1.
    9900012    2    1    2    0    0 -0.16256203431E+01  0.76733883254E+01  0.39895390562E+02  0.50528859355E+02  0.29999998496E+02 0.  0.
         12    1    1    2    0    0  0.16256203431E+01 -0.76733883254E+01 -0.39895390562E+02  0.40659140645E+02  0.00000000000E+00 0. -1.
         11    1    3    3    0    0 -0.73399650083E+01 -0.50067093844E+01  0.70501475898E+01  0.11342257557E+02  0.51100000000E-03 0. -1.
        -11    1    3    3    0    0  0.16576624953E+01  0.15940449332E+02  0.26624324840E+02  0.31075721123E+02  0.51100000000E-03 0.  1.
         12    1    3    3    0    0  0.40566821699E+01 -0.32603516224E+01  0.62209181322E+01  0.81108806758E+01  0.00000000000E+00 0. -1.
</event>
<event>
 7    1  0.5479172E-013  0.5052886E+02  0.7816164E-02  0.1300439E+00
        -11   -1    0    0    0    0  0.00000000000E+00  0.00000000000E+00  0.45593999997E+02  0.45594000000E+02  0.51100000000E-03 0.  1.
         11   -1    0    0    0    0 -0.00000000000E+00 -0.00000000000E+00 -0.45593999997E+02  0.45594000000E+02  0.51100000000E-03 0. -1.
    9900012    2    1    2    0    0 -0.24578584170E+02 -0.82782338951E+01  0.31313413503E+02  0.50528858083E+02  0.29999994628E+02 0.  0.
         12    1    1    2    0    0  0.24578584170E+02  0.82782338951E+01 -0.31313413503E+02  0.40659141917E+02  0.00000000000E+00 0. -1.
         11    1    3    3    0    0 -0.76124110315E+01 -0.17028153091E+01  0.16025251576E+02  0.17822936628E+02  0.51100000000E-03 0. -1.
        -11    1    3    3    0    0 -0.21270098703E+02 -0.35198462134E+01  0.16666895969E+02  0.27250538301E+02  0.51100000000E-03 0.  1.
         12    1    3    3    0    0  0.43039255648E+01 -0.30555723726E+01 -0.13787340419E+01  0.54553831534E+01  0.00000000000E+00 0. -1.
</event>
<event>
 7    1  0.5479172E-013  0.5052885E+02  0.7816164E-02  0.1300439E+00
        -11   -1    0    0    0    0  0.00000000000E+00  0.00000000000E+00  0.45593999997E+02  0.45594000000E+02  0.51100000000E-03 0. -1.
         11   -1    0    0    0    0 -0.00000000000E+00 -0.00000000000E+00 -0.45593999997E+02  0.45594000000E+02  0.51100000000E-03 0.  1.
    9900012    2    1    2    0    0  0.40646086108E+02 -0.63550821724E+00  0.81121893800E+00  0.50528852656E+02  0.29999978132E+02 0.  0.
         12    1    1    2    0    0 -0.40646086108E+02  0.63550821724E+00 -0.81121893800E+00  0.40659147344E+02  0.00000000000E+00 0. -1.
         11    1    3    3    0    0  0.17760162920E+02 -0.48529809841E+01 -0.29444098575E+01  0.18645223545E+02  0.51100000000E-03 0. -1.
        -11    1    3    3    0    0  0.24802203059E+02 -0.21004042802E+01  0.16156199477E+01  0.24943359894E+02  0.51100000000E-03 0.  1.
         12    1    3    3    0    0 -0.19162798712E+01  0.63178770471E+01  0.21400088478E+01  0.69402692163E+01  0.00000000000E+00 0. -1.
</event>
<event>
 7    1  0.5479172E-013  0.5052886E+02  0.7816164E-02  0.1300439E+00
        -11   -1    0    0    0    0  0.00000000000E+00  0.00000000000E+00  0.45593999997E+02  0.45594000000E+02  0.51100000000E-03 0.  1.
         11   -1    0    0    0    0 -0.00000000000E+00 -0.00000000000E+00 -0.45593999997E+02  0.45594000000E+02  0.51100000000E-03 0. -1.
    9900012    2    1    2    0    0  0.17914329129E+00 -0.38127501707E+02  0.14121872930E+02  0.50528858669E+02  0.29999996410E+02 0.  0.
         12    1    1    2    0    0 -0.17914329129E+00  0.38127501707E+02 -0.14121872930E+02  0.40659141331E+02  0.00000000000E+00 0. -1.
         11    1    3    3    0    0  0.24775552015E+01 -0.20921811696E+01  0.11784974826E+02  0.12222975650E+02  0.51100000000E-03 0. -1.
        -11    1    3    3    0    0  0.32667082812E+01 -0.68883429509E+01  0.39545602624E+01  0.85883175730E+01  0.51100000000E-03 0.  1.
         12    1    3    3    0    0 -0.55651201914E+01 -0.29146977586E+02 -0.16176621584E+01  0.29717565446E+02  0.00000000000E+00 0. -1.
</event>
<event>
 7    1  0.5479172E-013  0.5052886E+02  0.7816164E-02  0.1300439E+00
        -11   -1    0    0    0    0  0.00000000000E+00  0.00000000000E+00  0.45593999997E+02  0.45594000000E+02  0.51100000000E-03 0.  1.
         11   -1    0    0    0    0 -0.00000000000E+00 -0.00000000000E+00 -0.45593999997E+02  0.45594000000E+02  0.51100000000E-03 0. -1.
    9900012    2    1    2    0    0  0.40356988741E+02 -0.48729834089E+01 -0.85619359049E+00  0.50528861113E+02  0.30000003839E+02 0.  0.
         12    1    1    2    0    0 -0.40356988741E+02  0.48729834089E+01  0.85619359049E+00  0.40659138887E+02  0.00000000000E+00 0. -1.
         11    1    3    3    0    0  0.18054058195E+02 -0.40470972633E+01 -0.11920741795E+02  0.22009818235E+02  0.51100000000E-03 0. -1.
        -11    1    3    3    0    0  0.18736873893E+01 -0.41347583542E+01  0.54154917283E+01  0.70664334711E+01  0.51100000000E-03 0.  1.
        -12    1    3    3    0    0  0.20429243157E+02  0.33088722086E+01  0.56490564761E+01  0.21452609407E+02  0.00000000000E+00 0.  1.
</event>
<event>
 7    1  0.5479172E-013  0.5052884E+02  0.7816164E-02  0.1300439E+00
        -11   -1    0    0    0    0  0.00000000000E+00  0.00000000000E+00  0.45593999997E+02  0.45594000000E+02  0.51100000000E-03 0.  1.
         11   -1    0    0    0    0 -0.00000000000E+00 -0.00000000000E+00 -0.45593999997E+02  0.45594000000E+02  0.51100000000E-03 0. -1.
    9900012    2    1    2    0    0  0.38195018840E+02 -0.34979525728E+01  0.13493398637E+02  0.50528844289E+02  0.29999952700E+02 0.  0.
         12    1    1    2    0    0 -0.38195018840E+02  0.34979525728E+01 -0.13493398637E+02  0.40659155711E+02  0.00000000000E+00 0. -1.
         11    1    3    3    0    0  0.22897474367E+02  0.55240609671E+00 -0.69371314555E+01  0.23931637595E+02  0.51100000000E-03 0. -1.
        -11    1    3    3    0    0  0.20874487292E+01 -0.12238507749E+01  0.75627242030E+01  0.79404061954E+01  0.51100000000E-03 0.  1.
        -12    1    3    3    0    0  0.13210095744E+02 -0.28265078946E+01  0.12867805890E+02  0.18656800499E+02  0.00000000000E+00 0.  1.
</event>
<event>
 7    1  0.5479172E-013  0.5052886E+02  0.7816164E-02  0.1300439E+00
        -11   -1    0    0    0    0  0.00000000000E+00  0.00000000000E+00  0.45593999997E+02  0.45594000000E+02  0.51100000000E-03 0. -1.
         11   -1    0    0    0    0 -0.00000000000E+00 -0.00000000000E+00 -0.45593999997E+02  0.45594000000E+02  0.51100000000E-03 0.  1.
    9900012    2    1    2    0    0 -0.18647304646E+02  0.21527488985E+02 -0.29017426416E+02  0.50528858490E+02  0.29999995867E+02 0.  0.
         12    1    1    2    0    0  0.18647304646E+02 -0.21527488985E+02  0.29017426416E+02  0.40659141510E+02  0.00000000000E+00 0. -1.
         11    1    3    3    0    0 -0.47330643162E+01  0.11369733041E+02 -0.28302810785E+01  0.12636582548E+02  0.51100000000E-03 0. -1.
        -11    1    3    3    0    0 -0.19473999406E+02  0.93044575652E+01 -0.18911763453E+02  0.28696069080E+02  0.51100000000E-03 0.  1.
        -12    1    3    3    0    0  0.55597590765E+01  0.85329837869E+00 -0.72753818838E+01  0.91962068630E+01  0.00000000000E+00 0.  1.
</event>
<event>
 7    1  0.5479172E-013  0.5052889E+02  0.7816164E-02  0.1300439E+00
        -11   -1    0    0    0    0  0.00000000000E+00  0.00000000000E+00  0.45593999997E+02  0.45594000000E+02  0.51100000000E-03 0. -1.
         11   -1    0    0    0    0 -0.00000000000E+00 -0.00000000000E+00 -0.45593999997E+02  0.45594000000E+02  0.51100000000E-03 0.  1.
    9900012    2    1    2    0    0 -0.39092863690E+02 -0.75064203041E+01  0.82803877729E+01  0.50528890825E+02  0.30000094151E+02 0.  0.
         12    1    1    2    0    0  0.39092863690E+02  0.75064203041E+01 -0.82803877729E+01  0.40659109175E+02  0.00000000000E+00 0. -1.
         11    1    3    3    0    0  0.44736338441E+00  0.20301099413E+00  0.17407297613E+01  0.18087254696E+01  0.51100000000E-03 0. -1.
        -11    1    3    3    0    0  0.34890002721E+01  0.14767117683E+01 -0.13452265261E+01  0.40203774963E+01  0.51100000000E-03 0.  1.
         12    1    3    3    0    0 -0.43029227346E+02 -0.91861430666E+01  0.78848845377E+01  0.44699787859E+02  0.00000000000E+00 0. -1.
</event>
<event>
 7    1  0.5479172E-013  0.5052887E+02  0.7816164E-02  0.1300439E+00
        -11   -1    0    0    0    0  0.00000000000E+00  0.00000000000E+00  0.45593999997E+02  0.45594000000E+02  0.51100000000E-03 0.  1.
         11   -1    0    0    0    0 -0.00000000000E+00 -0.00000000000E+00 -0.45593999997E+02  0.45594000000E+02  0.51100000000E-03 0. -1.
    9900012    2    1    2    0    0  0.19612199413E+02 -0.28705835354E+02  0.21083207909E+02  0.50528868124E+02  0.30000025151E+02 0.  0.
         12    1    1    2    0    0 -0.19612199413E+02  0.28705835354E+02 -0.21083207909E+02  0.40659131876E+02  0.00000000000E+00 0. -1.
         11    1    3    3    0    0  0.10479990169E+02 -0.30308200498E+01  0.14086689396E+02  0.17817151358E+02  0.51100000000E-03 0. -1.
        -11    1    3    3    0    0  0.41383556836E+01 -0.94549146104E+01  0.11197103035E+02  0.15228148761E+02  0.51100000000E-03 0.  1.
         12    1    3    3    0    0  0.49938535603E+01 -0.16220100693E+02 -0.42005845214E+01  0.17483568006E+02  0.00000000000E+00 0. -1.
</event>
<event>
 7    1  0.5479172E-013  0.5052887E+02  0.7816164E-02  0.1300439E+00
        -11   -1    0    0    0    0  0.00000000000E+00  0.00000000000E+00  0.45593999997E+02  0.45594000000E+02  0.51100000000E-03 0.  1.
         11   -1    0    0    0    0 -0.00000000000E+00 -0.00000000000E+00 -0.45593999997E+02  0.45594000000E+02  0.51100000000E-03 0. -1.
    9900012    2    1    2    0    0  0.16370794614E+02 -0.35152808844E+02  0.12224636550E+02  0.50528872800E+02  0.30000039362E+02 0.  0.
         12    1    1    2    0    0 -0.16370794614E+02  0.35152808844E+02 -0.12224636550E+02  0.40659127200E+02  0.00000000000E+00 0. -1.
         11    1    3    3    0    0  0.80545140364E+01 -0.78029458487E+01  0.70530865515E+00  0.11236486143E+02  0.51100000000E-03 0. -1.
        -11    1    3    3    0    0  0.14848177979E+02 -0.24643095787E+02  0.41305639840E+01  0.29065651865E+02  0.51100000000E-03 0.  1.
        -12    1    3    3    0    0 -0.65318974009E+01 -0.27067672083E+01  0.73887639103E+01  0.10226734792E+02  0.00000000000E+00 0.  1.
</event>
<event>
 7    1  0.5479172E-013  0.5052886E+02  0.7816164E-02  0.1300439E+00
        -11   -1    0    0    0    0  0.00000000000E+00  0.00000000000E+00  0.45593999997E+02  0.45594000000E+02  0.51100000000E-03 0.  1.
         11   -1    0    0    0    0 -0.00000000000E+00 -0.00000000000E+00 -0.45593999997E+02  0.45594000000E+02  0.51100000000E-03 0. -1.
    9900012    2    1    2    0    0  0.28264992263E+02 -0.85447428143E+01  0.27950732781E+02  0.50528857358E+02  0.29999992426E+02 0.  0.
         12    1    1    2    0    0 -0.28264992263E+02  0.85447428143E+01 -0.27950732781E+02  0.40659142642E+02  0.00000000000E+00 0. -1.
         11    1    3    3    0    0  0.77045394145E+01 -0.10837713513E+02 -0.23428306541E+01  0.13502030126E+02  0.51100000000E-03 0. -1.
        -11    1    3    3    0    0  0.17105422745E+01  0.15585241632E+00  0.65783818760E+00  0.18392923071E+01  0.51100000000E-03 0.  1.
        -12    1    3    3    0    0  0.18849910574E+02  0.21371182826E+01  0.29635725247E+02  0.35187534925E+02  0.00000000000E+00 0.  1.
</event>
<event>
 7    1  0.5479172E-013  0.5052886E+02  0.7816164E-02  0.1300439E+00
        -11   -1    0    0    0    0  0.00000000000E+00  0.00000000000E+00  0.45593999997E+02  0.45594000000E+02  0.51100000000E-03 0. -1.
         11   -1    0    0    0    0 -0.00000000000E+00 -0.00000000000E+00 -0.45593999997E+02  0.45594000000E+02  0.51100000000E-03 0.  1.
    9900012    2    1    2    0    0  0.10427229472E+02 -0.34143898393E+02 -0.19458490696E+02  0.50528858690E+02  0.29999996475E+02 0.  0.
         12    1    1    2    0    0 -0.10427229472E+02  0.34143898393E+02  0.19458490696E+02  0.40659141310E+02  0.00000000000E+00 0. -1.
         11    1    3    3    0    0  0.57495951958E+01 -0.14322112468E+02 -0.14498136121E+02  0.21174907360E+02  0.51100000000E-03 0. -1.
        -11    1    3    3    0    0 -0.34768236275E+00 -0.55767899611E+01 -0.11583170638E+02  0.12860455341E+02  0.51100000000E-03 0.  1.
         12    1    3    3    0    0  0.50253166387E+01 -0.14244995964E+02  0.66228160635E+01  0.16493495989E+02  0.00000000000E+00 0. -1.
</event>
<event>
 7    1  0.5479172E-013  0.5052886E+02  0.7816164E-02  0.1300439E+00
        -11   -1    0    0    0    0  0.00000000000E+00  0.00000000000E+00  0.45593999997E+02  0.45594000000E+02  0.51100000000E-03 0.  1.
         11   -1    0    0    0    0 -0.00000000000E+00 -0.00000000000E+00 -0.45593999997E+02  0.45594000000E+02  0.51100000000E-03 0. -1.
    9900012    2    1    2    0    0 -0.40048218967E+02  0.27395692568E+01 -0.64653639535E+01  0.50528855725E+02  0.29999987462E+02 0.  0.
         12    1    1    2    0    0  0.40048218967E+02 -0.27395692568E+01  0.64653639535E+01  0.40659144275E+02  0.00000000000E+00 0. -1.
         11    1    3    3    0    0 -0.43933853643E+01 -0.56012381698E+01 -0.84001484835E+00  0.71680770923E+01  0.51100000000E-03 0. -1.
        -11    1    3    3    0    0 -0.13028293477E+02 -0.14609620790E+01  0.78299611594E+01  0.15270204096E+02  0.51100000000E-03 0.  1.
        -12    1    3    3    0    0 -0.22626540126E+02  0.98017695056E+01 -0.13455310265E+02  0.28090574537E+02  0.00000000000E+00 0.  1.
</event>
<event>
 7    1  0.5479172E-013  0.5052885E+02  0.7816164E-02  0.1300439E+00
        -11   -1    0    0    0    0  0.00000000000E+00  0.00000000000E+00  0.45593999997E+02  0.45594000000E+02  0.51100000000E-03 0.  1.
         11   -1    0    0    0    0 -0.00000000000E+00 -0.00000000000E+00 -0.45593999997E+02  0.45594000000E+02  0.51100000000E-03 0. -1.
    9900012    2    1    2    0    0  0.71165700017E+01  0.43561041144E+01  0.39793780000E+02  0.50528854186E+02  0.29999982783E+02 0.  0.
         12    1    1    2    0    0 -0.71165700017E+01 -0.43561041144E+01 -0.39793780000E+02  0.40659145814E+02  0.00000000000E+00 0. -1.
         11    1    3    3    0    0 -0.50872757375E+01 -0.35023140222E+01  0.13422134482E+01  0.63204521310E+01  0.51100000000E-03 0. -1.
        -11    1    3    3    0    0 -0.62831433352E+00 -0.31145242260E+01  0.13624745237E+01  0.34570763869E+01  0.51100000000E-03 0.  1.
         12    1    3    3    0    0  0.12832160073E+02  0.10972942363E+02  0.37089092028E+02  0.40751325668E+02  0.00000000000E+00 0. -1.
</event>
<event>
 7    1  0.5479172E-013  0.5052886E+02  0.7816164E-02  0.1300439E+00
        -11   -1    0    0    0    0  0.00000000000E+00  0.00000000000E+00  0.45593999997E+02  0.45594000000E+02  0.51100000000E-03 0.  1.
         11   -1    0    0    0    0 -0.00000000000E+00 -0.00000000000E+00 -0.45593999997E+02  0.45594000000E+02  0.51100000000E-03 0. -1.
    9900012    2    1    2    0    0  0.89834068180E+00  0.21556517496E+02  0.34462668812E+02  0.50528855836E+02  0.29999987798E+02 0.  0.
         12    1    1    2    0    0 -0.89834068180E+00 -0.21556517496E+02 -0.34462668812E+02  0.40659144164E+02  0.00000000000E+00 0. -1.
         11    1    3    3    0    0  0.44376625105E+01  0.12299430247E+02  0.12777363943E+02  0.18281954561E+02  0.51100000000E-03 0. -1.
        -11    1    3    3    0    0 -0.70474978630E+01  0.10639969912E+02  0.29010266656E+01  0.13087862386E+02  0.51100000000E-03 0.  1.
        -12    1    3    3    0    0  0.35081760343E+01 -0.13828826628E+01  0.18784278203E+02  0.19159038889E+02  0.00000000000E+00 0.  1.
</event>
<event>
 7    1  0.5479172E-013  0.5052885E+02  0.7816164E-02  0.1300439E+00
        -11   -1    0    0    0    0  0.00000000000E+00  0.00000000000E+00  0.45593999997E+02  0.45594000000E+02  0.51100000000E-03 0.  1.
         11   -1    0    0    0    0 -0.00000000000E+00 -0.00000000000E+00 -0.45593999997E+02  0.45594000000E+02  0.51100000000E-03 0. -1.
    9900012    2    1    2    0    0  0.99639098459E+01 -0.28991746012E+02  0.26708904701E+02  0.50528850641E+02  0.29999972009E+02 0.  0.
         12    1    1    2    0    0 -0.99639098459E+01  0.28991746012E+02 -0.26708904701E+02  0.40659149359E+02  0.00000000000E+00 0. -1.
         11    1    3    3    0    0  0.20816572520E+01 -0.27969234304E+01 -0.84429657212E+00  0.35873269371E+01  0.51100000000E-03 0. -1.
        -11    1    3    3    0    0  0.12248571297E+02 -0.28804666296E+02  0.17971081181E+02  0.36092880992E+02  0.51100000000E-03 0.  1.
         12    1    3    3    0    0 -0.43663187031E+01  0.26098437139E+01  0.95821200925E+01  0.10848642712E+02  0.00000000000E+00 0. -1.
</event>
<event>
 7    1  0.5479172E-013  0.5052889E+02  0.7816164E-02  0.1300439E+00
        -11   -1    0    0    0    0  0.00000000000E+00  0.00000000000E+00  0.45593999997E+02  0.45594000000E+02  0.51100000000E-03 0. -1.
         11   -1    0    0    0    0 -0.00000000000E+00 -0.00000000000E+00 -0.45593999997E+02  0.45594000000E+02  0.51100000000E-03 0.  1.
    9900012    2    1    2    0    0 -0.83833755252E+01  0.18895970327E+02 -0.35011781471E+02  0.50528886365E+02  0.30000080596E+02 0.  0.
         12    1    1    2    0    0  0.83833755252E+01 -0.18895970327E+02  0.35011781471E+02  0.40659113635E+02  0.00000000000E+00 0. -1.
         11    1    3    3    0    0 -0.12407044343E+02  0.19752786980E+01 -0.15734850990E+02  0.20135094020E+02  0.51100000000E-03 0. -1.
        -11    1    3    3    0    0 -0.20439343021E+01 -0.11706267103E+01  0.99220646963E+00  0.25558772008E+01  0.51100000000E-03 0.  1.
        -12    1    3    3    0    0  0.60676031195E+01  0.18091318339E+02 -0.20269136950E+02  0.27837915144E+02  0.00000000000E+00 0.  1.
</event>
<event>
 7    1  0.5479172E-013  0.5052886E+02  0.7816164E-02  0.1300439E+00
        -11   -1    0    0    0    0  0.00000000000E+00  0.00000000000E+00  0.45593999997E+02  0.45594000000E+02  0.51100000000E-03 0.  1.
         11   -1    0    0    0    0 -0.00000000000E+00 -0.00000000000E+00 -0.45593999997E+02  0.45594000000E+02  0.51100000000E-03 0. -1.
    9900012    2    1    2    0    0 -0.24203426727E+02  0.21398573538E+02  0.24687263682E+02  0.50528858311E+02  0.29999995322E+02 0.  0.
         12    1    1    2    0    0  0.24203426727E+02 -0.21398573538E+02 -0.24687263682E+02  0.40659141689E+02  0.00000000000E+00 0. -1.
         11    1    3    3    0    0 -0.22896313430E+02  0.21688973985E+02  0.19244073149E+02  0.36945731998E+02  0.51100000000E-03 0. -1.
        -11    1    3    3    0    0 -0.54516847685E+01 -0.40165276329E+01  0.21262697130E+01  0.70974914015E+01  0.51100000000E-03 0.  1.
        -12    1    3    3    0    0  0.41445714714E+01  0.37261271854E+01  0.33169208195E+01  0.64856349116E+01  0.00000000000E+00 0.  1.
</event>
<event>
 7    1  0.5479172E-013  0.5052885E+02  0.7816164E-02  0.1300439E+00
        -11   -1    0    0    0    0  0.00000000000E+00  0.00000000000E+00  0.45593999997E+02  0.45594000000E+02  0.51100000000E-03 0.  1.
         11   -1    0    0    0    0 -0.00000000000E+00 -0.00000000000E+00 -0.45593999997E+02  0.45594000000E+02  0.51100000000E-03 0. -1.
    9900012    2    1    2    0    0  0.71266417998E+01  0.26195511327E+02  0.30268339095E+02  0.50528853568E+02  0.29999980905E+02 0.  0.
         12    1    1    2    0    0 -0.71266417998E+01 -0.26195511327E+02 -0.30268339095E+02  0.40659146432E+02  0.00000000000E+00 0. -1.
         11    1    3    3    0    0 -0.14834173316E+01  0.23225218258E+02  0.11453199567E+02  0.25938139307E+02  0.51100000000E-03 0. -1.
        -11    1    3    3    0    0 -0.17745419920E+01 -0.32681105043E+01  0.44640310975E+01  0.58100877317E+01  0.51100000000E-03 0.  1.
        -12    1    3    3    0    0  0.10384601123E+02  0.62384035724E+01  0.14351108431E+02  0.18780626529E+02  0.00000000000E+00 0.  1.
</event>
<event>
 7    1  0.5479172E-013  0.5052887E+02  0.7816164E-02  0.1300439E+00
        -11   -1    0    0    0    0  0.00000000000E+00  0.00000000000E+00  0.45593999997E+02  0.45594000000E+02  0.51100000000E-03 0.  1.
         11   -1    0    0    0    0 -0.00000000000E+00 -0.00000000000E+00 -0.45593999997E+02  0.45594000000E+02  0.51100000000E-03 0. -1.
    9900012    2    1    2    0    0  0.38856245676E+01 -0.40144907726E+02  0.51432871637E+01  0.50528866986E+02  0.30000021690E+02 0.  0.
         12    1    1    2    0    0 -0.38856245676E+01  0.40144907726E+02 -0.51432871637E+01  0.40659133014E+02  0.00000000000E+00 0. -1.
         11    1    3    3    0    0 -0.62046930329E+01  0.19964570840E+00 -0.19305173426E+01  0.65011515528E+01  0.51100000000E-03 0. -1.
        -11    1    3    3    0    0 -0.21056534564E+01 -0.38097766803E+01 -0.14331770470E+01  0.45828126234E+01  0.51100000000E-03 0.  1.
         12    1    3    3    0    0  0.12195971057E+02 -0.36534776754E+02  0.85069815533E+01  0.39444902810E+02  0.00000000000E+00 0. -1.
</event>
<event>
 7    1  0.5479172E-013  0.5052886E+02  0.7816164E-02  0.1300439E+00
        -11   -1    0    0    0    0  0.00000000000E+00  0.00000000000E+00  0.45593999997E+02  0.45594000000E+02  0.51100000000E-03 0.  1.
         11   -1    0    0    0    0 -0.00000000000E+00 -0.00000000000E+00 -0.45593999997E+02  0.45594000000E+02  0.51100000000E-03 0. -1.
    9900012    2    1    2    0    0  0.21585297175E+02 -0.25801496826E+01  0.34359621622E+02  0.50528858045E+02  0.29999994514E+02 0.  0.
         12    1    1    2    0    0 -0.21585297175E+02  0.25801496826E+01 -0.34359621622E+02  0.40659141955E+02  0.00000000000E+00 0. -1.
         11    1    3    3    0    0  0.32335969004E+01  0.35434106976E+00 -0.19065678474E+01  0.37705049696E+01  0.51100000000E-03 0. -1.
        -11    1    3    3    0    0  0.21733966346E+00  0.65236845950E+01  0.19550361200E+01  0.68137995066E+01  0.51100000000E-03 0.  1.
        -12    1    3    3    0    0  0.18134360611E+02 -0.94581753474E+01  0.34311153349E+02  0.39944553569E+02  0.00000000000E+00 0.  1.
</event>
<event>
 7    1  0.5479172E-013  0.5052884E+02  0.7816164E-02  0.1300439E+00
        -11   -1    0    0    0    0  0.00000000000E+00  0.00000000000E+00  0.45593999997E+02  0.45594000000E+02  0.51100000000E-03 0. -1.
         11   -1    0    0    0    0 -0.00000000000E+00 -0.00000000000E+00 -0.45593999997E+02  0.45594000000E+02  0.51100000000E-03 0.  1.
    9900012    2    1    2    0    0  0.35807205849E+01  0.37903953893E+02 -0.14270114544E+02  0.50528838060E+02  0.29999933766E+02 0.  0.
         12    1    1    2    0    0 -0.35807205849E+01 -0.37903953893E+02  0.14270114544E+02  0.40659161940E+02  0.00000000000E+00 0. -1.
         11    1    3    3    0    0  0.61699136824E+01  0.62878519093E+01 -0.27655270727E+01  0.92332581862E+01  0.51100000000E-03 0. -1.
        -11    1    3    3    0    0  0.64299653467E+01  0.27496417800E+02 -0.13308713897E+02  0.31217291875E+02  0.51100000000E-03 0.  1.
         12    1    3    3    0    0 -0.90191584442E+01  0.41196841835E+01  0.18041264259E+01  0.10078287998E+02  0.00000000000E+00 0. -1.
</event>
<event>
 7    1  0.5479172E-013  0.5052881E+02  0.7816164E-02  0.1300439E+00
        -11   -1    0    0    0    0  0.00000000000E+00  0.00000000000E+00  0.45593999997E+02  0.45594000000E+02  0.51100000000E-03 0.  1.
         11   -1    0    0    0    0 -0.00000000000E+00 -0.00000000000E+00 -0.45593999997E+02  0.45594000000E+02  0.51100000000E-03 0. -1.
    9900012    2    1    2    0    0  0.36087047349E+02  0.17659075827E+02  0.62491466927E+01  0.50528809405E+02  0.29999846667E+02 0.  0.
         12    1    1    2    0    0 -0.36087047349E+02 -0.17659075827E+02 -0.62491466927E+01  0.40659190595E+02  0.00000000000E+00 0. -1.
         11    1    3    3    0    0 -0.48152124119E+01 -0.23976679375E+00 -0.10302568967E+01  0.49300292313E+01  0.51100000000E-03 0. -1.
        -11    1    3    3    0    0  0.13338563513E+02  0.32594159495E+01  0.34236492365E+01  0.14151411353E+02  0.51100000000E-03 0.  1.
        -12    1    3    3    0    0  0.27563696248E+02  0.14639426671E+02  0.38557543529E+01  0.31447368821E+02  0.00000000000E+00 0.  1.
</event>
<event>
 7    1  0.5479172E-013  0.5052886E+02  0.7816164E-02  0.1300439E+00
        -11   -1    0    0    0    0  0.00000000000E+00  0.00000000000E+00  0.45593999997E+02  0.45594000000E+02  0.51100000000E-03 0.  1.
         11   -1    0    0    0    0 -0.00000000000E+00 -0.00000000000E+00 -0.45593999997E+02  0.45594000000E+02  0.51100000000E-03 0. -1.
    9900012    2    1    2    0    0  0.37288542106E+02  0.16179727853E+02 -0.97304873705E+00  0.50528858474E+02  0.29999995817E+02 0.  0.
         12    1    1    2    0    0 -0.37288542106E+02 -0.16179727853E+02  0.97304873705E+00  0.40659141526E+02  0.00000000000E+00 0. -1.
         11    1    3    3    0    0  0.85746853876E+01  0.69426865833E+01  0.10138458185E+01  0.11079440875E+02  0.51100000000E-03 0. -1.
        -11    1    3    3    0    0  0.19713704758E+02  0.11530493650E+02  0.94501706078E+01  0.24716151882E+02  0.51100000000E-03 0.  1.
         12    1    3    3    0    0  0.90001519603E+01 -0.22934523797E+01 -0.11437065163E+02  0.14733265717E+02  0.00000000000E+00 0. -1.
</event>
<event>
 7    1  0.5479172E-013  0.5052887E+02  0.7816164E-02  0.1300439E+00
        -11   -1    0    0    0    0  0.00000000000E+00  0.00000000000E+00  0.45593999997E+02  0.45594000000E+02  0.51100000000E-03 0.  1.
         11   -1    0    0    0    0 -0.00000000000E+00 -0.00000000000E+00 -0.45593999997E+02  0.45594000000E+02  0.51100000000E-03 0. -1.
    9900012    2    1    2    0    0 -0.15810055157E+02  0.13025658037E+02  0.35121781018E+02  0.50528866791E+02  0.30000021099E+02 0.  0.
         12    1    1    2    0    0  0.15810055157E+02 -0.13025658037E+02 -0.35121781018E+02  0.40659133209E+02  0.00000000000E+00 0. -1.
         11    1    3    3    0    0 -0.11120576371E+02  0.11695399478E+02  0.27987900950E+02  0.32307463342E+02  0.51100000000E-03 0.  1.
        -11    1    3    3    0    0 -0.55418145679E+01  0.73375029644E+01  0.78781628791E+01  0.12108513908E+02  0.51100000000E-03 0. -1.
         12    1    3    3    0    0  0.85233578209E+00 -0.60072444058E+01 -0.74428281036E+00  0.61128895409E+01  0.00000000000E+00 0. -1.
</event>
<event>
 7    1  0.5479172E-013  0.5052887E+02  0.7816164E-02  0.1300439E+00
        -11   -1    0    0    0    0  0.00000000000E+00  0.00000000000E+00  0.45593999997E+02  0.45594000000E+02  0.51100000000E-03 0.  1.
         11   -1    0    0    0    0 -0.00000000000E+00 -0.00000000000E+00 -0.45593999997E+02  0.45594000000E+02  0.51100000000E-03 0. -1.
    9900012    2    1    2    0    0  0.28412896366E+02  0.11570232229E+02  0.26683364904E+02  0.50528869213E+02  0.30000028460E+02 0.  0.
         12    1    1    2    0    0 -0.28412896366E+02 -0.11570232229E+02 -0.26683364904E+02  0.40659130787E+02  0.00000000000E+00 0. -1.
         11    1    3    3    0    0  0.42520951780E+01 -0.45638943986E+01  0.88576984898E+01  0.10833663659E+02  0.51100000000E-03 0. -1.
        -11    1    3    3    0    0  0.16195545001E+01 -0.29349803794E+01 -0.22087664044E+01  0.40144384286E+01  0.51100000000E-03 0.  1.
        -12    1    3    3    0    0  0.22541246688E+02  0.19069107007E+02  0.20034432819E+02  0.35680767125E+02  0.00000000000E+00 0.  1.
</event>
<event>
 7    1  0.5479172E-013  0.5052885E+02  0.7816164E-02  0.1300439E+00
        -11   -1    0    0    0    0  0.00000000000E+00  0.00000000000E+00  0.45593999997E+02  0.45594000000E+02  0.51100000000E-03 0.  1.
         11   -1    0    0    0    0 -0.00000000000E+00 -0.00000000000E+00 -0.45593999997E+02  0.45594000000E+02  0.51100000000E-03 0. -1.
    9900012    2    1    2    0    0 -0.43002278479E+00  0.58923602151E+01  0.40227623227E+02  0.50528849751E+02  0.29999969302E+02 0.  0.
         12    1    1    2    0    0  0.43002278479E+00 -0.58923602151E+01 -0.40227623227E+02  0.40659150249E+02  0.00000000000E+00 0. -1.
         11    1    3    3    0    0 -0.84850420425E+01  0.44804630439E+01  0.97223418331E+01  0.13659956754E+02  0.51100000000E-03 0. -1.
        -11    1    3    3    0    0 -0.32732651394E+01 -0.42991482596E+01  0.21693687610E+01  0.58226369896E+01  0.51100000000E-03 0.  1.
         12    1    3    3    0    0  0.11328284397E+02  0.57110454307E+01  0.28335912633E+02  0.31046256007E+02  0.00000000000E+00 0. -1.
</event>
<event>
 7    1  0.5479172E-013  0.5052884E+02  0.7816164E-02  0.1300439E+00
        -11   -1    0    0    0    0  0.00000000000E+00  0.00000000000E+00  0.45593999997E+02  0.45594000000E+02  0.51100000000E-03 0.  1.
         11   -1    0    0    0    0 -0.00000000000E+00 -0.00000000000E+00 -0.45593999997E+02  0.45594000000E+02  0.51100000000E-03 0. -1.
    9900012    2    1    2    0    0 -0.10553732206E+02  0.35634713633E+02  0.16490993128E+02  0.50528844407E+02  0.29999953059E+02 0.  0.
         12    1    1    2    0    0  0.10553732206E+02 -0.35634713633E+02 -0.16490993128E+02  0.40659155593E+02  0.00000000000E+00 0. -1.
         11    1    3    3    0    0 -0.52471180905E+01 -0.13310125812E+01  0.28774171590E+01  0.61305279149E+01  0.51100000000E-03 0. -1.
        -11    1    3    3    0    0  0.18901553795E+01  0.21285772912E+01  0.78646934557E+01  0.83640260674E+01  0.51100000000E-03 0.  1.
         12    1    3    3    0    0 -0.71967694951E+01  0.34837148923E+02  0.57488825137E+01  0.36034290425E+02  0.00000000000E+00 0. -1.
</event>
<event>
 7    1  0.5479172E-013  0.5052887E+02  0.7816164E-02  0.1300439E+00
        -11   -1    0    0    0    0  0.00000000000E+00  0.00000000000E+00  0.45593999997E+02  0.45594000000E+02  0.51100000000E-03 0.  1.
         11   -1    0    0    0    0 -0.00000000000E+00 -0.00000000000E+00 -0.45593999997E+02  0.45594000000E+02  0.51100000000E-03 0. -1.
    9900012    2    1    2    0    0  0.51953223932E-01 -0.39389672229E+02  0.10080483399E+02  0.50528866672E+02  0.30000020737E+02 0.  0.
         12    1    1    2    0    0 -0.51953223932E-01  0.39389672229E+02 -0.10080483399E+02  0.40659133328E+02  0.00000000000E+00 0. -1.
         11    1    3    3    0    0  0.63053799846E+01 -0.10991356200E+02 -0.18324385574E+01  0.12803341720E+02  0.51100000000E-03 0. -1.
        -11    1    3    3    0    0  0.35855184288E+00 -0.29365062217E+01 -0.54532594429E+01  0.62040041125E+01  0.51100000000E-03 0.  1.
        -12    1    3    3    0    0 -0.66119786035E+01 -0.25461809807E+02  0.17366181399E+02  0.31521520840E+02  0.00000000000E+00 0.  1.
</event>
<event>
 7    1  0.5479172E-013  0.5052885E+02  0.7816164E-02  0.1300439E+00
        -11   -1    0    0    0    0  0.00000000000E+00  0.00000000000E+00  0.45593999997E+02  0.45594000000E+02  0.51100000000E-03 0.  1.
         11   -1    0    0    0    0 -0.00000000000E+00 -0.00000000000E+00 -0.45593999997E+02  0.45594000000E+02  0.51100000000E-03 0. -1.
    9900012    2    1    2    0    0  0.26080494256E+01  0.29001225598E+01  0.40471639605E+02  0.50528852874E+02  0.29999978797E+02 0.  0.
         12    1    1    2    0    0 -0.26080494256E+01 -0.29001225598E+01 -0.40471639605E+02  0.40659147126E+02  0.00000000000E+00 0. -1.
         11    1    3    3    0    0  0.19231578898E+01  0.53723901582E+01  0.97058284185E+00  0.57881900103E+01  0.51100000000E-03 0. -1.
        -11    1    3    3    0    0 -0.56857945954E+01 -0.70772291763E+00  0.11752868645E+01  0.58489684035E+01  0.51100000000E-03 0.  1.
         12    1    3    3    0    0  0.63706861312E+01 -0.17645446808E+01  0.38325769899E+02  0.38891694461E+02  0.00000000000E+00 0. -1.
</event>
<event>
 7    1  0.5479172E-013  0.5052894E+02  0.7816164E-02  0.1300439E+00
        -11   -1    0    0    0    0  0.00000000000E+00  0.00000000000E+00  0.45593999997E+02  0.45594000000E+02  0.51100000000E-03 0. -1.
         11   -1    0    0    0    0 -0.00000000000E+00 -0.00000000000E+00 -0.45593999997E+02  0.45594000000E+02  0.51100000000E-03 0.  1.
    9900012    2    1    2    0    0 -0.38545008771E+02 -0.28990782382E+01 -0.12610989862E+02  0.50528936790E+02  0.30000233866E+02 0.  0.
         12    1    1    2    0    0  0.38545008771E+02  0.28990782382E+01  0.12610989862E+02  0.40659063210E+02  0.00000000000E+00 0. -1.
         11    1    3    3    0    0  0.27338514422E+01  0.11007191250E+01 -0.33960180716E+01  0.44964947797E+01  0.51100000000E-03 0. -1.
        -11    1    3    3    0    0 -0.16983785857E+02 -0.32363554819E+01  0.48404471755E+01  0.17954189148E+02  0.51100000000E-03 0.  1.
         12    1    3    3    0    0 -0.24295074356E+02 -0.76344188121E+00 -0.14055418966E+02  0.28078252862E+02  0.00000000000E+00 0. -1.
</event>
<event>
 7    1  0.5479172E-013  0.5052886E+02  0.7816164E-02  0.1300439E+00
        -11   -1    0    0    0    0  0.00000000000E+00  0.00000000000E+00  0.45593999997E+02  0.45594000000E+02  0.51100000000E-03 0. -1.
         11   -1    0    0    0    0 -0.00000000000E+00 -0.00000000000E+00 -0.45593999997E+02  0.45594000000E+02  0.51100000000E-03 0.  1.
    9900012    2    1    2    0    0  0.29053203217E+02 -0.10769476516E+02 -0.26326707370E+02  0.50528858807E+02  0.29999996831E+02 0.  0.
         12    1    1    2    0    0 -0.29053203217E+02  0.10769476516E+02  0.26326707370E+02  0.40659141193E+02  0.00000000000E+00 0. -1.
         11    1    3    3    0    0  0.10130680803E+02 -0.11980641221E+02 -0.15719406793E+02  0.22209597200E+02  0.51100000000E-03 0. -1.
        -11    1    3    3    0    0  0.15731977685E+02  0.50277063464E+01 -0.14519525507E+02  0.21990670162E+02  0.51100000000E-03 0.  1.
         12    1    3    3    0    0  0.31905447291E+01 -0.38165416415E+01  0.39122249306E+01  0.63285914450E+01  0.00000000000E+00 0. -1.
</event>
<event>
 7    1  0.5479172E-013  0.5052883E+02  0.7816164E-02  0.1300439E+00
        -11   -1    0    0    0    0  0.00000000000E+00  0.00000000000E+00  0.45593999997E+02  0.45594000000E+02  0.51100000000E-03 0.  1.
         11   -1    0    0    0    0 -0.00000000000E+00 -0.00000000000E+00 -0.45593999997E+02  0.45594000000E+02  0.51100000000E-03 0. -1.
    9900012    2    1    2    0    0 -0.19746636646E+01  0.87058838370E+01  0.39667066522E+02  0.50528832812E+02  0.29999917815E+02 0.  0.
         12    1    1    2    0    0  0.19746636646E+01 -0.87058838370E+01 -0.39667066522E+02  0.40659167188E+02  0.00000000000E+00 0. -1.
         11    1    3    3    0    0 -0.48188462779E+01  0.68664487985E+00  0.16439071512E+02  0.17144556952E+02  0.51100000000E-03 0. -1.
        -11    1    3    3    0    0 -0.31355515070E+01 -0.69742866827E+01  0.94922503825E+01  0.12189141708E+02  0.51100000000E-03 0.  1.
         12    1    3    3    0    0  0.59797341202E+01  0.14993525640E+02  0.13735744628E+02  0.21195134152E+02  0.00000000000E+00 0. -1.
</event>
<event>
 7    1  0.5479172E-013  0.5052884E+02  0.7816164E-02  0.1300439E+00
        -11   -1    0    0    0    0  0.00000000000E+00  0.00000000000E+00  0.45593999997E+02  0.45594000000E+02  0.51100000000E-03 0. -1.
         11   -1    0    0    0    0 -0.00000000000E+00 -0.00000000000E+00 -0.45593999997E+02  0.45594000000E+02  0.51100000000E-03 0.  1.
    9900012    2    1    2    0    0  0.87221052001E+01  0.37936985031E+02 -0.11742107400E+02  0.50528843115E+02  0.29999949133E+02 0.  0.
         12    1    1    2    0    0 -0.87221052001E+01 -0.37936985031E+02  0.11742107400E+02  0.40659156885E+02  0.00000000000E+00 0. -1.
         11    1    3    3    0    0  0.54950537796E+01  0.18050142215E+02  0.71391144528E+01  0.20173502558E+02  0.51100000000E-03 0. -1.
        -11    1    3    3    0    0  0.40922901143E+00  0.10233185358E+02 -0.16064819231E+01  0.10366597098E+02  0.51100000000E-03 0.  1.
         12    1    3    3    0    0  0.28178224090E+01  0.96536574578E+01 -0.17274739930E+02  0.19988743459E+02  0.00000000000E+00 0. -1.
</event>
<event>
 7    1  0.5479172E-013  0.5052887E+02  0.7816164E-02  0.1300439E+00
        -11   -1    0    0    0    0  0.00000000000E+00  0.00000000000E+00  0.45593999997E+02  0.45594000000E+02  0.51100000000E-03 0.  1.
         11   -1    0    0    0    0 -0.00000000000E+00 -0.00000000000E+00 -0.45593999997E+02  0.45594000000E+02  0.51100000000E-03 0. -1.
    9900012    2    1    2    0    0  0.11097667966E+02  0.67229160479E+00  0.39109520551E+02  0.50528870545E+02  0.30000032510E+02 0.  0.
         12    1    1    2    0    0 -0.11097667966E+02 -0.67229160479E+00 -0.39109520551E+02  0.40659129455E+02  0.00000000000E+00 0. -1.
         11    1    3    3    0    0  0.12674261577E+02 -0.21315343838E+01  0.15299602999E+02  0.19981446333E+02  0.51100000000E-03 0. -1.
        -11    1    3    3    0    0  0.54690568291E+01 -0.40626817799E+01  0.17701077233E+02  0.18966921240E+02  0.51100000000E-03 0.  1.
         12    1    3    3    0    0 -0.70456504405E+01  0.68665077685E+01  0.61088403187E+01  0.11580502973E+02  0.00000000000E+00 0. -1.
</event>
<event>
 7    1  0.5479172E-013  0.5052885E+02  0.7816164E-02  0.1300439E+00
        -11   -1    0    0    0    0  0.00000000000E+00  0.00000000000E+00  0.45593999997E+02  0.45594000000E+02  0.51100000000E-03 0.  1.
         11   -1    0    0    0    0 -0.00000000000E+00 -0.00000000000E+00 -0.45593999997E+02  0.45594000000E+02  0.51100000000E-03 0. -1.
    9900012    2    1    2    0    0 -0.85621429362E+00 -0.17748297966E+02  0.36570904195E+02  0.50528853215E+02  0.29999979832E+02 0.  0.
         12    1    1    2    0    0  0.85621429362E+00  0.17748297966E+02 -0.36570904195E+02  0.40659146785E+02  0.00000000000E+00 0. -1.
         11    1    3    3    0    0  0.68562948721E+01 -0.32080280092E+01  0.84004296724E+01  0.11307848691E+02  0.51100000000E-03 0. -1.
        -11    1    3    3    0    0  0.33161512323E+01 -0.15792677409E+02  0.15482234213E+02  0.22363029652E+02  0.51100000000E-03 0.  1.
        -12    1    3    3    0    0 -0.11028660398E+02  0.12524074521E+01  0.12688240310E+02  0.16857974871E+02  0.00000000000E+00 0.  1.
</event>
<event>
 7    1  0.5479172E-013  0.5052886E+02  0.7816164E-02  0.1300439E+00
        -11   -1    0    0    0    0  0.00000000000E+00  0.00000000000E+00  0.45593999997E+02  0.45594000000E+02  0.51100000000E-03 0. -1.
         11   -1    0    0    0    0 -0.00000000000E+00 -0.00000000000E+00 -0.45593999997E+02  0.45594000000E+02  0.51100000000E-03 0.  1.
    9900012    2    1    2    0    0 -0.39694650947E+02 -0.75208419163E+01  0.45757248544E+01  0.50528860377E+02  0.30000001602E+02 0.  0.
         12    1    1    2    0    0  0.39694650947E+02  0.75208419163E+01 -0.45757248544E+01  0.40659139623E+02  0.00000000000E+00 0. -1.
         11    1    3    3    0    0  0.10385799753E+01  0.55789496090E-01 -0.69263212250E+00  0.12496000765E+01  0.51100000000E-03 0. -1.
        -11    1    3    3    0    0 -0.14076503948E+02  0.98107198444E+01  0.13106958168E+01  0.17208024612E+02  0.51100000000E-03 0.  1.
         12    1    3    3    0    0 -0.26656726975E+02 -0.17387351257E+02  0.39576611601E+01  0.32071235689E+02  0.00000000000E+00 0. -1.
</event>
<event>
 7    1  0.5479172E-013  0.5052885E+02  0.7816164E-02  0.1300439E+00
        -11   -1    0    0    0    0  0.00000000000E+00  0.00000000000E+00  0.45593999997E+02  0.45594000000E+02  0.51100000000E-03 0.  1.
         11   -1    0    0    0    0 -0.00000000000E+00 -0.00000000000E+00 -0.45593999997E+02  0.45594000000E+02  0.51100000000E-03 0. -1.
    9900012    2    1    2    0    0  0.38790811915E+02 -0.12159636459E+02  0.76336515196E+00  0.50528848827E+02  0.29999966493E+02 0.  0.
         12    1    1    2    0    0 -0.38790811915E+02  0.12159636459E+02 -0.76336515196E+00  0.40659151173E+02  0.00000000000E+00 0. -1.
         11    1    3    3    0    0  0.48468795482E+01 -0.59447005957E+01 -0.73909641270E+01  0.10651669236E+02  0.51100000000E-03 0. -1.
        -11    1    3    3    0    0  0.12609405453E+01  0.36596624697E+01 -0.18630446472E+01  0.42958161122E+01  0.51100000000E-03 0.  1.
        -12    1    3    3    0    0  0.32682991821E+02 -0.98745983325E+01  0.10017373926E+02  0.35581363478E+02  0.00000000000E+00 0.  1.
</event>
<event>
 7    1  0.5479172E-013  0.5052886E+02  0.7816164E-02  0.1300439E+00
        -11   -1    0    0    0    0  0.00000000000E+00  0.00000000000E+00  0.45593999997E+02  0.45594000000E+02  0.51100000000E-03 0.  1.
         11   -1    0    0    0    0 -0.00000000000E+00 -0.00000000000E+00 -0.45593999997E+02  0.45594000000E+02  0.51100000000E-03 0. -1.
    9900012    2    1    2    0    0  0.47097955377E+01  0.48443403855E+01  0.40093837335E+02  0.50528860806E+02  0.30000002906E+02 0.  0.
         12    1    1    2    0    0 -0.47097955377E+01 -0.48443403855E+01 -0.40093837335E+02  0.40659139194E+02  0.00000000000E+00 0. -1.
         11    1    3    3    0    0 -0.50869253713E+01  0.28072214747E+00 -0.21983265614E+01  0.55487164812E+01  0.51100000000E-03 0. -1.
        -11    1    3    3    0    0 -0.78204452716E+00 -0.22597019467E+01  0.38781154294E+01  0.45560537832E+01  0.51100000000E-03 0.  1.
        -12    1    3    3    0    0  0.10578765436E+02  0.68233201847E+01  0.38414048467E+02  0.40424090541E+02  0.00000000000E+00 0.  1.
</event>
<event>
 7    1  0.5479172E-013  0.5052882E+02  0.7816164E-02  0.1300439E+00
        -11   -1    0    0    0    0  0.00000000000E+00  0.00000000000E+00  0.45593999997E+02  0.45594000000E+02  0.51100000000E-03 0. -1.
         11   -1    0    0    0    0 -0.00000000000E+00 -0.00000000000E+00 -0.45593999997E+02  0.45594000000E+02  0.51100000000E-03 0.  1.
    9900012    2    1    2    0    0  0.94827655942E+01  0.45900537544E+00 -0.39535237541E+02  0.50528824692E+02  0.29999893135E+02 0.  0.
         12    1    1    2    0    0 -0.94827655942E+01 -0.45900537544E+00  0.39535237541E+02  0.40659175308E+02  0.00000000000E+00 0. -1.
         11    1    3    3    0    0 -0.45399494736E+01  0.85369655463E+01 -0.10909266029E+02  0.14577482893E+02  0.51100000000E-03 0. -1.
        -11    1    3    3    0    0  0.66856699203E+01  0.11984505899E+00 -0.22255638222E+02  0.23238459029E+02  0.51100000000E-03 0.  1.
        -12    1    3    3    0    0  0.73370451475E+01 -0.81978052299E+01 -0.63703332902E+01  0.12712882770E+02  0.00000000000E+00 0.  1.
</event>
<event>
 7    1  0.5479172E-013  0.5052886E+02  0.7816164E-02  0.1300439E+00
        -11   -1    0    0    0    0  0.00000000000E+00  0.00000000000E+00  0.45593999997E+02  0.45594000000E+02  0.51100000000E-03 0.  1.
         11   -1    0    0    0    0 -0.00000000000E+00 -0.00000000000E+00 -0.45593999997E+02  0.45594000000E+02  0.51100000000E-03 0. -1.
    9900012    2    1    2    0    0  0.32505301059E+02 -0.20071083019E+02 -0.13918437146E+02  0.50528857570E+02  0.29999993071E+02 0.  0.
         12    1    1    2    0    0 -0.32505301059E+02  0.20071083019E+02  0.13918437146E+02  0.40659142430E+02  0.00000000000E+00 0. -1.
         11    1    3    3    0    0  0.70645411506E+01 -0.88789254729E+01  0.61541290608E+01  0.12907996126E+02  0.51100000000E-03 0. -1.
        -11    1    3    3    0    0  0.13756492038E+01 -0.39345450355E+01  0.15675802903E+01  0.44531296406E+01  0.51100000000E-03 0.  1.
        -12    1    3    3    0    0  0.24065110705E+02 -0.72576125104E+01 -0.21640146497E+02  0.33167731804E+02  0.00000000000E+00 0.  1.
</event>
<event>
 7    1  0.5479172E-013  0.5052885E+02  0.7816164E-02  0.1300439E+00
        -11   -1    0    0    0    0  0.00000000000E+00  0.00000000000E+00  0.45593999997E+02  0.45594000000E+02  0.51100000000E-03 0. -1.
         11   -1    0    0    0    0 -0.00000000000E+00 -0.00000000000E+00 -0.45593999997E+02  0.45594000000E+02  0.51100000000E-03 0.  1.
    9900012    2    1    2    0    0 -0.36737464238E+02 -0.12755125093E+01 -0.17375220022E+02  0.50528849965E+02  0.29999969952E+02 0.  0.
         12    1    1    2    0    0  0.36737464238E+02  0.12755125093E+01  0.17375220022E+02  0.40659150035E+02  0.00000000000E+00 0. -1.
         11    1    3    3    0    0 -0.54595786560E+01  0.72443162751E+01 -0.68052917720E+01  0.11340154927E+02  0.51100000000E-03 0.  1.
        -11    1    3    3    0    0 -0.13669557052E+00 -0.63593468044E+01 -0.31727039059E+01  0.71081662750E+01  0.51100000000E-03 0. -1.
        -12    1    3    3    0    0 -0.31141190011E+02 -0.21604819799E+01 -0.73972243441E+01  0.32080528763E+02  0.00000000000E+00 0.  1.
</event>
<event>
 7    1  0.5479172E-013  0.5052886E+02  0.7816164E-02  0.1300439E+00
        -11   -1    0    0    0    0  0.00000000000E+00  0.00000000000E+00  0.45593999997E+02  0.45594000000E+02  0.51100000000E-03 0.  1.
         11   -1    0    0    0    0 -0.00000000000E+00 -0.00000000000E+00 -0.45593999997E+02  0.45594000000E+02  0.51100000000E-03 0. -1.
    9900012    2    1    2    0    0 -0.27870883763E+02 -0.29600569588E+02  0.43113743561E+00  0.50528858824E+02  0.29999996881E+02 0.  0.
         12    1    1    2    0    0  0.27870883763E+02  0.29600569588E+02 -0.43113743561E+00  0.40659141176E+02  0.00000000000E+00 0. -1.
         11    1    3    3    0    0 -0.11213665694E+02  0.18200628812E+01  0.42585991221E+01  0.12132377917E+02  0.51100000000E-03 0. -1.
        -11    1    3    3    0    0 -0.15439573980E+02 -0.15073152562E+02 -0.64691462132E-01  0.21577408512E+02  0.51100000000E-03 0.  1.
         12    1    3    3    0    0 -0.12176440893E+01 -0.16347479908E+02 -0.37627702244E+01  0.16819072395E+02  0.00000000000E+00 0. -1.
</event>
<event>
 7    1  0.5479172E-013  0.5052886E+02  0.7816164E-02  0.1300439E+00
        -11   -1    0    0    0    0  0.00000000000E+00  0.00000000000E+00  0.45593999997E+02  0.45594000000E+02  0.51100000000E-03 0. -1.
         11   -1    0    0    0    0 -0.00000000000E+00 -0.00000000000E+00 -0.45593999997E+02  0.45594000000E+02  0.51100000000E-03 0.  1.
    9900012    2    1    2    0    0 -0.84858241520E+01 -0.31573412033E+02  0.24171805853E+02  0.50528858873E+02  0.29999997031E+02 0.  0.
         12    1    1    2    0    0  0.84858241520E+01  0.31573412033E+02 -0.24171805853E+02  0.40659141127E+02  0.00000000000E+00 0. -1.
         11    1    3    3    0    0 -0.30618045874E+01  0.19756075536E+01 -0.67548996736E+00  0.37059357110E+01  0.51100000000E-03 0. -1.
        -11    1    3    3    0    0 -0.80542816381E+01 -0.23042632870E+02  0.60814038765E+01  0.25155871197E+02  0.51100000000E-03 0.  1.
         12    1    3    3    0    0  0.26302620735E+01 -0.10506386717E+02  0.18765891944E+02  0.21667051966E+02  0.00000000000E+00 0. -1.
</event>
<event>
 7    1  0.5479172E-013  0.5052885E+02  0.7816164E-02  0.1300439E+00
        -11   -1    0    0    0    0  0.00000000000E+00  0.00000000000E+00  0.45593999997E+02  0.45594000000E+02  0.51100000000E-03 0.  1.
         11   -1    0    0    0    0 -0.00000000000E+00 -0.00000000000E+00 -0.45593999997E+02  0.45594000000E+02  0.51100000000E-03 0. -1.
    9900012    2    1    2    0    0  0.23986818031E+02  0.97367643078E+01  0.31352740593E+02  0.50528851446E+02  0.29999974455E+02 0.  0.
         12    1    1    2    0    0 -0.23986818031E+02 -0.97367643078E+01 -0.31352740593E+02  0.40659148554E+02  0.00000000000E+00 0. -1.
         11    1    3    3    0    0  0.68902440033E+01 -0.43012270034E+01  0.14277569977E+02  0.16426351417E+02  0.51100000000E-03 0. -1.
        -11    1    3    3    0    0  0.45177080892E+01  0.10906157860E+02  0.17527029947E+02  0.21131747317E+02  0.51100000000E-03 0.  1.
         12    1    3    3    0    0  0.12578865938E+02  0.31318334509E+01 -0.45185933067E+00  0.12970752712E+02  0.00000000000E+00 0. -1.
</event>
<event>
 7    1  0.5479172E-013  0.5052886E+02  0.7816164E-02  0.1300439E+00
        -11   -1    0    0    0    0  0.00000000000E+00  0.00000000000E+00  0.45593999997E+02  0.45594000000E+02  0.51100000000E-03 0.  1.
         11   -1    0    0    0    0 -0.00000000000E+00 -0.00000000000E+00 -0.45593999997E+02  0.45594000000E+02  0.51100000000E-03 0. -1.
    9900012    2    1    2    0    0  0.17037241421E+02 -0.36594457925E+02  0.48727279268E+01  0.50528862976E+02  0.30000009503E+02 0.  0.
         12    1    1    2    0    0 -0.17037241421E+02  0.36594457925E+02 -0.48727279268E+01  0.40659137024E+02  0.00000000000E+00 0. -1.
         11    1    3    3    0    0  0.29427353838E+01 -0.57912201360E+01 -0.30745630764E+01  0.71868533152E+01  0.51100000000E-03 0. -1.
        -11    1    3    3    0    0  0.19059196225E+02 -0.10983390073E+02  0.21441841821E+01  0.22101704556E+02  0.51100000000E-03 0.  1.
        -12    1    3    3    0    0 -0.49646901881E+01 -0.19819847716E+02  0.58031068212E+01  0.21240305105E+02  0.00000000000E+00 0.  1.
</event>
<event>
 7    1  0.5479172E-013  0.5052886E+02  0.7816164E-02  0.1300439E+00
        -11   -1    0    0    0    0  0.00000000000E+00  0.00000000000E+00  0.45593999997E+02  0.45594000000E+02  0.51100000000E-03 0.  1.
         11   -1    0    0    0    0 -0.00000000000E+00 -0.00000000000E+00 -0.45593999997E+02  0.45594000000E+02  0.51100000000E-03 0. -1.
    9900012    2    1    2    0    0 -0.28336532371E+02  0.19876205263E+02  0.21334073151E+02  0.50528864745E+02  0.30000014880E+02 0.  0.
         12    1    1    2    0    0  0.28336532371E+02 -0.19876205263E+02 -0.21334073151E+02  0.40659135255E+02  0.00000000000E+00 0. -1.
         11    1    3    3    0    0  0.92890018616E+00  0.11674254066E+02  0.70051682356E+00  0.11732083687E+02  0.51100000000E-03 0. -1.
        -11    1    3    3    0    0 -0.16841170108E+01  0.39258696078E+01  0.57571501637E+01  0.71689246441E+01  0.51100000000E-03 0.  1.
        -12    1    3    3    0    0 -0.27581315546E+02  0.42760815892E+01  0.14876406163E+02  0.31627856414E+02  0.00000000000E+00 0.  1.
</event>
<event>
 7    1  0.5479172E-013  0.5052886E+02  0.7816164E-02  0.1300439E+00
        -11   -1    0    0    0    0  0.00000000000E+00  0.00000000000E+00  0.45593999997E+02  0.45594000000E+02  0.51100000000E-03 0.  1.
         11   -1    0    0    0    0 -0.00000000000E+00 -0.00000000000E+00 -0.45593999997E+02  0.45594000000E+02  0.51100000000E-03 0. -1.
    9900012    2    1    2    0    0  0.12667866193E+02 -0.38511793503E+02  0.30875524827E+01  0.50528855235E+02  0.29999985972E+02 0.  0.
         12    1    1    2    0    0 -0.12667866193E+02  0.38511793503E+02 -0.30875524827E+01  0.40659144765E+02  0.00000000000E+00 0. -1.
         11    1    3    3    0    0  0.41262991148E+01 -0.14527395021E+01  0.57549535150E+01  0.72288509922E+01  0.51100000000E-03 0. -1.
        -11    1    3    3    0    0  0.57997028458E+01 -0.15398447357E+02  0.87769776663E+01  0.18648969712E+02  0.51100000000E-03 0.  1.
         12    1    3    3    0    0  0.27418642327E+01 -0.21660606643E+02 -0.11444378699E+02  0.24651034531E+02  0.00000000000E+00 0. -1.
</event>
<event>
 7    1  0.5479172E-013  0.5052882E+02  0.7816164E-02  0.1300439E+00
        -11   -1    0    0    0    0  0.00000000000E+00  0.00000000000E+00  0.45593999997E+02  0.45594000000E+02  0.51100000000E-03 0.  1.
         11   -1    0    0    0    0 -0.00000000000E+00 -0.00000000000E+00 -0.45593999997E+02  0.45594000000E+02  0.51100000000E-03 0. -1.
    9900012    2    1    2    0    0 -0.57635463660E+01  0.12893346142E+02  0.38127578773E+02  0.50528817709E+02  0.29999871909E+02 0.  0.
         12    1    1    2    0    0  0.57635463660E+01 -0.12893346142E+02 -0.38127578773E+02  0.40659182291E+02  0.00000000000E+00 0. -1.
         11    1    3    3    0    0  0.10277980725E+02  0.46690457494E+01  0.10529894260E+02  0.15437472247E+02  0.51100000000E-03 0. -1.
        -11    1    3    3    0    0  0.16551187533E+00  0.24870132115E+01  0.10694563111E+02  0.10981179776E+02  0.51100000000E-03 0.  1.
         12    1    3    3    0    0 -0.16207038966E+02  0.57372871816E+01  0.16903121403E+02  0.24110165686E+02  0.00000000000E+00 0. -1.
</event>
<event>
 7    1  0.5479172E-013  0.5052886E+02  0.7816164E-02  0.1300439E+00
        -11   -1    0    0    0    0  0.00000000000E+00  0.00000000000E+00  0.45593999997E+02  0.45594000000E+02  0.51100000000E-03 0.  1.
         11   -1    0    0    0    0 -0.00000000000E+00 -0.00000000000E+00 -0.45593999997E+02  0.45594000000E+02  0.51100000000E-03 0. -1.
    9900012    2    1    2    0    0  0.21596170762E+02 -0.85689647320E-01  0.34449438935E+02  0.50528858627E+02  0.29999996281E+02 0.  0.
         12    1    1    2    0    0 -0.21596170762E+02  0.85689647320E-01 -0.34449438935E+02  0.40659141373E+02  0.00000000000E+00 0. -1.
         11    1    3    3    0    0  0.11410563101E+02 -0.11611819933E+02  0.69485808967E+01  0.17700793462E+02  0.51100000000E-03 0.  1.
        -11    1    3    3    0    0 -0.10705638751E+01  0.16192249640E+01  0.79804851368E+01  0.82131686805E+01  0.51100000000E-03 0. -1.
        -12    1    3    3    0    0  0.11256171536E+02  0.99069053220E+01  0.19520372902E+02  0.24614896484E+02  0.00000000000E+00 0.  1.
</event>
<event>
 7    1  0.5479172E-013  0.5052885E+02  0.7816164E-02  0.1300439E+00
        -11   -1    0    0    0    0  0.00000000000E+00  0.00000000000E+00  0.45593999997E+02  0.45594000000E+02  0.51100000000E-03 0.  1.
         11   -1    0    0    0    0 -0.00000000000E+00 -0.00000000000E+00 -0.45593999997E+02  0.45594000000E+02  0.51100000000E-03 0. -1.
    9900012    2    1    2    0    0  0.47148807917E+01  0.24442415801E+02  0.32148172839E+02  0.50528845951E+02  0.29999957753E+02 0.  0.
         12    1    1    2    0    0 -0.47148807917E+01 -0.24442415801E+02 -0.32148172839E+02  0.40659154049E+02  0.00000000000E+00 0. -1.
         11    1    3    3    0    0  0.98370405447E+01  0.22435301413E+02  0.25456514579E+02  0.35329085057E+02  0.51100000000E-03 0. -1.
        -11    1    3    3    0    0 -0.43591811554E+01  0.71022698028E+01  0.52525253421E+01  0.98505694976E+01  0.51100000000E-03 0.  1.
         12    1    3    3    0    0 -0.76297859763E+00 -0.50951554148E+01  0.14391329180E+01  0.53491913966E+01  0.00000000000E+00 0. -1.
</event>
<event>
 7    1  0.5479172E-013  0.5052885E+02  0.7816164E-02  0.1300439E+00
        -11   -1    0    0    0    0  0.00000000000E+00  0.00000000000E+00  0.45593999997E+02  0.45594000000E+02  0.51100000000E-03 0.  1.
         11   -1    0    0    0    0 -0.00000000000E+00 -0.00000000000E+00 -0.45593999997E+02  0.45594000000E+02  0.51100000000E-03 0. -1.
    9900012    2    1    2    0    0 -0.27789822007E+02  0.15568383878E+02 -0.25268902273E+02  0.50528853356E+02  0.29999980260E+02 0.  0.
         12    1    1    2    0    0  0.27789822007E+02 -0.15568383878E+02  0.25268902273E+02  0.40659146644E+02  0.00000000000E+00 0. -1.
         11    1    3    3    0    0 -0.16817703941E+02  0.92810587175E+01 -0.15766697258E+02  0.24850793940E+02  0.51100000000E-03 0. -1.
        -11    1    3    3    0    0 -0.16023813683E+02  0.29913454099E+01 -0.10739743867E+02  0.19520575066E+02  0.51100000000E-03 0.  1.
         12    1    3    3    0    0  0.50516956162E+01  0.32959797502E+01  0.12375388521E+01  0.61574843502E+01  0.00000000000E+00 0. -1.
</event>
<event>
 7    1  0.5479172E-013  0.5052886E+02  0.7816164E-02  0.1300439E+00
        -11   -1    0    0    0    0  0.00000000000E+00  0.00000000000E+00  0.45593999997E+02  0.45594000000E+02  0.51100000000E-03 0. -1.
         11   -1    0    0    0    0 -0.00000000000E+00 -0.00000000000E+00 -0.45593999997E+02  0.45594000000E+02  0.51100000000E-03 0.  1.
    9900012    2    1    2    0    0  0.18615416162E+02 -0.36487225805E+01 -0.35962738836E+02  0.50528862283E+02  0.30000007395E+02 0.  0.
         12    1    1    2    0    0 -0.18615416162E+02  0.36487225805E+01  0.35962738836E+02  0.40659137717E+02  0.00000000000E+00 0. -1.
         11    1    3    3    0    0  0.74104939586E+01  0.36368872312E+01 -0.14311581103E+02  0.16521613825E+02  0.51100000000E-03 0. -1.
        -11    1    3    3    0    0  0.16527176257E+02 -0.34273861854E+01 -0.21626552106E+02  0.27433597783E+02  0.51100000000E-03 0.  1.
         12    1    3    3    0    0 -0.53222540534E+01 -0.38582236263E+01 -0.24605626761E-01  0.65736506750E+01  0.00000000000E+00 0. -1.
</event>
<event>
 7    1  0.5479172E-013  0.5052886E+02  0.7816164E-02  0.1300439E+00
        -11   -1    0    0    0    0  0.00000000000E+00  0.00000000000E+00  0.45593999997E+02  0.45594000000E+02  0.51100000000E-03 0. -1.
         11   -1    0    0    0    0 -0.00000000000E+00 -0.00000000000E+00 -0.45593999997E+02  0.45594000000E+02  0.51100000000E-03 0.  1.
    9900012    2    1    2    0    0  0.31159060155E+02  0.22282497584E+02 -0.13629696661E+02  0.50528863765E+02  0.30000011901E+02 0.  0.
         12    1    1    2    0    0 -0.31159060155E+02 -0.22282497584E+02  0.13629696661E+02  0.40659136235E+02  0.00000000000E+00 0. -1.
         11    1    3    3    0    0  0.23099723190E+01  0.26789703873E+01  0.83396978984E+00  0.36343307943E+01  0.51100000000E-03 0. -1.
        -11    1    3    3    0    0  0.28894076716E+02  0.59679230622E+01 -0.41430009777E+01  0.29793425992E+02  0.51100000000E-03 0.  1.
        -12    1    3    3    0    0 -0.44988880764E-01  0.13635604135E+02 -0.10320665473E+02  0.17101106979E+02  0.00000000000E+00 0.  1.
</event>
<event>
 7    1  0.5479172E-013  0.5052884E+02  0.7816164E-02  0.1300439E+00
        -11   -1    0    0    0    0  0.00000000000E+00  0.00000000000E+00  0.45593999997E+02  0.45594000000E+02  0.51100000000E-03 0. -1.
         11   -1    0    0    0    0 -0.00000000000E+00 -0.00000000000E+00 -0.45593999997E+02  0.45594000000E+02  0.51100000000E-03 0.  1.
    9900012    2    1    2    0    0  0.26791888298E+02 -0.30543629589E+02  0.15647560467E+01  0.50528842993E+02  0.29999948761E+02 0.  0.
         12    1    1    2    0    0 -0.26791888298E+02  0.30543629589E+02 -0.15647560467E+01  0.40659157007E+02  0.00000000000E+00 0. -1.
         11    1    3    3    0    0 -0.57517190283E+00 -0.63728494010E+01 -0.17466932600E+01  0.66328704051E+01  0.51100000000E-03 0. -1.
        -11    1    3    3    0    0  0.11458961846E+02 -0.24631029728E+02  0.58260662657E+01  0.27783780889E+02  0.51100000000E-03 0.  1.
         12    1    3    3    0    0  0.15908098355E+02  0.46024954066E+00 -0.25146169590E+01  0.16112191699E+02  0.00000000000E+00 0. -1.
</event>
<event>
 7    1  0.5479172E-013  0.5052887E+02  0.7816164E-02  0.1300439E+00
        -11   -1    0    0    0    0  0.00000000000E+00  0.00000000000E+00  0.45593999997E+02  0.45594000000E+02  0.51100000000E-03 0.  1.
         11   -1    0    0    0    0 -0.00000000000E+00 -0.00000000000E+00 -0.45593999997E+02  0.45594000000E+02  0.51100000000E-03 0. -1.
    9900012    2    1    2    0    0 -0.16107903398E+02 -0.31330000441E+02  0.20301028169E+02  0.50528865427E+02  0.30000016953E+02 0.  0.
         12    1    1    2    0    0  0.16107903398E+02  0.31330000441E+02 -0.20301028169E+02  0.40659134573E+02  0.00000000000E+00 0. -1.
         11    1    3    3    0    0 -0.39020424090E+01  0.52270278062E+00  0.13261089889E+00  0.39391292274E+01  0.51100000000E-03 0. -1.
        -11    1    3    3    0    0 -0.80065026835E+01  0.16088523795E+01  0.52850077901E+01  0.97274764869E+01  0.51100000000E-03 0.  1.
        -12    1    3    3    0    0 -0.41993583056E+01 -0.33461555601E+02  0.14883409480E+02  0.36862259713E+02  0.00000000000E+00 0.  1.
</event>
<event>
 7    1  0.5479172E-013  0.5052884E+02  0.7816164E-02  0.1300439E+00
        -11   -1    0    0    0    0  0.00000000000E+00  0.00000000000E+00  0.45593999997E+02  0.45594000000E+02  0.51100000000E-03 0.  1.
         11   -1    0    0    0    0 -0.00000000000E+00 -0.00000000000E+00 -0.45593999997E+02  0.45594000000E+02  0.51100000000E-03 0. -1.
    9900012    2    1    2    0    0  0.26478539801E+02  0.22973620234E+02  0.20597737283E+02  0.50528842633E+02  0.29999947666E+02 0.  0.
         12    1    1    2    0    0 -0.26478539801E+02 -0.22973620234E+02 -0.20597737283E+02  0.40659157367E+02  0.00000000000E+00 0. -1.
         11    1    3    3    0    0  0.10299181938E+01  0.67172610988E+01 -0.27938937483E+01  0.73476643019E+01  0.51100000000E-03 0. -1.
        -11    1    3    3    0    0  0.56205270779E+01  0.15886539377E+00 -0.30687791426E+01  0.64056981301E+01  0.51100000000E-03 0.  1.
        -12    1    3    3    0    0  0.19828094529E+02  0.16097493741E+02  0.26460410174E+02  0.36775480201E+02  0.00000000000E+00 0.  1.
</event>
<event>
 7    1  0.5479172E-013  0.5052886E+02  0.7816164E-02  0.1300439E+00
        -11   -1    0    0    0    0  0.00000000000E+00  0.00000000000E+00  0.45593999997E+02  0.45594000000E+02  0.51100000000E-03 0. -1.
         11   -1    0    0    0    0 -0.00000000000E+00 -0.00000000000E+00 -0.45593999997E+02  0.45594000000E+02  0.51100000000E-03 0.  1.
    9900012    2    1    2    0    0  0.18468004543E+02  0.33768739778E+02 -0.13106139036E+02  0.50528857628E+02  0.29999993247E+02 0.  0.
         12    1    1    2    0    0 -0.18468004543E+02 -0.33768739778E+02  0.13106139036E+02  0.40659142372E+02  0.00000000000E+00 0. -1.
         11    1    3    3    0    0  0.13623329036E+02  0.32183991743E+01 -0.13111563505E+02  0.19179840591E+02  0.51100000000E-03 0. -1.
        -11    1    3    3    0    0  0.17079456043E+01  0.89103016137E+01 -0.23060101938E+01  0.93609954764E+01  0.51100000000E-03 0.  1.
         12    1    3    3    0    0  0.31367299023E+01  0.21640038990E+02  0.23114346635E+01  0.21988021561E+02  0.00000000000E+00 0. -1.
</event>
<event>
 7    1  0.5479172E-013  0.5052886E+02  0.7816164E-02  0.1300439E+00
        -11   -1    0    0    0    0  0.00000000000E+00  0.00000000000E+00  0.45593999997E+02  0.45594000000E+02  0.51100000000E-03 0.  1.
         11   -1    0    0    0    0 -0.00000000000E+00 -0.00000000000E+00 -0.45593999997E+02  0.45594000000E+02  0.51100000000E-03 0. -1.
    9900012    2    1    2    0    0 -0.29901135197E+02  0.19054395187E+02 -0.19900191378E+02  0.50528862295E+02  0.30000007431E+02 0.  0.
         12    1    1    2    0    0  0.29901135197E+02 -0.19054395187E+02  0.19900191378E+02  0.40659137705E+02  0.00000000000E+00 0. -1.
         11    1    3    3    0    0  0.28151202433E+01 -0.45190214962E+01 -0.45343649726E+01  0.69933484993E+01  0.51100000000E-03 0. -1.
        -11    1    3    3    0    0 -0.20900554164E+02  0.12974037705E+02 -0.11719306334E+02  0.27248870801E+02  0.51100000000E-03 0.  1.
        -12    1    3    3    0    0 -0.11815701276E+02  0.10599378979E+02 -0.36465200720E+01  0.16286642994E+02  0.00000000000E+00 0.  1.
</event>
<event>
 7    1  0.5479172E-013  0.5052886E+02  0.7816164E-02  0.1300439E+00
        -11   -1    0    0    0    0  0.00000000000E+00  0.00000000000E+00  0.45593999997E+02  0.45594000000E+02  0.51100000000E-03 0.  1.
         11   -1    0    0    0    0 -0.00000000000E+00 -0.00000000000E+00 -0.45593999997E+02  0.45594000000E+02  0.51100000000E-03 0. -1.
    9900012    2    1    2    0    0  0.20325868457E+02 -0.33093765673E+02 -0.12034432408E+02  0.50528858121E+02  0.29999994744E+02 0.  0.
         12    1    1    2    0    0 -0.20325868457E+02  0.33093765673E+02  0.12034432408E+02  0.40659141879E+02  0.00000000000E+00 0. -1.
         11    1    3    3    0    0 -0.44199046998E+01 -0.52777097014E+01 -0.10045746612E+02  0.12178128037E+02  0.51100000000E-03 0. -1.
        -11    1    3    3    0    0  0.35793500224E+01 -0.48021816483E+01 -0.36937335754E+01  0.70367864223E+01  0.51100000000E-03 0.  1.
        -12    1    3    3    0    0  0.21166423134E+02 -0.23013874324E+02  0.17050477785E+01  0.31313943661E+02  0.00000000000E+00 0.  1.
</event>
<event>
 7    1  0.5479172E-013  0.5052885E+02  0.7816164E-02  0.1300439E+00
        -11   -1    0    0    0    0  0.00000000000E+00  0.00000000000E+00  0.45593999997E+02  0.45594000000E+02  0.51100000000E-03 0.  1.
         11   -1    0    0    0    0 -0.00000000000E+00 -0.00000000000E+00 -0.45593999997E+02  0.45594000000E+02  0.51100000000E-03 0. -1.
    9900012    2    1    2    0    0  0.15109416385E+02  0.26240354814E+02  0.27135132818E+02  0.50528854445E+02  0.29999983570E+02 0.  0.
         12    1    1    2    0    0 -0.15109416385E+02 -0.26240354814E+02 -0.27135132818E+02  0.40659145555E+02  0.00000000000E+00 0. -1.
         11    1    3    3    0    0  0.64651651610E+01  0.10002942441E+02  0.35014675945E+00  0.11915528568E+02  0.51100000000E-03 0. -1.
        -11    1    3    3    0    0  0.62191213053E+01  0.16592976525E+02  0.76147131288E+01  0.19286995517E+02  0.51100000000E-03 0.  1.
        -12    1    3    3    0    0  0.24251299188E+01 -0.35556415187E+00  0.19170272930E+02  0.19326330360E+02  0.00000000000E+00 0.  1.
</event>
<event>
 7    1  0.5479172E-013  0.5052886E+02  0.7816164E-02  0.1300439E+00
        -11   -1    0    0    0    0  0.00000000000E+00  0.00000000000E+00  0.45593999997E+02  0.45594000000E+02  0.51100000000E-03 0.  1.
         11   -1    0    0    0    0 -0.00000000000E+00 -0.00000000000E+00 -0.45593999997E+02  0.45594000000E+02  0.51100000000E-03 0. -1.
    9900012    2    1    2    0    0 -0.37285169540E+02  0.16159396841E+02 -0.13623142086E+01  0.50528857438E+02  0.29999992668E+02 0.  0.
         12    1    1    2    0    0  0.37285169540E+02 -0.16159396841E+02  0.13623142086E+01  0.40659142562E+02  0.00000000000E+00 0. -1.
         11    1    3    3    0    0 -0.21666454000E+01  0.11897403336E+01 -0.78272528939E+01  0.82082715889E+01  0.51100000000E-03 0. -1.
        -11    1    3    3    0    0 -0.11837479733E+02  0.19779143438E+01 -0.53735857401E+01  0.13149657621E+02  0.51100000000E-03 0.  1.
         12    1    3    3    0    0 -0.23281044407E+02  0.12991742163E+02  0.11838524425E+02  0.29170928228E+02  0.00000000000E+00 0. -1.
</event>
<event>
 7    1  0.5479172E-013  0.5052886E+02  0.7816164E-02  0.1300439E+00
        -11   -1    0    0    0    0  0.00000000000E+00  0.00000000000E+00  0.45593999997E+02  0.45594000000E+02  0.51100000000E-03 0.  1.
         11   -1    0    0    0    0 -0.00000000000E+00 -0.00000000000E+00 -0.45593999997E+02  0.45594000000E+02  0.51100000000E-03 0. -1.
    9900012    2    1    2    0    0 -0.20180508327E+02 -0.17374847209E+02  0.30725032448E+02  0.50528857721E+02  0.29999993530E+02 0.  0.
         12    1    1    2    0    0  0.20180508327E+02  0.17374847209E+02 -0.30725032448E+02  0.40659142279E+02  0.00000000000E+00 0. -1.
         11    1    3    3    0    0 -0.84522475948E+01  0.12785967829E+01  0.21857289471E+02  0.23469478103E+02  0.51100000000E-03 0. -1.
        -11    1    3    3    0    0 -0.69145366705E+01 -0.32400740763E+01  0.77395936850E+01  0.10872451796E+02  0.51100000000E-03 0.  1.
         12    1    3    3    0    0 -0.48137240615E+01 -0.15413369916E+02  0.11281492923E+01  0.16186927823E+02  0.00000000000E+00 0. -1.
</event>
<event>
 7    1  0.5479172E-013  0.5052886E+02  0.7816164E-02  0.1300439E+00
        -11   -1    0    0    0    0  0.00000000000E+00  0.00000000000E+00  0.45593999997E+02  0.45594000000E+02  0.51100000000E-03 0.  1.
         11   -1    0    0    0    0 -0.00000000000E+00 -0.00000000000E+00 -0.45593999997E+02  0.45594000000E+02  0.51100000000E-03 0. -1.
    9900012    2    1    2    0    0 -0.22651422909E+02  0.79564809761E+01  0.32814216351E+02  0.50528863953E+02  0.30000012472E+02 0.  0.
         12    1    1    2    0    0  0.22651422909E+02 -0.79564809761E+01 -0.32814216351E+02  0.40659136047E+02  0.00000000000E+00 0. -1.
         11    1    3    3    0    0 -0.15849685364E+02  0.26011927659E+01  0.27261266517E+02  0.31641039526E+02  0.51100000000E-03 0. -1.
        -11    1    3    3    0    0 -0.96125838466E+01  0.20561957952E+01  0.90171384096E+01  0.13339358857E+02  0.51100000000E-03 0.  1.
         12    1    3    3    0    0  0.28108463017E+01  0.32990924150E+01 -0.34641885751E+01  0.55484655697E+01  0.00000000000E+00 0. -1.
</event>
<event>
 7    1  0.7367049E-013  0.5052888E+02  0.7816164E-02  0.1300439E+00
        -11   -1    0    0    0    0  0.00000000000E+00  0.00000000000E+00  0.45593999997E+02  0.45594000000E+02  0.51100000000E-03 0. -1.
         11   -1    0    0    0    0 -0.00000000000E+00 -0.00000000000E+00 -0.45593999997E+02  0.45594000000E+02  0.51100000000E-03 0.  1.
    9900012    2    1    2    0    0 -0.23946135885E+02 -0.11795634683E+02 -0.30669354946E+02  0.50528883504E+02  0.30000071900E+02 0.  0.
         12    1    1    2    0    0  0.23946135885E+02  0.11795634683E+02  0.30669354946E+02  0.40659116496E+02  0.00000000000E+00 0. -1.
         11    1    3    3    0    0 -0.11065926061E+01 -0.97855749688E+01 -0.30652054892E+01  0.10313947334E+02  0.51100000000E-03 0. -1.
        -11    1    3    3    0    0 -0.17020083918E+02 -0.86750087106E+01 -0.23965986683E+02  0.30648124750E+02  0.51100000000E-03 0.  1.
         12    1    3    3    0    0 -0.58194593610E+01  0.66649489968E+01 -0.36381627736E+01  0.95668114203E+01  0.00000000000E+00 0. -1.
</event>
<event>
 7    1  0.5479172E-013  0.5052886E+02  0.7816164E-02  0.1300439E+00
        -11   -1    0    0    0    0  0.00000000000E+00  0.00000000000E+00  0.45593999997E+02  0.45594000000E+02  0.51100000000E-03 0. -1.
         11   -1    0    0    0    0 -0.00000000000E+00 -0.00000000000E+00 -0.45593999997E+02  0.45594000000E+02  0.51100000000E-03 0.  1.
    9900012    2    1    2    0    0  0.36931258947E+02  0.16916367291E+01 -0.16922952334E+02  0.50528857880E+02  0.29999994013E+02 0.  0.
         12    1    1    2    0    0 -0.36931258947E+02 -0.16916367291E+01  0.16922952334E+02  0.40659142120E+02  0.00000000000E+00 0. -1.
         11    1    3    3    0    0  0.14187582815E+02  0.52085021216E+00 -0.32640850335E+01  0.14567533849E+02  0.51100000000E-03 0. -1.
        -11    1    3    3    0    0  0.27825382789E+02  0.18126576079E+01 -0.13101898363E+02  0.30809047307E+02  0.51100000000E-03 0.  1.
        -12    1    3    3    0    0 -0.50817066573E+01 -0.64187109091E+00 -0.55696893726E+00  0.51522767245E+01  0.00000000000E+00 0.  1.
</event>
<event>
 7    1  0.5479172E-013  0.5052886E+02  0.7816164E-02  0.1300439E+00
        -11   -1    0    0    0    0  0.00000000000E+00  0.00000000000E+00  0.45593999997E+02  0.45594000000E+02  0.51100000000E-03 0. -1.
         11   -1    0    0    0    0 -0.00000000000E+00 -0.00000000000E+00 -0.45593999997E+02  0.45594000000E+02  0.51100000000E-03 0.  1.
    9900012    2    1    2    0    0 -0.38294972832E+02 -0.41357374293E+00 -0.13656116332E+02  0.50528862027E+02  0.30000006617E+02 0.  0.
         12    1    1    2    0    0  0.38294972832E+02  0.41357374293E+00  0.13656116332E+02  0.40659137973E+02  0.00000000000E+00 0. -1.
         11    1    3    3    0    0 -0.18368948324E+01  0.21363406526E+00 -0.10228185134E+02  0.10394017199E+02  0.51100000000E-03 0. -1.
        -11    1    3    3    0    0 -0.27449042850E+01 -0.30415652012E+01  0.37810173581E+01  0.55750973920E+01  0.51100000000E-03 0.  1.
        -12    1    3    3    0    0 -0.33713173715E+02  0.24143573930E+01 -0.72089485557E+01  0.34559747436E+02  0.00000000000E+00 0.  1.
</event>
<event>
 7    1  0.5479172E-013  0.5052886E+02  0.7816164E-02  0.1300439E+00
        -11   -1    0    0    0    0  0.00000000000E+00  0.00000000000E+00  0.45593999997E+02  0.45594000000E+02  0.51100000000E-03 0. -1.
         11   -1    0    0    0    0 -0.00000000000E+00 -0.00000000000E+00 -0.45593999997E+02  0.45594000000E+02  0.51100000000E-03 0.  1.
    9900012    2    1    2    0    0  0.17841030368E+02 -0.92405673125E+01 -0.35347917048E+02  0.50528859718E+02  0.29999999598E+02 0.  0.
         12    1    1    2    0    0 -0.17841030368E+02  0.92405673125E+01  0.35347917048E+02  0.40659140282E+02  0.00000000000E+00 0. -1.
         11    1    3    3    0    0 -0.22825565680E+00 -0.37365584622E+01 -0.79452978741E+01  0.87830363972E+01  0.51100000000E-03 0. -1.
        -11    1    3    3    0    0 -0.98077701253E+00  0.74928693454E+01 -0.28906125869E+01  0.80907759803E+01  0.51100000000E-03 0.  1.
        -12    1    3    3    0    0  0.19050063037E+02 -0.12996878196E+02 -0.24512006587E+02  0.33655047340E+02  0.00000000000E+00 0.  1.
</event>
<event>
 7    1  0.5479172E-013  0.5052887E+02  0.7816164E-02  0.1300439E+00
        -11   -1    0    0    0    0  0.00000000000E+00  0.00000000000E+00  0.45593999997E+02  0.45594000000E+02  0.51100000000E-03 0.  1.
         11   -1    0    0    0    0 -0.00000000000E+00 -0.00000000000E+00 -0.45593999997E+02  0.45594000000E+02  0.51100000000E-03 0. -1.
    9900012    2    1    2    0    0 -0.36995939683E+02  0.10158356953E+02  0.13463771176E+02  0.50528869373E+02  0.30000028948E+02 0.  0.
         12    1    1    2    0    0  0.36995939683E+02 -0.10158356953E+02 -0.13463771176E+02  0.40659130627E+02  0.00000000000E+00 0. -1.
         11    1    3    3    0    0 -0.57377025095E+01  0.28342235158E+01 -0.27753513334E+01  0.69754303315E+01  0.51100000000E-03 0. -1.
        -11    1    3    3    0    0 -0.25951615594E+02  0.14767044063E+02  0.72357426066E+01  0.30723084377E+02  0.51100000000E-03 0.  1.
         12    1    3    3    0    0 -0.53066215796E+01 -0.74429106250E+01  0.90033799030E+01  0.12830354665E+02  0.00000000000E+00 0. -1.
</event>
<event>
 7    1  0.5479172E-013  0.5052886E+02  0.7816164E-02  0.1300439E+00
        -11   -1    0    0    0    0  0.00000000000E+00  0.00000000000E+00  0.45593999997E+02  0.45594000000E+02  0.51100000000E-03 0.  1.
         11   -1    0    0    0    0 -0.00000000000E+00 -0.00000000000E+00 -0.45593999997E+02  0.45594000000E+02  0.51100000000E-03 0. -1.
    9900012    2    1    2    0    0  0.35611908062E+01  0.33937829419E+02  0.22106717022E+02  0.50528864703E+02  0.30000014751E+02 0.  0.
         12    1    1    2    0    0 -0.35611908062E+01 -0.33937829419E+02 -0.22106717022E+02  0.40659135297E+02  0.00000000000E+00 0. -1.
         11    1    3    3    0    0  0.21441502300E+01  0.83346798401E+01  0.34622744900E+01  0.92764008727E+01  0.51100000000E-03 0.  1.
        -11    1    3    3    0    0 -0.79010753256E+01 -0.10816830015E+01  0.12721564386E+01  0.80756059637E+01  0.51100000000E-03 0. -1.
         12    1    3    3    0    0  0.93181159018E+01  0.26684832580E+02  0.17372286093E+02  0.33176857867E+02  0.00000000000E+00 0. -1.
</event>
<event>
 7    1  0.5479172E-013  0.5052886E+02  0.7816164E-02  0.1300439E+00
        -11   -1    0    0    0    0  0.00000000000E+00  0.00000000000E+00  0.45593999997E+02  0.45594000000E+02  0.51100000000E-03 0.  1.
         11   -1    0    0    0    0 -0.00000000000E+00 -0.00000000000E+00 -0.45593999997E+02  0.45594000000E+02  0.51100000000E-03 0. -1.
    9900012    2    1    2    0    0 -0.17565885271E+02  0.36182647091E+02 -0.59515778767E+01  0.50528861359E+02  0.30000004586E+02 0.  0.
         12    1    1    2    0    0  0.17565885271E+02 -0.36182647091E+02  0.59515778767E+01  0.40659138641E+02  0.00000000000E+00 0. -1.
         11    1    3    3    0    0 -0.94048085970E+01  0.13063845417E+02  0.82922829297E+01  0.18107358677E+02  0.51100000000E-03 0.  1.
        -11    1    3    3    0    0 -0.81972051164E+01  0.59990825758E+01 -0.10760078092E-01  0.10157917085E+02  0.51100000000E-03 0. -1.
         12    1    3    3    0    0  0.36128442393E-01  0.17119719098E+02 -0.14233100728E+02  0.22263585596E+02  0.00000000000E+00 0. -1.
</event>
<event>
 7    1  0.5479172E-013  0.5052886E+02  0.7816164E-02  0.1300439E+00
        -11   -1    0    0    0    0  0.00000000000E+00  0.00000000000E+00  0.45593999997E+02  0.45594000000E+02  0.51100000000E-03 0. -1.
         11   -1    0    0    0    0 -0.00000000000E+00 -0.00000000000E+00 -0.45593999997E+02  0.45594000000E+02  0.51100000000E-03 0.  1.
    9900012    2    1    2    0    0  0.11780810670E+02 -0.38566748430E+02 -0.51946042497E+01  0.50528862062E+02  0.30000006725E+02 0.  0.
         12    1    1    2    0    0 -0.11780810670E+02  0.38566748430E+02  0.51946042497E+01  0.40659137938E+02  0.00000000000E+00 0. -1.
         11    1    3    3    0    0  0.50236984751E+01 -0.70760469614E+01  0.71112990761E+01  0.11219561568E+02  0.51100000000E-03 0. -1.
        -11    1    3    3    0    0  0.53191397750E+01 -0.27221151338E+02 -0.17021322796E+01  0.27788155438E+02  0.51100000000E-03 0.  1.
         12    1    3    3    0    0  0.14379724196E+01 -0.42695501311E+01 -0.10603771046E+02  0.11521145056E+02  0.00000000000E+00 0. -1.
</event>
<event>
 7    1  0.5479172E-013  0.5052887E+02  0.7816164E-02  0.1300439E+00
        -11   -1    0    0    0    0  0.00000000000E+00  0.00000000000E+00  0.45593999997E+02  0.45594000000E+02  0.51100000000E-03 0.  1.
         11   -1    0    0    0    0 -0.00000000000E+00 -0.00000000000E+00 -0.45593999997E+02  0.45594000000E+02  0.51100000000E-03 0. -1.
    9900012    2    1    2    0    0  0.11833412210E+02  0.28805605088E+02  0.26141397510E+02  0.50528865814E+02  0.30000018127E+02 0.  0.
         12    1    1    2    0    0 -0.11833412210E+02 -0.28805605088E+02 -0.26141397510E+02  0.40659134186E+02  0.00000000000E+00 0. -1.
         11    1    3    3    0    0  0.59205081174E+01  0.19956420889E+02 -0.12304761436E+01  0.20852463233E+02  0.51100000000E-03 0. -1.
        -11    1    3    3    0    0 -0.10670632468E+00  0.20810463968E+00 -0.10063163625E+00  0.25459923040E+00  0.51100000000E-03 0.  1.
        -12    1    3    3    0    0  0.60196104169E+01  0.86410795599E+01  0.27472505289E+02  0.29421803351E+02  0.00000000000E+00 0.  1.
</event>
<event>
 7    1  0.5479172E-013  0.5052887E+02  0.7816164E-02  0.1300439E+00
        -11   -1    0    0    0    0  0.00000000000E+00  0.00000000000E+00  0.45593999997E+02  0.45594000000E+02  0.51100000000E-03 0. -1.
         11   -1    0    0    0    0 -0.00000000000E+00 -0.00000000000E+00 -0.45593999997E+02  0.45594000000E+02  0.51100000000E-03 0.  1.
    9900012    2    1    2    0    0 -0.24140355346E+02 -0.16665989255E+02 -0.28154088324E+02  0.50528872569E+02  0.30000038662E+02 0.  0.
         12    1    1    2    0    0  0.24140355346E+02  0.16665989255E+02  0.28154088324E+02  0.40659127431E+02  0.00000000000E+00 0. -1.
         11    1    3    3    0    0 -0.11372096218E+02 -0.17476172244E+02 -0.44220937537E+01  0.21314222531E+02  0.51100000000E-03 0. -1.
        -11    1    3    3    0    0  0.13424085897E+00  0.32225773273E+01 -0.19081889754E+01  0.37475606286E+01  0.51100000000E-03 0.  1.
        -12    1    3    3    0    0 -0.12902499987E+02 -0.24123943384E+01 -0.21823805595E+02  0.25467089410E+02  0.00000000000E+00 0.  1.
</event>
<event>
 7    1  0.5479172E-013  0.5052886E+02  0.7816164E-02  0.1300439E+00
        -11   -1    0    0    0    0  0.00000000000E+00  0.00000000000E+00  0.45593999997E+02  0.45594000000E+02  0.51100000000E-03 0.  1.
         11   -1    0    0    0    0 -0.00000000000E+00 -0.00000000000E+00 -0.45593999997E+02  0.45594000000E+02  0.51100000000E-03 0. -1.
    9900012    2    1    2    0    0  0.11959139422E+02 -0.15985418450E+02  0.35420491088E+02  0.50528858252E+02  0.29999995144E+02 0.  0.
         12    1    1    2    0    0 -0.11959139422E+02  0.15985418450E+02 -0.35420491088E+02  0.40659141748E+02  0.00000000000E+00 0. -1.
         11    1    3    3    0    0  0.44005501224E+01 -0.14204498809E+02  0.29478438796E+02  0.33016828768E+02  0.51100000000E-03 0. -1.
        -11    1    3    3    0    0 -0.13159945883E+01 -0.36318998823E+00  0.81451962165E+01  0.82588116815E+01  0.51100000000E-03 0.  1.
         12    1    3    3    0    0  0.88745838877E+01 -0.14177296525E+01 -0.22031439248E+01  0.92532178025E+01  0.00000000000E+00 0. -1.
</event>
<event>
 7    1  0.5479172E-013  0.5052885E+02  0.7816164E-02  0.1300439E+00
        -11   -1    0    0    0    0  0.00000000000E+00  0.00000000000E+00  0.45593999997E+02  0.45594000000E+02  0.51100000000E-03 0.  1.
         11   -1    0    0    0    0 -0.00000000000E+00 -0.00000000000E+00 -0.45593999997E+02  0.45594000000E+02  0.51100000000E-03 0. -1.
    9900012    2    1    2    0    0  0.15949466383E+02 -0.27316276815E+02  0.25546070543E+02  0.50528853709E+02  0.29999981332E+02 0.  0.
         12    1    1    2    0    0 -0.15949466383E+02  0.27316276815E+02 -0.25546070543E+02  0.40659146291E+02  0.00000000000E+00 0. -1.
         11    1    3    3    0    0  0.11699399744E+01  0.21956822038E+01  0.67367688640E+01  0.71814925240E+01  0.51100000000E-03 0. -1.
        -11    1    3    3    0    0  0.12204561495E+02 -0.59602848180E+01  0.13328633813E+02  0.19029681973E+02  0.51100000000E-03 0.  1.
        -12    1    3    3    0    0  0.25749649133E+01 -0.23551674201E+02  0.54806678661E+01  0.24317679212E+02  0.00000000000E+00 0.  1.
</event>
<event>
 7    1  0.5479172E-013  0.5052886E+02  0.7816164E-02  0.1300439E+00
        -11   -1    0    0    0    0  0.00000000000E+00  0.00000000000E+00  0.45593999997E+02  0.45594000000E+02  0.51100000000E-03 0. -1.
         11   -1    0    0    0    0 -0.00000000000E+00 -0.00000000000E+00 -0.45593999997E+02  0.45594000000E+02  0.51100000000E-03 0.  1.
    9900012    2    1    2    0    0 -0.22624839863E+02 -0.25457266243E+02  0.22208329756E+02  0.50528859651E+02  0.29999999394E+02 0.  0.
         12    1    1    2    0    0  0.22624839863E+02  0.25457266243E+02 -0.22208329756E+02  0.40659140349E+02  0.00000000000E+00 0. -1.
         11    1    3    3    0    0 -0.20454099249E+01  0.36262222825E+01  0.11703549001E+02  0.12422006653E+02  0.51100000000E-03 0. -1.
        -11    1    3    3    0    0 -0.65595508600E+01 -0.11570934946E+02  0.80317335315E+01  0.15537792211E+02  0.51100000000E-03 0.  1.
        -12    1    3    3    0    0 -0.14019879078E+02 -0.17512553580E+02  0.24730472241E+01  0.22569060787E+02  0.00000000000E+00 0.  1.
</event>
<event>
 7    1  0.5479172E-013  0.5052887E+02  0.7816164E-02  0.1300439E+00
        -11   -1    0    0    0    0  0.00000000000E+00  0.00000000000E+00  0.45593999997E+02  0.45594000000E+02  0.51100000000E-03 0.  1.
         11   -1    0    0    0    0 -0.00000000000E+00 -0.00000000000E+00 -0.45593999997E+02  0.45594000000E+02  0.51100000000E-03 0. -1.
    9900012    2    1    2    0    0  0.16164829774E+02  0.14872485998E+02  0.34215094437E+02  0.50528865126E+02  0.30000016037E+02 0.  0.
         12    1    1    2    0    0 -0.16164829774E+02 -0.14872485998E+02 -0.34215094437E+02  0.40659134874E+02  0.00000000000E+00 0. -1.
         11    1    3    3    0    0  0.32237710354E+01  0.66586609093E+01 -0.96909601029E+00  0.74612071498E+01  0.51100000000E-03 0. -1.
        -11    1    3    3    0    0 -0.45555978789E+01 -0.15236774806E+01  0.72978470635E+01  0.87369123334E+01  0.51100000000E-03 0.  1.
         12    1    3    3    0    0  0.17496656617E+02  0.97375025689E+01  0.27886343384E+02  0.34330745643E+02  0.00000000000E+00 0. -1.
</event>
<event>
 7    1  0.5479172E-013  0.5052884E+02  0.7816164E-02  0.1300439E+00
        -11   -1    0    0    0    0  0.00000000000E+00  0.00000000000E+00  0.45593999997E+02  0.45594000000E+02  0.51100000000E-03 0. -1.
         11   -1    0    0    0    0 -0.00000000000E+00 -0.00000000000E+00 -0.45593999997E+02  0.45594000000E+02  0.51100000000E-03 0.  1.
    9900012    2    1    2    0    0  0.14027617705E+01 -0.26832918080E+02 -0.30515469606E+02  0.50528842132E+02  0.29999946144E+02 0.  0.
         12    1    1    2    0    0 -0.14027617705E+01  0.26832918080E+02  0.30515469606E+02  0.40659157868E+02  0.00000000000E+00 0. -1.
         11    1    3    3    0    0 -0.33241104167E+01  0.16921559121E+01 -0.12521478106E+02  0.13065240752E+02  0.51100000000E-03 0. -1.
        -11    1    3    3    0    0  0.11655649840E+01  0.18962103369E+01 -0.13777345349E+01  0.26176913652E+01  0.51100000000E-03 0.  1.
         12    1    3    3    0    0  0.35613072032E+01 -0.30421284329E+02 -0.16616256966E+02  0.34845910015E+02  0.00000000000E+00 0. -1.
</event>
<event>
 7    1  0.5479172E-013  0.5052885E+02  0.7816164E-02  0.1300439E+00
        -11   -1    0    0    0    0  0.00000000000E+00  0.00000000000E+00  0.45593999997E+02  0.45594000000E+02  0.51100000000E-03 0. -1.
         11   -1    0    0    0    0 -0.00000000000E+00 -0.00000000000E+00 -0.45593999997E+02  0.45594000000E+02  0.51100000000E-03 0.  1.
    9900012    2    1    2    0    0 -0.20998288033E+02  0.11385981112E+02 -0.32902852844E+02  0.50528851073E+02  0.29999973321E+02 0.  0.
         12    1    1    2    0    0  0.20998288033E+02 -0.11385981112E+02  0.32902852844E+02  0.40659148927E+02  0.00000000000E+00 0. -1.
         11    1    3    3    0    0 -0.12744240816E+02 -0.22673347283E+01 -0.12091632274E+02  0.17713386239E+02  0.51100000000E-03 0. -1.
        -11    1    3    3    0    0 -0.29382698146E+01  0.46412863158E+01 -0.21633684369E+02  0.22320198651E+02  0.51100000000E-03 0.  1.
        -12    1    3    3    0    0 -0.53157774021E+01  0.90120295245E+01  0.82246379927E+00  0.10495266182E+02  0.00000000000E+00 0.  1.
</event>
<event>
 7    1  0.5479172E-013  0.5052886E+02  0.7816164E-02  0.1300439E+00
        -11   -1    0    0    0    0  0.00000000000E+00  0.00000000000E+00  0.45593999997E+02  0.45594000000E+02  0.51100000000E-03 0. -1.
         11   -1    0    0    0    0 -0.00000000000E+00 -0.00000000000E+00 -0.45593999997E+02  0.45594000000E+02  0.51100000000E-03 0.  1.
    9900012    2    1    2    0    0  0.20682012962E+02 -0.82453516988E+01 -0.34021081156E+02  0.50528862678E+02  0.30000008595E+02 0.  0.
         12    1    1    2    0    0 -0.20682012962E+02  0.82453516988E+01  0.34021081156E+02  0.40659137322E+02  0.00000000000E+00 0. -1.
         11    1    3    3    0    0  0.85065699923E+01  0.27373968050E+01 -0.75865410154E+01  0.11722230127E+02  0.51100000000E-03 0. -1.
        -11    1    3    3    0    0  0.16667770348E+02 -0.38536496025E+00 -0.13185571949E+02  0.21256114001E+02  0.51100000000E-03 0.  1.
         12    1    3    3    0    0 -0.44923273784E+01 -0.10597383544E+02 -0.13248968191E+02  0.17550518550E+02  0.00000000000E+00 0. -1.
</event>
<event>
 7    1  0.5479172E-013  0.5052887E+02  0.7816164E-02  0.1300439E+00
        -11   -1    0    0    0    0  0.00000000000E+00  0.00000000000E+00  0.45593999997E+02  0.45594000000E+02  0.51100000000E-03 0.  1.
         11   -1    0    0    0    0 -0.00000000000E+00 -0.00000000000E+00 -0.45593999997E+02  0.45594000000E+02  0.51100000000E-03 0. -1.
    9900012    2    1    2    0    0  0.32187761235E+02  0.24388288504E+02 -0.47248971109E+01  0.50528865206E+02  0.30000016280E+02 0.  0.
         12    1    1    2    0    0 -0.32187761235E+02 -0.24388288504E+02  0.47248971109E+01  0.40659134794E+02  0.00000000000E+00 0. -1.
         11    1    3    3    0    0  0.42512907095E+01  0.35341787441E+00 -0.47476257078E+01  0.63826583030E+01  0.51100000000E-03 0. -1.
        -11    1    3    3    0    0  0.31624015972E+02  0.16344499251E+02 -0.49840268952E+00  0.35601537151E+02  0.51100000000E-03 0.  1.
         12    1    3    3    0    0 -0.36875454465E+01  0.76903713785E+01  0.52113128641E+00  0.85446697524E+01  0.00000000000E+00 0. -1.
</event>
<event>
 7    1  0.5479172E-013  0.5052888E+02  0.7816164E-02  0.1300439E+00
        -11   -1    0    0    0    0  0.00000000000E+00  0.00000000000E+00  0.45593999997E+02  0.45594000000E+02  0.51100000000E-03 0.  1.
         11   -1    0    0    0    0 -0.00000000000E+00 -0.00000000000E+00 -0.45593999997E+02  0.45594000000E+02  0.51100000000E-03 0. -1.
    9900012    2    1    2    0    0  0.20204431676E+01  0.31367703913E+02  0.25790483298E+02  0.50528879644E+02  0.30000060167E+02 0.  0.
         12    1    1    2    0    0 -0.20204431676E+01 -0.31367703913E+02 -0.25790483298E+02  0.40659120356E+02  0.00000000000E+00 0. -1.
         11    1    3    3    0    0  0.49948747485E+01  0.67986565492E+01  0.13097600605E+02  0.15579398143E+02  0.51100000000E-03 0. -1.
        -11    1    3    3    0    0  0.30280229720E+01  0.17652282032E+02  0.17120986285E+02  0.24777008611E+02  0.51100000000E-03 0.  1.
        -12    1    3    3    0    0 -0.60024545528E+01  0.69167653309E+01 -0.44281035912E+01  0.10172472891E+02  0.00000000000E+00 0.  1.
</event>
<event>
 7    1  0.5479172E-013  0.5052887E+02  0.7816164E-02  0.1300439E+00
        -11   -1    0    0    0    0  0.00000000000E+00  0.00000000000E+00  0.45593999997E+02  0.45594000000E+02  0.51100000000E-03 0.  1.
         11   -1    0    0    0    0 -0.00000000000E+00 -0.00000000000E+00 -0.45593999997E+02  0.45594000000E+02  0.51100000000E-03 0. -1.
    9900012    2    1    2    0    0  0.31812195036E+02  0.71711276665E+01  0.24284240346E+02  0.50528866288E+02  0.30000019569E+02 0.  0.
         12    1    1    2    0    0 -0.31812195036E+02 -0.71711276665E+01 -0.24284240346E+02  0.40659133712E+02  0.00000000000E+00 0. -1.
         11    1    3    3    0    0  0.26330119884E+02  0.25434186902E+01  0.10211175808E+02  0.28355110710E+02  0.51100000000E-03 0. -1.
        -11    1    3    3    0    0  0.60378372230E+01  0.59990248037E+01  0.16934086114E+02  0.18952758367E+02  0.51100000000E-03 0.  1.
         12    1    3    3    0    0 -0.55576207055E+00 -0.13713158274E+01 -0.28610215760E+01  0.32209972114E+01  0.00000000000E+00 0. -1.
</event>
<event>
 7    1  0.5479172E-013  0.5052886E+02  0.7816164E-02  0.1300439E+00
        -11   -1    0    0    0    0  0.00000000000E+00  0.00000000000E+00  0.45593999997E+02  0.45594000000E+02  0.51100000000E-03 0.  1.
         11   -1    0    0    0    0 -0.00000000000E+00 -0.00000000000E+00 -0.45593999997E+02  0.45594000000E+02  0.51100000000E-03 0. -1.
    9900012    2    1    2    0    0 -0.35607644948E+02  0.13850479911E+02  0.13907748553E+02  0.50528860286E+02  0.30000001325E+02 0.  0.
         12    1    1    2    0    0  0.35607644948E+02 -0.13850479911E+02 -0.13907748553E+02  0.40659139714E+02  0.00000000000E+00 0. -1.
         11    1    3    3    0    0  0.25780779719E+00 -0.15491192824E+01 -0.21311348675E+01  0.26472573536E+01  0.51100000000E-03 0. -1.
        -11    1    3    3    0    0 -0.16876209199E+02 -0.25485778387E+01 -0.28977488504E+00  0.17070022134E+02  0.51100000000E-03 0.  1.
         12    1    3    3    0    0 -0.18989243546E+02  0.17948177032E+02  0.16328658305E+02  0.30811580798E+02  0.00000000000E+00 0. -1.
</event>
<event>
 7    1  0.5479172E-013  0.5052886E+02  0.7816164E-02  0.1300439E+00
        -11   -1    0    0    0    0  0.00000000000E+00  0.00000000000E+00  0.45593999997E+02  0.45594000000E+02  0.51100000000E-03 0.  1.
         11   -1    0    0    0    0 -0.00000000000E+00 -0.00000000000E+00 -0.45593999997E+02  0.45594000000E+02  0.51100000000E-03 0. -1.
    9900012    2    1    2    0    0  0.25777892726E+02  0.22174465312E+02  0.22292585797E+02  0.50528855312E+02  0.29999986205E+02 0.  0.
         12    1    1    2    0    0 -0.25777892726E+02 -0.22174465312E+02 -0.22292585797E+02  0.40659144688E+02  0.00000000000E+00 0. -1.
         11    1    3    3    0    0 -0.41432694696E+00  0.35744093839E+00  0.52720307287E+00  0.75985142270E+00  0.51100000000E-03 0. -1.
        -11    1    3    3    0    0 -0.51891747483E+01  0.99222416219E+01  0.54787395666E+01  0.12465753121E+02  0.51100000000E-03 0.  1.
         12    1    3    3    0    0  0.31381394421E+02  0.11894782752E+02  0.16286643157E+02  0.37303250768E+02  0.00000000000E+00 0. -1.
</event>
<event>
 7    1  0.5479172E-013  0.5052882E+02  0.7816164E-02  0.1300439E+00
        -11   -1    0    0    0    0  0.00000000000E+00  0.00000000000E+00  0.45593999997E+02  0.45594000000E+02  0.51100000000E-03 0. -1.
         11   -1    0    0    0    0 -0.00000000000E+00 -0.00000000000E+00 -0.45593999997E+02  0.45594000000E+02  0.51100000000E-03 0.  1.
    9900012    2    1    2    0    0 -0.19414009200E+02 -0.21689647881E+02 -0.28387039330E+02  0.50528824156E+02  0.29999891503E+02 0.  0.
         12    1    1    2    0    0  0.19414009200E+02  0.21689647881E+02  0.28387039330E+02  0.40659175844E+02  0.00000000000E+00 0. -1.
         11    1    3    3    0    0 -0.20213121163E+02 -0.58614484857E+01 -0.22530559806E+02  0.30831039083E+02  0.51100000000E-03 0. -1.
        -11    1    3    3    0    0 -0.18466382020E+01 -0.13019949413E+02 -0.58246374641E+00  0.13163146267E+02  0.51100000000E-03 0.  1.
        -12    1    3    3    0    0  0.26457501648E+01 -0.28082499819E+01 -0.52740157772E+01  0.65346388051E+01  0.00000000000E+00 0.  1.
</event>
<event>
 7    1  0.5479172E-013  0.5052885E+02  0.7816164E-02  0.1300439E+00
        -11   -1    0    0    0    0  0.00000000000E+00  0.00000000000E+00  0.45593999997E+02  0.45594000000E+02  0.51100000000E-03 0. -1.
         11   -1    0    0    0    0 -0.00000000000E+00 -0.00000000000E+00 -0.45593999997E+02  0.45594000000E+02  0.51100000000E-03 0.  1.
    9900012    2    1    2    0    0  0.37794966177E+02 -0.98708817426E+01  0.11281515872E+02  0.50528851275E+02  0.29999973936E+02 0.  0.
         12    1    1    2    0    0 -0.37794966177E+02  0.98708817426E+01 -0.11281515872E+02  0.40659148725E+02  0.00000000000E+00 0. -1.
         11    1    3    3    0    0  0.21720304693E+02  0.16736893536E+01  0.13614036360E+02  0.25688808036E+02  0.51100000000E-03 0. -1.
        -11    1    3    3    0    0  0.14223115154E+02 -0.28011033922E+01  0.24525577224E+01  0.14702320379E+02  0.51100000000E-03 0.  1.
         12    1    3    3    0    0  0.18515463296E+01 -0.87434677040E+01 -0.47850782109E+01  0.10137722860E+02  0.00000000000E+00 0. -1.
</event>
<event>
 7    1  0.5479172E-013  0.5052879E+02  0.7816164E-02  0.1300439E+00
        -11   -1    0    0    0    0  0.00000000000E+00  0.00000000000E+00  0.45593999997E+02  0.45594000000E+02  0.51100000000E-03 0.  1.
         11   -1    0    0    0    0 -0.00000000000E+00 -0.00000000000E+00 -0.45593999997E+02  0.45594000000E+02  0.51100000000E-03 0. -1.
    9900012    2    1    2    0    0  0.36944978803E+02 -0.16337852861E+02 -0.46167193769E+01  0.50528794491E+02  0.29999801333E+02 0.  0.
         12    1    1    2    0    0 -0.36944978803E+02  0.16337852861E+02  0.46167193769E+01  0.40659205509E+02  0.00000000000E+00 0. -1.
         11    1    3    3    0    0  0.26172785229E+01 -0.51889036996E+01  0.42044369492E+01  0.71730160177E+01  0.51100000000E-03 0. -1.
        -11    1    3    3    0    0  0.48293301665E+01  0.34223709524E+01 -0.86170561011E+01  0.10454124014E+02  0.51100000000E-03 0.  1.
        -12    1    3    3    0    0  0.29498370114E+02 -0.14571320113E+02 -0.20410022503E+00  0.32901654459E+02  0.00000000000E+00 0.  1.
</event>
<event>
 7    1  0.5479172E-013  0.5052886E+02  0.7816164E-02  0.1300439E+00
        -11   -1    0    0    0    0  0.00000000000E+00  0.00000000000E+00  0.45593999997E+02  0.45594000000E+02  0.51100000000E-03 0. -1.
         11   -1    0    0    0    0 -0.00000000000E+00 -0.00000000000E+00 -0.45593999997E+02  0.45594000000E+02  0.51100000000E-03 0.  1.
    9900012    2    1    2    0    0 -0.61184085786E+01  0.32336159693E+02 -0.23876843118E+02  0.50528858537E+02  0.29999996010E+02 0.  0.
         12    1    1    2    0    0  0.61184085786E+01 -0.32336159693E+02  0.23876843118E+02  0.40659141463E+02  0.00000000000E+00 0. -1.
         11    1    3    3    0    0 -0.23859176672E+01 -0.34072557896E+01 -0.27304285653E+01  0.49756643317E+01  0.51100000000E-03 0. -1.
        -11    1    3    3    0    0  0.10699021469E+00 -0.20932434006E+01 -0.22892990820E+01  0.31038694219E+01  0.51100000000E-03 0.  1.
        -12    1    3    3    0    0 -0.38394811261E+01  0.37836658883E+02 -0.18857115471E+02  0.42449324784E+02  0.00000000000E+00 0.  1.
</event>
<event>
 7    1  0.5479172E-013  0.5052885E+02  0.7816164E-02  0.1300439E+00
        -11   -1    0    0    0    0  0.00000000000E+00  0.00000000000E+00  0.45593999997E+02  0.45594000000E+02  0.51100000000E-03 0. -1.
         11   -1    0    0    0    0 -0.00000000000E+00 -0.00000000000E+00 -0.45593999997E+02  0.45594000000E+02  0.51100000000E-03 0.  1.
    9900012    2    1    2    0    0 -0.52657775156E+01  0.38013365647E+02 -0.13432131733E+02  0.50528849202E+02  0.29999967636E+02 0.  0.
         12    1    1    2    0    0  0.52657775156E+01 -0.38013365647E+02  0.13432131733E+02  0.40659150798E+02  0.00000000000E+00 0. -1.
         11    1    3    3    0    0  0.38805901353E+01 -0.24015492908E+00  0.19353766190E+01  0.43430792194E+01  0.51100000000E-03 0. -1.
        -11    1    3    3    0    0  0.57322221404E+01  0.10976345738E+02 -0.29816153145E+01  0.12736897839E+02  0.51100000000E-03 0.  1.
        -12    1    3    3    0    0 -0.14878589791E+02  0.27277174839E+02 -0.12385893038E+02  0.33448872144E+02  0.00000000000E+00 0.  1.
</event>
<event>
 7    1  0.5479172E-013  0.5052885E+02  0.7816164E-02  0.1300439E+00
        -11   -1    0    0    0    0  0.00000000000E+00  0.00000000000E+00  0.45593999997E+02  0.45594000000E+02  0.51100000000E-03 0. -1.
         11   -1    0    0    0    0 -0.00000000000E+00 -0.00000000000E+00 -0.45593999997E+02  0.45594000000E+02  0.51100000000E-03 0.  1.
    9900012    2    1    2    0    0 -0.89671725354E+01 -0.38537356460E+02 -0.93609867384E+01  0.50528854670E+02  0.29999984256E+02 0.  0.
         12    1    1    2    0    0  0.89671725354E+01  0.38537356460E+02  0.93609867384E+01  0.40659145330E+02  0.00000000000E+00 0. -1.
         11    1    3    3    0    0  0.34110704145E+01 -0.14478374662E+01  0.28181553917E+01  0.46554951159E+01  0.51100000000E-03 0. -1.
        -11    1    3    3    0    0  0.67883414253E-01 -0.23919757468E+02  0.21303616998E+00  0.23920802456E+02  0.51100000000E-03 0.  1.
        -12    1    3    3    0    0 -0.12446126364E+02 -0.13169761526E+02 -0.12392178300E+02  0.21952557098E+02  0.00000000000E+00 0.  1.
</event>
<event>
 7    1  0.5479172E-013  0.5052884E+02  0.7816164E-02  0.1300439E+00
        -11   -1    0    0    0    0  0.00000000000E+00  0.00000000000E+00  0.45593999997E+02  0.45594000000E+02  0.51100000000E-03 0. -1.
         11   -1    0    0    0    0 -0.00000000000E+00 -0.00000000000E+00 -0.45593999997E+02  0.45594000000E+02  0.51100000000E-03 0.  1.
    9900012    2    1    2    0    0 -0.17493654465E+02 -0.12531786584E+02 -0.34497729108E+02  0.50528844387E+02  0.29999953000E+02 0.  0.
         12    1    1    2    0    0  0.17493654465E+02  0.12531786584E+02  0.34497729108E+02  0.40659155613E+02  0.00000000000E+00 0. -1.
         11    1    3    3    0    0 -0.10983288841E+02 -0.10676494676E+02 -0.28179528128E+02  0.32073446620E+02  0.51100000000E-03 0. -1.
        -11    1    3    3    0    0 -0.87494544894E+00  0.11153620053E+01 -0.10654988567E+02  0.10748876386E+02  0.51100000000E-03 0.  1.
         12    1    3    3    0    0 -0.56354201756E+01 -0.29706539136E+01  0.43367875867E+01  0.77065213814E+01  0.00000000000E+00 0. -1.
</event>
<event>
 7    1  0.5479172E-013  0.5052886E+02  0.7816164E-02  0.1300439E+00
        -11   -1    0    0    0    0  0.00000000000E+00  0.00000000000E+00  0.45593999997E+02  0.45594000000E+02  0.51100000000E-03 0.  1.
         11   -1    0    0    0    0 -0.00000000000E+00 -0.00000000000E+00 -0.45593999997E+02  0.45594000000E+02  0.51100000000E-03 0. -1.
    9900012    2    1    2    0    0 -0.42015770469E+01 -0.18898761370E+02  0.35754005460E+02  0.50528864035E+02  0.30000012721E+02 0.  0.
         12    1    1    2    0    0  0.42015770469E+01  0.18898761370E+02 -0.35754005460E+02  0.40659135965E+02  0.00000000000E+00 0. -1.
         11    1    3    3    0    0 -0.36453571084E+01 -0.71705341750E+01 -0.20202082149E+01  0.82937585144E+01  0.51100000000E-03 0. -1.
        -11    1    3    3    0    0 -0.70428306244E+01 -0.94139089289E+01  0.20395026241E+02  0.23541033116E+02  0.51100000000E-03 0.  1.
         12    1    3    3    0    0  0.64866106859E+01 -0.23143182664E+01  0.17379187433E+02  0.18694072405E+02  0.00000000000E+00 0. -1.
</event>
<event>
 7    1  0.5479172E-013  0.5052885E+02  0.7816164E-02  0.1300439E+00
        -11   -1    0    0    0    0  0.00000000000E+00  0.00000000000E+00  0.45593999997E+02  0.45594000000E+02  0.51100000000E-03 0. -1.
         11   -1    0    0    0    0 -0.00000000000E+00 -0.00000000000E+00 -0.45593999997E+02  0.45594000000E+02  0.51100000000E-03 0.  1.
    9900012    2    1    2    0    0 -0.25288377316E+02 -0.10956808405E+02 -0.29893351195E+02  0.50528854370E+02  0.29999983343E+02 0.  0.
         12    1    1    2    0    0  0.25288377316E+02  0.10956808405E+02  0.29893351195E+02  0.40659145630E+02  0.00000000000E+00 0. -1.
         11    1    3    3    0    0 -0.23742700613E+01 -0.92799662571E+00  0.22548825166E+01  0.34033559153E+01  0.51100000000E-03 0. -1.
        -11    1    3    3    0    0 -0.10532891023E+02 -0.41095384467E+01  0.89921173477E+00  0.11341899380E+02  0.51100000000E-03 0.  1.
        -12    1    3    3    0    0 -0.12381216231E+02 -0.59192733328E+01 -0.33047445447E+02  0.35783599074E+02  0.00000000000E+00 0.  1.
</event>
<event>
 7    1  0.5479172E-013  0.5052884E+02  0.7816164E-02  0.1300439E+00
        -11   -1    0    0    0    0  0.00000000000E+00  0.00000000000E+00  0.45593999997E+02  0.45594000000E+02  0.51100000000E-03 0.  1.
         11   -1    0    0    0    0 -0.00000000000E+00 -0.00000000000E+00 -0.45593999997E+02  0.45594000000E+02  0.51100000000E-03 0. -1.
    9900012    2    1    2    0    0  0.55579691945E+01  0.22962613126E+02  0.33090700356E+02  0.50528842689E+02  0.29999947839E+02 0.  0.
         12    1    1    2    0    0 -0.55579691945E+01 -0.22962613126E+02 -0.33090700356E+02  0.40659157311E+02  0.00000000000E+00 0. -1.
         11    1    3    3    0    0  0.11059678228E+02  0.16591513700E+02  0.20690140667E+02  0.28734591182E+02  0.51100000000E-03 0. -1.
        -11    1    3    3    0    0  0.54270522077E+01  0.39768954061E+01  0.43770272291E+01  0.80266406648E+01  0.51100000000E-03 0.  1.
        -12    1    3    3    0    0 -0.10928761241E+02  0.23942040200E+01  0.80235324605E+01  0.13767610842E+02  0.00000000000E+00 0.  1.
</event>
<event>
 7    1  0.5479172E-013  0.5052884E+02  0.7816164E-02  0.1300439E+00
        -11   -1    0    0    0    0  0.00000000000E+00  0.00000000000E+00  0.45593999997E+02  0.45594000000E+02  0.51100000000E-03 0. -1.
         11   -1    0    0    0    0 -0.00000000000E+00 -0.00000000000E+00 -0.45593999997E+02  0.45594000000E+02  0.51100000000E-03 0.  1.
    9900012    2    1    2    0    0 -0.47657757497E+01  0.20783911448E+02 -0.34619120831E+02  0.50528842106E+02  0.29999946064E+02 0.  0.
         12    1    1    2    0    0  0.47657757497E+01 -0.20783911448E+02  0.34619120831E+02  0.40659157894E+02  0.00000000000E+00 0. -1.
         11    1    3    3    0    0 -0.37392912877E+01  0.11093782669E+01  0.12726654060E+01  0.41027669895E+01  0.51100000000E-03 0. -1.
        -11    1    3    3    0    0  0.99920051242E+01  0.54643664474E+01 -0.15578560322E+02  0.19297435297E+02  0.51100000000E-03 0.  1.
        -12    1    3    3    0    0 -0.11018489586E+02  0.14210166734E+02 -0.20313225915E+02  0.27128639819E+02  0.00000000000E+00 0.  1.
</event>
<event>
 7    1  0.5479172E-013  0.5052887E+02  0.7816164E-02  0.1300439E+00
        -11   -1    0    0    0    0  0.00000000000E+00  0.00000000000E+00  0.45593999997E+02  0.45594000000E+02  0.51100000000E-03 0.  1.
         11   -1    0    0    0    0 -0.00000000000E+00 -0.00000000000E+00 -0.45593999997E+02  0.45594000000E+02  0.51100000000E-03 0. -1.
    9900012    2    1    2    0    0  0.30118400782E+02  0.25254488805E+02 -0.10404693649E+02  0.50528869163E+02  0.30000028307E+02 0.  0.
         12    1    1    2    0    0 -0.30118400782E+02 -0.25254488805E+02  0.10404693649E+02  0.40659130837E+02  0.00000000000E+00 0. -1.
         11    1    3    3    0    0  0.12119859170E+01  0.48291007652E+00 -0.34315123610E+01  0.36711564050E+01  0.51100000000E-03 0. -1.
        -11    1    3    3    0    0 -0.43762315783E+01  0.58282511272E+00  0.18356458963E+01  0.47812847705E+01  0.51100000000E-03 0.  1.
        -12    1    3    3    0    0  0.33282646444E+02  0.24188753616E+02 -0.88088271842E+01  0.42076427987E+02  0.00000000000E+00 0.  1.
</event>
<event>
 7    1  0.5479172E-013  0.5052887E+02  0.7816164E-02  0.1300439E+00
        -11   -1    0    0    0    0  0.00000000000E+00  0.00000000000E+00  0.45593999997E+02  0.45594000000E+02  0.51100000000E-03 0.  1.
         11   -1    0    0    0    0 -0.00000000000E+00 -0.00000000000E+00 -0.45593999997E+02  0.45594000000E+02  0.51100000000E-03 0. -1.
    9900012    2    1    2    0    0  0.15243266163E+02 -0.37203094155E+02  0.60611170750E+01  0.50528874109E+02  0.30000043341E+02 0.  0.
         12    1    1    2    0    0 -0.15243266163E+02  0.37203094155E+02 -0.60611170750E+01  0.40659125891E+02  0.00000000000E+00 0. -1.
         11    1    3    3    0    0  0.73934320812E+01 -0.32555673655E+02 -0.29889775569E+01  0.33518184798E+02  0.51100000000E-03 0. -1.
        -11    1    3    3    0    0  0.83606446675E+01 -0.44837217906E+01  0.16964839674E+01  0.96375411006E+01  0.51100000000E-03 0.  1.
        -12    1    3    3    0    0 -0.51081058547E+00 -0.16369870955E+00  0.73536106645E+01  0.73731482100E+01  0.00000000000E+00 0.  1.
</event>
<event>
 7    1  0.5479172E-013  0.5052887E+02  0.7816164E-02  0.1300439E+00
        -11   -1    0    0    0    0  0.00000000000E+00  0.00000000000E+00  0.45593999997E+02  0.45594000000E+02  0.51100000000E-03 0.  1.
         11   -1    0    0    0    0 -0.00000000000E+00 -0.00000000000E+00 -0.45593999997E+02  0.45594000000E+02  0.51100000000E-03 0. -1.
    9900012    2    1    2    0    0 -0.51196751508E+01  0.25960252162E+00  0.40334680404E+02  0.50528869286E+02  0.30000028682E+02 0.  0.
         12    1    1    2    0    0  0.51196751508E+01 -0.25960252162E+00 -0.40334680404E+02  0.40659130714E+02  0.00000000000E+00 0. -1.
         11    1    3    3    0    0  0.21166732051E+01 -0.46676904477E+00  0.67505457635E+01  0.70899962740E+01  0.51100000000E-03 0. -1.
        -11    1    3    3    0    0  0.89073208590E+01 -0.52198147469E+01  0.11748896166E+02  0.15640440923E+02  0.51100000000E-03 0.  1.
        -12    1    3    3    0    0 -0.16143669215E+02  0.59461863133E+01  0.21835238474E+02  0.27798432089E+02  0.00000000000E+00 0.  1.
</event>
<event>
 7    1  0.5479172E-013  0.5052886E+02  0.7816164E-02  0.1300439E+00
        -11   -1    0    0    0    0  0.00000000000E+00  0.00000000000E+00  0.45593999997E+02  0.45594000000E+02  0.51100000000E-03 0.  1.
         11   -1    0    0    0    0 -0.00000000000E+00 -0.00000000000E+00 -0.45593999997E+02  0.45594000000E+02  0.51100000000E-03 0. -1.
    9900012    2    1    2    0    0  0.88955481786E+01  0.25145247473E+02  0.30687962868E+02  0.50528864337E+02  0.30000013640E+02 0.  0.
         12    1    1    2    0    0 -0.88955481786E+01 -0.25145247473E+02 -0.30687962868E+02  0.40659135663E+02  0.00000000000E+00 0. -1.
         11    1    3    3    0    0  0.11426653076E+02  0.86927201648E+01  0.48590229741E+00  0.14365510283E+02  0.51100000000E-03 0. -1.
        -11    1    3    3    0    0 -0.30538806595E+01 -0.23680525448E+00  0.63181713006E+01  0.70215064378E+01  0.51100000000E-03 0.  1.
        -12    1    3    3    0    0  0.52277576233E+00  0.16689332563E+02  0.23883889270E+02  0.29141847617E+02  0.00000000000E+00 0.  1.
</event>
<event>
 7    1  0.5479172E-013  0.5052885E+02  0.7816164E-02  0.1300439E+00
        -11   -1    0    0    0    0  0.00000000000E+00  0.00000000000E+00  0.45593999997E+02  0.45594000000E+02  0.51100000000E-03 0. -1.
         11   -1    0    0    0    0 -0.00000000000E+00 -0.00000000000E+00 -0.45593999997E+02  0.45594000000E+02  0.51100000000E-03 0.  1.
    9900012    2    1    2    0    0 -0.12780419600E+02  0.37745911682E+02  0.80667983366E+01  0.50528853314E+02  0.29999980132E+02 0.  0.
         12    1    1    2    0    0  0.12780419600E+02 -0.37745911682E+02 -0.80667983366E+01  0.40659146686E+02  0.00000000000E+00 0. -1.
         11    1    3    3    0    0 -0.87572210659E+01  0.13769903146E+02  0.79372417430E+01  0.18146596380E+02  0.51100000000E-03 0. -1.
        -11    1    3    3    0    0 -0.11686091157E+02  0.21167289870E+02  0.81051932354E+00  0.24192474632E+02  0.51100000000E-03 0.  1.
         12    1    3    3    0    0  0.76628926232E+01  0.28087186660E+01 -0.68096273000E+00  0.81897823011E+01  0.00000000000E+00 0. -1.
</event>
<event>
 7    1  0.5479172E-013  0.5052887E+02  0.7816164E-02  0.1300439E+00
        -11   -1    0    0    0    0  0.00000000000E+00  0.00000000000E+00  0.45593999997E+02  0.45594000000E+02  0.51100000000E-03 0.  1.
         11   -1    0    0    0    0 -0.00000000000E+00 -0.00000000000E+00 -0.45593999997E+02  0.45594000000E+02  0.51100000000E-03 0. -1.
    9900012    2    1    2    0    0  0.27721859956E+02 -0.50298767636E+01  0.29314910141E+02  0.50528866509E+02  0.30000020241E+02 0.  0.
         12    1    1    2    0    0 -0.27721859956E+02  0.50298767636E+01 -0.29314910141E+02  0.40659133491E+02  0.00000000000E+00 0. -1.
         11    1    3    3    0    0 -0.18551571729E+01 -0.42257773296E+01  0.45608142520E+01  0.64884381077E+01  0.51100000000E-03 0. -1.
        -11    1    3    3    0    0  0.12259067839E+02  0.34235444189E-01  0.23684655875E+02  0.26669248968E+02  0.51100000000E-03 0.  1.
        -12    1    3    3    0    0  0.17317949290E+02 -0.83833487812E+00  0.10694400144E+01  0.17371179434E+02  0.00000000000E+00 0.  1.
</event>
<event>
 7    1  0.5479172E-013  0.5052887E+02  0.7816164E-02  0.1300439E+00
        -11   -1    0    0    0    0  0.00000000000E+00  0.00000000000E+00  0.45593999997E+02  0.45594000000E+02  0.51100000000E-03 0. -1.
         11   -1    0    0    0    0 -0.00000000000E+00 -0.00000000000E+00 -0.45593999997E+02  0.45594000000E+02  0.51100000000E-03 0.  1.
    9900012    2    1    2    0    0 -0.25858284695E+02  0.13743944646E+02 -0.28206697309E+02  0.50528872183E+02  0.30000037487E+02 0.  0.
         12    1    1    2    0    0  0.25858284695E+02 -0.13743944646E+02  0.28206697309E+02  0.40659127817E+02  0.00000000000E+00 0. -1.
         11    1    3    3    0    0  0.15515297521E+01  0.70370629172E+01 -0.59110232089E+01  0.93202840466E+01  0.51100000000E-03 0. -1.
        -11    1    3    3    0    0 -0.79818405263E+01  0.12029039769E+02 -0.10661822372E+02  0.17946644046E+02  0.51100000000E-03 0.  1.
        -12    1    3    3    0    0 -0.19427973921E+02 -0.53221580396E+01 -0.11633851727E+02  0.23261944091E+02  0.00000000000E+00 0.  1.
</event>
<event>
 7    1  0.5479172E-013  0.5052887E+02  0.7816164E-02  0.1300439E+00
        -11   -1    0    0    0    0  0.00000000000E+00  0.00000000000E+00  0.45593999997E+02  0.45594000000E+02  0.51100000000E-03 0.  1.
         11   -1    0    0    0    0 -0.00000000000E+00 -0.00000000000E+00 -0.45593999997E+02  0.45594000000E+02  0.51100000000E-03 0. -1.
    9900012    2    1    2    0    0 -0.16941308727E+02  0.36958475035E+02  0.47734797697E+00  0.50528872127E+02  0.30000037317E+02 0.  0.
         12    1    1    2    0    0  0.16941308727E+02 -0.36958475035E+02 -0.47734797697E+00  0.40659127873E+02  0.00000000000E+00 0. -1.
         11    1    3    3    0    0 -0.12216498352E+02  0.29230019735E+02 -0.45172519879E+01  0.32000663297E+02  0.51100000000E-03 0. -1.
        -11    1    3    3    0    0 -0.38561902308E+01  0.12437727231E+02  0.31570042059E+01  0.13399027487E+02  0.51100000000E-03 0.  1.
        -12    1    3    3    0    0 -0.86862014367E+00 -0.47092719307E+01  0.18375957589E+01  0.51291813426E+01  0.00000000000E+00 0.  1.
</event>
<event>
 7    1  0.5479172E-013  0.5052886E+02  0.7816164E-02  0.1300439E+00
        -11   -1    0    0    0    0  0.00000000000E+00  0.00000000000E+00  0.45593999997E+02  0.45594000000E+02  0.51100000000E-03 0.  1.
         11   -1    0    0    0    0 -0.00000000000E+00 -0.00000000000E+00 -0.45593999997E+02  0.45594000000E+02  0.51100000000E-03 0. -1.
    9900012    2    1    2    0    0 -0.35172986687E+02  0.13265295207E+02  0.15493823649E+02  0.50528860552E+02  0.30000002133E+02 0.  0.
         12    1    1    2    0    0  0.35172986687E+02 -0.13265295207E+02 -0.15493823649E+02  0.40659139448E+02  0.00000000000E+00 0. -1.
         11    1    3    3    0    0 -0.29422645126E+01  0.13754612931E+01 -0.32332333997E+01  0.45828607560E+01  0.51100000000E-03 0. -1.
        -11    1    3    3    0    0  0.36514620490E+01  0.33751052167E+01  0.33172079688E+01  0.59773220834E+01  0.51100000000E-03 0.  1.
        -12    1    3    3    0    0 -0.35882184223E+02  0.85147286975E+01  0.15409849080E+02  0.39968677712E+02  0.00000000000E+00 0.  1.
</event>
<event>
 7    1  0.5479172E-013  0.5052887E+02  0.7816164E-02  0.1300439E+00
        -11   -1    0    0    0    0  0.00000000000E+00  0.00000000000E+00  0.45593999997E+02  0.45594000000E+02  0.51100000000E-03 0. -1.
         11   -1    0    0    0    0 -0.00000000000E+00 -0.00000000000E+00 -0.45593999997E+02  0.45594000000E+02  0.51100000000E-03 0.  1.
    9900012    2    1    2    0    0  0.12731356202E+02  0.36352798935E+02 -0.13021196975E+02  0.50528868285E+02  0.30000025638E+02 0.  0.
         12    1    1    2    0    0 -0.12731356202E+02 -0.36352798935E+02  0.13021196975E+02  0.40659131715E+02  0.00000000000E+00 0. -1.
         11    1    3    3    0    0  0.12277338796E+01  0.12742120222E+02 -0.10406322470E+02  0.16497287833E+02  0.51100000000E-03 0. -1.
        -11    1    3    3    0    0 -0.55598393537E+01  0.61344945247E+01  0.32802540833E+01  0.89052739332E+01  0.51100000000E-03 0.  1.
         12    1    3    3    0    0  0.17063461676E+02  0.17476184189E+02 -0.58951285884E+01  0.25126306518E+02  0.00000000000E+00 0. -1.
</event>
<event>
 7    1  0.5479172E-013  0.5052887E+02  0.7816164E-02  0.1300439E+00
        -11   -1    0    0    0    0  0.00000000000E+00  0.00000000000E+00  0.45593999997E+02  0.45594000000E+02  0.51100000000E-03 0.  1.
         11   -1    0    0    0    0 -0.00000000000E+00 -0.00000000000E+00 -0.45593999997E+02  0.45594000000E+02  0.51100000000E-03 0. -1.
    9900012    2    1    2    0    0 -0.95282810640E+01 -0.37690948749E+02  0.11906671657E+02  0.50528873256E+02  0.30000040748E+02 0.  0.
         12    1    1    2    0    0  0.95282810640E+01  0.37690948749E+02 -0.11906671657E+02  0.40659126744E+02  0.00000000000E+00 0. -1.
         11    1    3    3    0    0  0.40669566205E+01 -0.27611281569E+01 -0.12048025866E+01  0.50611771739E+01  0.51100000000E-03 0. -1.
        -11    1    3    3    0    0 -0.21376854263E+01  0.27596568089E+01  0.34493970592E+01  0.49075192325E+01  0.51100000000E-03 0.  1.
        -12    1    3    3    0    0 -0.11457552258E+02 -0.37689477401E+02  0.96620771845E+01  0.40560176849E+02  0.00000000000E+00 0.  1.
</event>
<event>
 7    1  0.5479172E-013  0.5052886E+02  0.7816164E-02  0.1300439E+00
        -11   -1    0    0    0    0  0.00000000000E+00  0.00000000000E+00  0.45593999997E+02  0.45594000000E+02  0.51100000000E-03 0. -1.
         11   -1    0    0    0    0 -0.00000000000E+00 -0.00000000000E+00 -0.45593999997E+02  0.45594000000E+02  0.51100000000E-03 0.  1.
    9900012    2    1    2    0    0  0.34733032035E+02 -0.23195387279E+01 -0.21009569044E+02  0.50528858768E+02  0.29999996713E+02 0.  0.
         12    1    1    2    0    0 -0.34733032035E+02  0.23195387279E+01  0.21009569044E+02  0.40659141232E+02  0.00000000000E+00 0. -1.
         11    1    3    3    0    0  0.13169581664E+02 -0.73388776290E+01  0.19343040343E+01  0.15199951921E+02  0.51100000000E-03 0. -1.
        -11    1    3    3    0    0  0.11625258231E+02  0.10662843239E+01 -0.20445118702E+01  0.11851734905E+02  0.51100000000E-03 0.  1.
         12    1    3    3    0    0  0.99381921399E+01  0.39530545772E+01 -0.20899361208E+02  0.23477171942E+02  0.00000000000E+00 0. -1.
</event>
<event>
 7    1  0.5479172E-013  0.5052888E+02  0.7816164E-02  0.1300439E+00
        -11   -1    0    0    0    0  0.00000000000E+00  0.00000000000E+00  0.45593999997E+02  0.45594000000E+02  0.51100000000E-03 0.  1.
         11   -1    0    0    0    0 -0.00000000000E+00 -0.00000000000E+00 -0.45593999997E+02  0.45594000000E+02  0.51100000000E-03 0. -1.
    9900012    2    1    2    0    0 -0.33261033493E+01  0.13464664019E+02  0.38220469008E+02  0.50528875663E+02  0.30000048066E+02 0.  0.
         12    1    1    2    0    0  0.33261033493E+01 -0.13464664019E+02 -0.38220469008E+02  0.40659124337E+02  0.00000000000E+00 0. -1.
         11    1    3    3    0    0 -0.57057913036E+01  0.50522938094E+01 -0.30403357177E+01  0.82052037558E+01  0.51100000000E-03 0. -1.
        -11    1    3    3    0    0  0.77483229556E+00  0.21551447895E+01  0.51028329647E+01  0.55932028996E+01  0.51100000000E-03 0.  1.
         12    1    3    3    0    0  0.16048556587E+01  0.62572254203E+01  0.36157971761E+02  0.36730469008E+02  0.00000000000E+00 0. -1.
</event>
<event>
 7    1  0.5479172E-013  0.5052887E+02  0.7816164E-02  0.1300439E+00
        -11   -1    0    0    0    0  0.00000000000E+00  0.00000000000E+00  0.45593999997E+02  0.45594000000E+02  0.51100000000E-03 0.  1.
         11   -1    0    0    0    0 -0.00000000000E+00 -0.00000000000E+00 -0.45593999997E+02  0.45594000000E+02  0.51100000000E-03 0. -1.
    9900012    2    1    2    0    0 -0.14753665253E+02 -0.16115998350E+02  0.34289486838E+02  0.50528868813E+02  0.30000027245E+02 0.  0.
         12    1    1    2    0    0  0.14753665253E+02  0.16115998350E+02 -0.34289486838E+02  0.40659131187E+02  0.00000000000E+00 0. -1.
         11    1    3    3    0    0 -0.11306851018E+01 -0.54273944930E+01  0.11733992316E+02  0.12977736155E+02  0.51100000000E-03 0. -1.
        -11    1    3    3    0    0  0.14400666540E+01 -0.14371173931E+02  0.12182141723E+02  0.18894682039E+02  0.51100000000E-03 0.  1.
         12    1    3    3    0    0 -0.15063046805E+02  0.36825700738E+01  0.10373352799E+02  0.18656450619E+02  0.00000000000E+00 0. -1.
</event>
<event>
 7    1  0.5479172E-013  0.5052886E+02  0.7816164E-02  0.1300439E+00
        -11   -1    0    0    0    0  0.00000000000E+00  0.00000000000E+00  0.45593999997E+02  0.45594000000E+02  0.51100000000E-03 0.  1.
         11   -1    0    0    0    0 -0.00000000000E+00 -0.00000000000E+00 -0.45593999997E+02  0.45594000000E+02  0.51100000000E-03 0. -1.
    9900012    2    1    2    0    0 -0.16840915173E+02 -0.37882796617E-01  0.37007407431E+02  0.50528855103E+02  0.29999985573E+02 0.  0.
         12    1    1    2    0    0  0.16840915173E+02  0.37882796617E-01 -0.37007407431E+02  0.40659144897E+02  0.00000000000E+00 0. -1.
         11    1    3    3    0    0 -0.41919218942E+01 -0.47598485415E+01  0.28400430693E+00  0.63489389675E+01  0.51100000000E-03 0. -1.
        -11    1    3    3    0    0 -0.93878431702E+01 -0.66299321068E+01  0.11159556864E+02  0.16019466557E+02  0.51100000000E-03 0.  1.
        -12    1    3    3    0    0 -0.32611501090E+01  0.11351897852E+02  0.25563846260E+02  0.28160449579E+02  0.00000000000E+00 0.  1.
</event>
<event>
 7    1  0.5479172E-013  0.5052884E+02  0.7816164E-02  0.1300439E+00
        -11   -1    0    0    0    0  0.00000000000E+00  0.00000000000E+00  0.45593999997E+02  0.45594000000E+02  0.51100000000E-03 0.  1.
         11   -1    0    0    0    0 -0.00000000000E+00 -0.00000000000E+00 -0.45593999997E+02  0.45594000000E+02  0.51100000000E-03 0. -1.
    9900012    2    1    2    0    0 -0.78146212634E+00 -0.28058900574E+02  0.29415215789E+02  0.50528837387E+02  0.29999931720E+02 0.  0.
         12    1    1    2    0    0  0.78146212634E+00  0.28058900574E+02 -0.29415215789E+02  0.40659162613E+02  0.00000000000E+00 0. -1.
         11    1    3    3    0    0  0.42364659618E+01 -0.31961819707E+01 -0.11184875098E+00  0.53080818983E+01  0.51100000000E-03 0. -1.
        -11    1    3    3    0    0  0.83454286456E+01 -0.66032343144E+01  0.14778516674E+02  0.18211354646E+02  0.51100000000E-03 0.  1.
        -12    1    3    3    0    0 -0.13363356734E+02 -0.18259484289E+02  0.14748547866E+02  0.27009400842E+02  0.00000000000E+00 0.  1.
</event>
<event>
 7    1  0.5479172E-013  0.5052886E+02  0.7816164E-02  0.1300439E+00
        -11   -1    0    0    0    0  0.00000000000E+00  0.00000000000E+00  0.45593999997E+02  0.45594000000E+02  0.51100000000E-03 0.  1.
         11   -1    0    0    0    0 -0.00000000000E+00 -0.00000000000E+00 -0.45593999997E+02  0.45594000000E+02  0.51100000000E-03 0. -1.
    9900012    2    1    2    0    0 -0.35788268398E+02 -0.19196505836E+02  0.19645859579E+01  0.50528860939E+02  0.30000003309E+02 0.  0.
         12    1    1    2    0    0  0.35788268398E+02  0.19196505836E+02 -0.19645859579E+01  0.40659139061E+02  0.00000000000E+00 0. -1.
         11    1    3    3    0    0  0.23481295669E+01  0.21462876615E+01  0.40547044278E+01  0.51537259771E+01  0.51100000000E-03 0. -1.
        -11    1    3    3    0    0 -0.11325090598E+02 -0.81857634134E+01  0.47082020920E+01  0.14745560922E+02  0.51100000000E-03 0.  1.
         12    1    3    3    0    0 -0.26811307367E+02 -0.13157030084E+02 -0.67983205619E+01  0.30629574039E+02  0.00000000000E+00 0. -1.
</event>
<event>
 7    1  0.5479172E-013  0.5052886E+02  0.7816164E-02  0.1300439E+00
        -11   -1    0    0    0    0  0.00000000000E+00  0.00000000000E+00  0.45593999997E+02  0.45594000000E+02  0.51100000000E-03 0. -1.
         11   -1    0    0    0    0 -0.00000000000E+00 -0.00000000000E+00 -0.45593999997E+02  0.45594000000E+02  0.51100000000E-03 0.  1.
    9900012    2    1    2    0    0 -0.34218745841E+02 -0.21778525541E+02  0.28175783403E+01  0.50528862167E+02  0.30000007042E+02 0.  0.
         12    1    1    2    0    0  0.34218745841E+02  0.21778525541E+02 -0.28175783403E+01  0.40659137833E+02  0.00000000000E+00 0. -1.
         11    1    3    3    0    0  0.27016590937E+00 -0.32379875418E+01  0.65573691257E+01  0.73182404341E+01  0.51100000000E-03 0. -1.
        -11    1    3    3    0    0 -0.76032885042E+01  0.28455380944E+01 -0.35385417334E+01  0.88559788270E+01  0.51100000000E-03 0.  1.
        -12    1    3    3    0    0 -0.26885623246E+02 -0.21386076093E+02 -0.20124905199E+00  0.34354642906E+02  0.00000000000E+00 0.  1.
</event>
<event>
 7    1  0.5479172E-013  0.5052885E+02  0.7816164E-02  0.1300439E+00
        -11   -1    0    0    0    0  0.00000000000E+00  0.00000000000E+00  0.45593999997E+02  0.45594000000E+02  0.51100000000E-03 0.  1.
         11   -1    0    0    0    0 -0.00000000000E+00 -0.00000000000E+00 -0.45593999997E+02  0.45594000000E+02  0.51100000000E-03 0. -1.
    9900012    2    1    2    0    0 -0.37863839983E+01  0.77304253573E+01  0.39737515715E+02  0.50528851765E+02  0.29999975425E+02 0.  0.
         12    1    1    2    0    0  0.37863839983E+01 -0.77304253573E+01 -0.39737515715E+02  0.40659148235E+02  0.00000000000E+00 0. -1.
         11    1    3    3    0    0 -0.98681910107E+00 -0.15435693011E+01  0.13128177476E+01  0.22538653077E+01  0.51100000000E-03 0. -1.
        -11    1    3    3    0    0 -0.55865397963E+01 -0.42760049110E+01 -0.41284165081E+00  0.70472748906E+01  0.51100000000E-03 0.  1.
        -12    1    3    3    0    0  0.27869748991E+01  0.13549999569E+02  0.38837539618E+02  0.41227711567E+02  0.00000000000E+00 0.  1.
</event>
<event>
 7    1  0.5479172E-013  0.5052881E+02  0.7816164E-02  0.1300439E+00
        -11   -1    0    0    0    0  0.00000000000E+00  0.00000000000E+00  0.45593999997E+02  0.45594000000E+02  0.51100000000E-03 0.  1.
         11   -1    0    0    0    0 -0.00000000000E+00 -0.00000000000E+00 -0.45593999997E+02  0.45594000000E+02  0.51100000000E-03 0. -1.
    9900012    2    1    2    0    0  0.18437112257E+02 -0.32071126090E+02 -0.16872617204E+02  0.50528813481E+02  0.29999859056E+02 0.  0.
         12    1    1    2    0    0 -0.18437112257E+02  0.32071126090E+02  0.16872617204E+02  0.40659186519E+02  0.00000000000E+00 0. -1.
         11    1    3    3    0    0  0.26694308798E+01  0.97628071593E+00  0.12423058804E+01  0.31019847549E+01  0.51100000000E-03 0. -1.
        -11    1    3    3    0    0  0.42739292672E+01  0.20749732603E+01 -0.76728775330E+01  0.90246903165E+01  0.51100000000E-03 0.  1.
        -12    1    3    3    0    0  0.11493752110E+02 -0.35122380066E+02 -0.10442045552E+02  0.38402138409E+02  0.00000000000E+00 0.  1.
</event>
<event>
 7    1  0.5479172E-013  0.5052886E+02  0.7816164E-02  0.1300439E+00
        -11   -1    0    0    0    0  0.00000000000E+00  0.00000000000E+00  0.45593999997E+02  0.45594000000E+02  0.51100000000E-03 0. -1.
         11   -1    0    0    0    0 -0.00000000000E+00 -0.00000000000E+00 -0.45593999997E+02  0.45594000000E+02  0.51100000000E-03 0.  1.
    9900012    2    1    2    0    0 -0.66086466965E+00  0.40378988175E+02  0.47186773330E+01  0.50528863955E+02  0.30000012477E+02 0.  0.
         12    1    1    2    0    0  0.66086466965E+00 -0.40378988175E+02 -0.47186773330E+01  0.40659136045E+02  0.00000000000E+00 0. -1.
         11    1    3    3    0    0  0.54661038179E+01  0.98216770779E+01 -0.10151824946E+02  0.15146061586E+02  0.51100000000E-03 0. -1.
        -11    1    3    3    0    0 -0.20441435871E+01  0.19723145993E+01 -0.13061092651E+00  0.28435202406E+01  0.51100000000E-03 0.  1.
         12    1    3    3    0    0 -0.40828249004E+01  0.28584996498E+02  0.15001113206E+02  0.32539282128E+02  0.00000000000E+00 0. -1.
</event>
<event>
 7    1  0.5479172E-013  0.5052885E+02  0.7816164E-02  0.1300439E+00
        -11   -1    0    0    0    0  0.00000000000E+00  0.00000000000E+00  0.45593999997E+02  0.45594000000E+02  0.51100000000E-03 0.  1.
         11   -1    0    0    0    0 -0.00000000000E+00 -0.00000000000E+00 -0.45593999997E+02  0.45594000000E+02  0.51100000000E-03 0. -1.
    9900012    2    1    2    0    0 -0.18398232737E+02  0.11924954518E+02  0.34241306033E+02  0.50528849161E+02  0.29999967511E+02 0.  0.
         12    1    1    2    0    0  0.18398232737E+02 -0.11924954518E+02 -0.34241306033E+02  0.40659150839E+02  0.00000000000E+00 0. -1.
         11    1    3    3    0    0  0.52857002067E+01  0.52028550945E+01  0.10067075257E+02  0.12504172596E+02  0.51100000000E-03 0. -1.
        -11    1    3    3    0    0 -0.22973817507E+01  0.31759216292E+01  0.13114838934E+02  0.13688076623E+02  0.51100000000E-03 0.  1.
        -12    1    3    3    0    0 -0.21386551193E+02  0.35461777946E+01  0.11059391842E+02  0.24336599943E+02  0.00000000000E+00 0.  1.
</event>
<event>
 7    1  0.5479172E-013  0.5052885E+02  0.7816164E-02  0.1300439E+00
        -11   -1    0    0    0    0  0.00000000000E+00  0.00000000000E+00  0.45593999997E+02  0.45594000000E+02  0.51100000000E-03 0.  1.
         11   -1    0    0    0    0 -0.00000000000E+00 -0.00000000000E+00 -0.45593999997E+02  0.45594000000E+02  0.51100000000E-03 0. -1.
    9900012    2    1    2    0    0 -0.29267752407E+02  0.26245081642E+02 -0.10380775451E+02  0.50528854161E+02  0.29999982709E+02 0.  0.
         12    1    1    2    0    0  0.29267752407E+02 -0.26245081642E+02  0.10380775451E+02  0.40659145839E+02  0.00000000000E+00 0. -1.
         11    1    3    3    0    0 -0.19402694090E+02  0.20178289434E+02 -0.98291355486E+01  0.29668835641E+02  0.51100000000E-03 0. -1.
        -11    1    3    3    0    0 -0.12665812068E+02  0.37790690491E+01 -0.58425675335E+01  0.14451289003E+02  0.51100000000E-03 0.  1.
         12    1    3    3    0    0  0.28007537505E+01  0.22877231594E+01  0.52909276309E+01  0.64087295168E+01  0.00000000000E+00 0. -1.
</event>
<event>
 7    1  0.5479172E-013  0.5052886E+02  0.7816164E-02  0.1300439E+00
        -11   -1    0    0    0    0  0.00000000000E+00  0.00000000000E+00  0.45593999997E+02  0.45594000000E+02  0.51100000000E-03 0.  1.
         11   -1    0    0    0    0 -0.00000000000E+00 -0.00000000000E+00 -0.45593999997E+02  0.45594000000E+02  0.51100000000E-03 0. -1.
    9900012    2    1    2    0    0 -0.43831309895E+01  0.73509427091E+01  0.39748179164E+02  0.50528856590E+02  0.29999990091E+02 0.  0.
         12    1    1    2    0    0  0.43831309895E+01 -0.73509427091E+01 -0.39748179164E+02  0.40659143410E+02  0.00000000000E+00 0. -1.
         11    1    3    3    0    0 -0.16333620787E+02  0.49426516958E+01  0.14872450136E+02  0.22636403140E+02  0.51100000000E-03 0. -1.
        -11    1    3    3    0    0  0.59855485056E+00  0.90584132105E+00  0.31803382379E+01  0.33605606640E+01  0.51100000000E-03 0.  1.
         12    1    3    3    0    0  0.11351934947E+02  0.15024496923E+01  0.21695390790E+02  0.24531892786E+02  0.00000000000E+00 0. -1.
</event>
<event>
 7    1  0.5479172E-013  0.5052886E+02  0.7816164E-02  0.1300439E+00
        -11   -1    0    0    0    0  0.00000000000E+00  0.00000000000E+00  0.45593999997E+02  0.45594000000E+02  0.51100000000E-03 0.  1.
         11   -1    0    0    0    0 -0.00000000000E+00 -0.00000000000E+00 -0.45593999997E+02  0.45594000000E+02  0.51100000000E-03 0. -1.
    9900012    2    1    2    0    0 -0.24742366454E+02 -0.32016389846E+02 -0.39914918971E+01  0.50528856821E+02  0.29999990792E+02 0.  0.
         12    1    1    2    0    0  0.24742366454E+02  0.32016389846E+02  0.39914918971E+01  0.40659143179E+02  0.00000000000E+00 0. -1.
         11    1    3    3    0    0 -0.85521632643E+01 -0.52198327453E+01 -0.44036321192E+01  0.10944319371E+02  0.51100000000E-03 0. -1.
        -11    1    3    3    0    0 -0.16550418030E+02 -0.27229293620E+02 -0.66074347172E+01  0.32542417886E+02  0.51100000000E-03 0.  1.
        -12    1    3    3    0    0  0.36021484098E+00  0.43273651922E+00  0.70195749393E+01  0.70421195641E+01  0.00000000000E+00 0.  1.
</event>
<event>
 7    1  0.5479172E-013  0.5052886E+02  0.7816164E-02  0.1300439E+00
        -11   -1    0    0    0    0  0.00000000000E+00  0.00000000000E+00  0.45593999997E+02  0.45594000000E+02  0.51100000000E-03 0.  1.
         11   -1    0    0    0    0 -0.00000000000E+00 -0.00000000000E+00 -0.45593999997E+02  0.45594000000E+02  0.51100000000E-03 0. -1.
    9900012    2    1    2    0    0  0.30718953828E+02 -0.15552000335E+02  0.21625148878E+02  0.50528857083E+02  0.29999991591E+02 0.  0.
         12    1    1    2    0    0 -0.30718953828E+02  0.15552000335E+02 -0.21625148878E+02  0.40659142917E+02  0.00000000000E+00 0. -1.
         11    1    3    3    0    0  0.58545699787E+00  0.77802387803E+00  0.11655431970E+01  0.15187403519E+01  0.51100000000E-03 0. -1.
        -11    1    3    3    0    0  0.23298134090E+02  0.11613450264E+01  0.32772148298E+01  0.23556143819E+02  0.51100000000E-03 0.  1.
         12    1    3    3    0    0  0.68353627406E+01 -0.17491369239E+02  0.17182390851E+02  0.25453972912E+02  0.00000000000E+00 0. -1.
</event>
<event>
 7    1  0.5479172E-013  0.5052886E+02  0.7816164E-02  0.1300439E+00
        -11   -1    0    0    0    0  0.00000000000E+00  0.00000000000E+00  0.45593999997E+02  0.45594000000E+02  0.51100000000E-03 0.  1.
         11   -1    0    0    0    0 -0.00000000000E+00 -0.00000000000E+00 -0.45593999997E+02  0.45594000000E+02  0.51100000000E-03 0. -1.
    9900012    2    1    2    0    0 -0.69259720238E+01  0.16518484043E+02  0.36501181095E+02  0.50528860500E+02  0.30000001975E+02 0.  0.
         12    1    1    2    0    0  0.69259720238E+01 -0.16518484043E+02 -0.36501181095E+02  0.40659139500E+02  0.00000000000E+00 0. -1.
         11    1    3    3    0    0  0.38419387950E+01  0.35793096842E+01  0.35209245888E+01  0.63220931456E+01  0.51100000000E-03 0. -1.
        -11    1    3    3    0    0  0.64403082690E+01  0.10047109689E+02  0.12098277855E+02  0.16993831558E+02  0.51100000000E-03 0.  1.
         12    1    3    3    0    0 -0.17208219088E+02  0.28920646693E+01  0.20881978651E+02  0.27212935796E+02  0.00000000000E+00 0. -1.
</event>
<event>
 7    1  0.5479172E-013  0.5052887E+02  0.7816164E-02  0.1300439E+00
        -11   -1    0    0    0    0  0.00000000000E+00  0.00000000000E+00  0.45593999997E+02  0.45594000000E+02  0.51100000000E-03 0.  1.
         11   -1    0    0    0    0 -0.00000000000E+00 -0.00000000000E+00 -0.45593999997E+02  0.45594000000E+02  0.51100000000E-03 0. -1.
    9900012    2    1    2    0    0  0.29164203169E+02 -0.19359149143E+02 -0.20684223339E+02  0.50528874368E+02  0.30000044129E+02 0.  0.
         12    1    1    2    0    0 -0.29164203169E+02  0.19359149143E+02  0.20684223339E+02  0.40659125632E+02  0.00000000000E+00 0. -1.
         11    1    3    3    0    0 -0.32948981444E+00 -0.10784977461E+02 -0.74609889090E+01  0.13118332902E+02  0.51100000000E-03 0. -1.
        -11    1    3    3    0    0  0.39074782769E+01 -0.85199522692E+01 -0.43045291995E+01  0.10314404735E+02  0.51100000000E-03 0.  1.
        -12    1    3    3    0    0  0.25586214706E+02 -0.54219413141E-01 -0.89187052309E+01  0.27096136731E+02  0.00000000000E+00 0.  1.
</event>
<event>
 7    1  0.5479172E-013  0.5052886E+02  0.7816164E-02  0.1300439E+00
        -11   -1    0    0    0    0  0.00000000000E+00  0.00000000000E+00  0.45593999997E+02  0.45594000000E+02  0.51100000000E-03 0.  1.
         11   -1    0    0    0    0 -0.00000000000E+00 -0.00000000000E+00 -0.45593999997E+02  0.45594000000E+02  0.51100000000E-03 0. -1.
    9900012    2    1    2    0    0  0.24994595967E+02  0.19428170550E+02  0.25514353139E+02  0.50528857675E+02  0.29999993390E+02 0.  0.
         12    1    1    2    0    0 -0.24994595967E+02 -0.19428170550E+02 -0.25514353139E+02  0.40659142325E+02  0.00000000000E+00 0. -1.
         11    1    3    3    0    0  0.42035437482E+01 -0.10149980627E+01 -0.97796081276E+00  0.44335548630E+01  0.51100000000E-03 0. -1.
        -11    1    3    3    0    0  0.17200669355E+01 -0.44466732635E+01 -0.40293748727E+00  0.47847562378E+01  0.51100000000E-03 0.  1.
        -12    1    3    3    0    0  0.19070985283E+02  0.24889841876E+02  0.26895251439E+02  0.41310546574E+02  0.00000000000E+00 0.  1.
</event>
<event>
 7    1  0.5479172E-013  0.5052886E+02  0.7816164E-02  0.1300439E+00
        -11   -1    0    0    0    0  0.00000000000E+00  0.00000000000E+00  0.45593999997E+02  0.45594000000E+02  0.51100000000E-03 0. -1.
         11   -1    0    0    0    0 -0.00000000000E+00 -0.00000000000E+00 -0.45593999997E+02  0.45594000000E+02  0.51100000000E-03 0.  1.
    9900012    2    1    2    0    0 -0.36775400205E+02  0.12458897003E+02 -0.12062816524E+02  0.50528859364E+02  0.29999998522E+02 0.  0.
         12    1    1    2    0    0  0.36775400205E+02 -0.12458897003E+02  0.12062816524E+02  0.40659140636E+02  0.00000000000E+00 0. -1.
         11    1    3    3    0    0 -0.10140911870E+01  0.41168634665E+00 -0.95429131941E+01  0.96054702682E+01  0.51100000000E-03 0. -1.
        -11    1    3    3    0    0 -0.24005309017E+02  0.36413075269E+01 -0.78536021827E+01  0.25518484458E+02  0.51100000000E-03 0.  1.
        -12    1    3    3    0    0 -0.11756000001E+02  0.84059031295E+01  0.53336988529E+01  0.15404904638E+02  0.00000000000E+00 0.  1.
</event>
<event>
 7    1  0.5479172E-013  0.5052886E+02  0.7816164E-02  0.1300439E+00
        -11   -1    0    0    0    0  0.00000000000E+00  0.00000000000E+00  0.45593999997E+02  0.45594000000E+02  0.51100000000E-03 0.  1.
         11   -1    0    0    0    0 -0.00000000000E+00 -0.00000000000E+00 -0.45593999997E+02  0.45594000000E+02  0.51100000000E-03 0. -1.
    9900012    2    1    2    0    0  0.79988749491E+00  0.12066128604E+02  0.38819248394E+02  0.50528864183E+02  0.30000013170E+02 0.  0.
         12    1    1    2    0    0 -0.79988749491E+00 -0.12066128604E+02 -0.38819248394E+02  0.40659135817E+02  0.00000000000E+00 0. -1.
         11    1    3    3    0    0  0.66756703764E+01  0.71001893929E+01  0.17622518722E+02  0.20137786144E+02  0.51100000000E-03 0.  1.
        -11    1    3    3    0    0 -0.13147745440E+02  0.39717762594E+01  0.17274713824E+02  0.22069298918E+02  0.51100000000E-03 0. -1.
         12    1    3    3    0    0  0.72719625580E+01  0.99416295160E+00  0.39220158488E+01  0.83217791210E+01  0.00000000000E+00 0. -1.
</event>
<event>
 7    1  0.5479172E-013  0.5052884E+02  0.7816164E-02  0.1300439E+00
        -11   -1    0    0    0    0  0.00000000000E+00  0.00000000000E+00  0.45593999997E+02  0.45594000000E+02  0.51100000000E-03 0.  1.
         11   -1    0    0    0    0 -0.00000000000E+00 -0.00000000000E+00 -0.45593999997E+02  0.45594000000E+02  0.51100000000E-03 0. -1.
    9900012    2    1    2    0    0  0.43018745527E+01 -0.19141640083E+02  0.35612619008E+02  0.50528841840E+02  0.29999945256E+02 0.  0.
         12    1    1    2    0    0 -0.43018745527E+01  0.19141640083E+02 -0.35612619008E+02  0.40659158160E+02  0.00000000000E+00 0. -1.
         11    1    3    3    0    0 -0.88479177419E+00 -0.48462010444E+01  0.49376613606E+00  0.49509924565E+01  0.51100000000E-03 0. -1.
        -11    1    3    3    0    0 -0.54761167508E+01 -0.17137195498E+02  0.22695006504E+02  0.28960915812E+02  0.51100000000E-03 0.  1.
         12    1    3    3    0    0  0.10662783078E+02  0.28417564597E+01  0.12423846368E+02  0.16616933571E+02  0.00000000000E+00 0. -1.
</event>
<event>
 7    1  0.5479172E-013  0.5052884E+02  0.7816164E-02  0.1300439E+00
        -11   -1    0    0    0    0  0.00000000000E+00  0.00000000000E+00  0.45593999997E+02  0.45594000000E+02  0.51100000000E-03 0. -1.
         11   -1    0    0    0    0 -0.00000000000E+00 -0.00000000000E+00 -0.45593999997E+02  0.45594000000E+02  0.51100000000E-03 0.  1.
    9900012    2    1    2    0    0  0.34529800588E+02  0.85663856293E+01 -0.19684446369E+02  0.50528837192E+02  0.29999931130E+02 0.  0.
         12    1    1    2    0    0 -0.34529800588E+02 -0.85663856293E+01  0.19684446369E+02  0.40659162808E+02  0.00000000000E+00 0. -1.
         11    1    3    3    0    0  0.51795135173E+01  0.84865053853E+01 -0.26846241335E+01  0.10298317383E+02  0.51100000000E-03 0. -1.
        -11    1    3    3    0    0  0.14995737154E+02  0.10147378362E+02 -0.43817144858E+01  0.18629032248E+02  0.51100000000E-03 0.  1.
        -12    1    3    3    0    0  0.14354549916E+02 -0.10067498118E+02 -0.12618107749E+02  0.21601487560E+02  0.00000000000E+00 0.  1.
</event>
<event>
 7    1  0.5479172E-013  0.5052887E+02  0.7816164E-02  0.1300439E+00
        -11   -1    0    0    0    0  0.00000000000E+00  0.00000000000E+00  0.45593999997E+02  0.45594000000E+02  0.51100000000E-03 0.  1.
         11   -1    0    0    0    0 -0.00000000000E+00 -0.00000000000E+00 -0.45593999997E+02  0.45594000000E+02  0.51100000000E-03 0. -1.
    9900012    2    1    2    0    0 -0.93162754407E+01 -0.30611270031E+02  0.25086297732E+02  0.50528866033E+02  0.30000018794E+02 0.  0.
         12    1    1    2    0    0  0.93162754407E+01  0.30611270031E+02 -0.25086297732E+02  0.40659133967E+02  0.00000000000E+00 0. -1.
         11    1    3    3    0    0 -0.40690869314E+01 -0.30594849994E+01  0.86744449472E+00  0.51643370465E+01  0.51100000000E-03 0. -1.
        -11    1    3    3    0    0 -0.12220980444E+01  0.50329833133E+01  0.13489510679E+01  0.53520196100E+01  0.51100000000E-03 0.  1.
        -12    1    3    3    0    0 -0.40250904649E+01 -0.32584768345E+02  0.22869902170E+02  0.40012509377E+02  0.00000000000E+00 0.  1.
</event>
<event>
 7    1  0.5479172E-013  0.5052886E+02  0.7816164E-02  0.1300439E+00
        -11   -1    0    0    0    0  0.00000000000E+00  0.00000000000E+00  0.45593999997E+02  0.45594000000E+02  0.51100000000E-03 0.  1.
         11   -1    0    0    0    0 -0.00000000000E+00 -0.00000000000E+00 -0.45593999997E+02  0.45594000000E+02  0.51100000000E-03 0. -1.
    9900012    2    1    2    0    0  0.15933004132E+02 -0.36851300024E+02  0.64254979037E+01  0.50528856411E+02  0.29999989546E+02 0.  0.
         12    1    1    2    0    0 -0.15933004132E+02  0.36851300024E+02 -0.64254979037E+01  0.40659143589E+02  0.00000000000E+00 0. -1.
         11    1    3    3    0    0 -0.36528454432E+01 -0.60731522274E+01 -0.65912005783E+01  0.96783460950E+01  0.51100000000E-03 0. -1.
        -11    1    3    3    0    0  0.59591592246E+00  0.10866519561E+01  0.16305849788E+01  0.20481054403E+01  0.51100000000E-03 0.  1.
        -12    1    3    3    0    0  0.18989933653E+02 -0.31864799752E+02  0.11386113503E+02  0.38802404875E+02  0.00000000000E+00 0.  1.
</event>
<event>
 7    1  0.5479172E-013  0.5052886E+02  0.7816164E-02  0.1300439E+00
        -11   -1    0    0    0    0  0.00000000000E+00  0.00000000000E+00  0.45593999997E+02  0.45594000000E+02  0.51100000000E-03 0. -1.
         11   -1    0    0    0    0 -0.00000000000E+00 -0.00000000000E+00 -0.45593999997E+02  0.45594000000E+02  0.51100000000E-03 0.  1.
    9900012    2    1    2    0    0  0.66120347963E+01  0.73471581846E+01 -0.39439394730E+02  0.50528860877E+02  0.30000003123E+02 0.  0.
         12    1    1    2    0    0 -0.66120347963E+01 -0.73471581846E+01  0.39439394730E+02  0.40659139123E+02  0.00000000000E+00 0. -1.
         11    1    3    3    0    0  0.37630266320E+01 -0.51877506639E+01 -0.17266442921E+02  0.18417469364E+02  0.51100000000E-03 0. -1.
        -11    1    3    3    0    0 -0.11253409162E+01 -0.26803165626E+00  0.32066126513E+01  0.34088998377E+01  0.51100000000E-03 0.  1.
        -12    1    3    3    0    0  0.39743490805E+01  0.12802940505E+02 -0.25379564461E+02  0.28702491676E+02  0.00000000000E+00 0.  1.
</event>
<event>
 7    1  0.5479172E-013  0.5052886E+02  0.7816164E-02  0.1300439E+00
        -11   -1    0    0    0    0  0.00000000000E+00  0.00000000000E+00  0.45593999997E+02  0.45594000000E+02  0.51100000000E-03 0.  1.
         11   -1    0    0    0    0 -0.00000000000E+00 -0.00000000000E+00 -0.45593999997E+02  0.45594000000E+02  0.51100000000E-03 0. -1.
    9900012    2    1    2    0    0  0.42456993392E+01 -0.41621130777E+01  0.40222086788E+02  0.50528863097E+02  0.30000009869E+02 0.  0.
         12    1    1    2    0    0 -0.42456993392E+01  0.41621130777E+01 -0.40222086788E+02  0.40659136903E+02  0.00000000000E+00 0. -1.
         11    1    3    3    0    0 -0.27050551738E+01 -0.31765647831E+01  0.47032681770E+01  0.62871789477E+01  0.51100000000E-03 0. -1.
        -11    1    3    3    0    0 -0.35117454420E+01  0.57872234774E+01  0.18249176887E+00  0.67718250962E+01  0.51100000000E-03 0.  1.
        -12    1    3    3    0    0  0.10462499955E+02 -0.67727717719E+01  0.35336326842E+02  0.37469859053E+02  0.00000000000E+00 0.  1.
</event>
<event>
 7    1  0.5479172E-013  0.5052888E+02  0.7816164E-02  0.1300439E+00
        -11   -1    0    0    0    0  0.00000000000E+00  0.00000000000E+00  0.45593999997E+02  0.45594000000E+02  0.51100000000E-03 0. -1.
         11   -1    0    0    0    0 -0.00000000000E+00 -0.00000000000E+00 -0.45593999997E+02  0.45594000000E+02  0.51100000000E-03 0.  1.
    9900012    2    1    2    0    0 -0.10242991061E+02 -0.12940222281E+02 -0.37159065594E+02  0.50528875878E+02  0.30000048719E+02 0.  0.
         12    1    1    2    0    0  0.10242991061E+02  0.12940222281E+02  0.37159065594E+02  0.40659124122E+02  0.00000000000E+00 0. -1.
         11    1    3    3    0    0  0.21952940626E+01  0.27746838815E+01  0.25138700080E+01  0.43402453090E+01  0.51100000000E-03 0. -1.
        -11    1    3    3    0    0 -0.95278300647E+01 -0.37954744226E+01 -0.25246535295E+02  0.27250187458E+02  0.51100000000E-03 0.  1.
        -12    1    3    3    0    0 -0.29104550587E+01 -0.11919431740E+02 -0.14426400307E+02  0.18938443111E+02  0.00000000000E+00 0.  1.
</event>
<event>
 7    1  0.5479172E-013  0.5052889E+02  0.7816164E-02  0.1300439E+00
        -11   -1    0    0    0    0  0.00000000000E+00  0.00000000000E+00  0.45593999997E+02  0.45594000000E+02  0.51100000000E-03 0.  1.
         11   -1    0    0    0    0 -0.00000000000E+00 -0.00000000000E+00 -0.45593999997E+02  0.45594000000E+02  0.51100000000E-03 0. -1.
    9900012    2    1    2    0    0  0.32717176958E+02  0.23740682302E+02  0.43736891769E+01  0.50528894977E+02  0.30000106772E+02 0.  0.
         12    1    1    2    0    0 -0.32717176958E+02 -0.23740682302E+02 -0.43736891769E+01  0.40659105023E+02  0.00000000000E+00 0. -1.
         11    1    3    3    0    0  0.35055891478E+01  0.21310819902E+01  0.20063525567E+01  0.45668497419E+01  0.51100000000E-03 0.  1.
        -11    1    3    3    0    0  0.49017631877E+01  0.47745927901E+01  0.12875107492E+02  0.14580549093E+02  0.51100000000E-03 0. -1.
         12    1    3    3    0    0  0.24309824623E+02  0.16835007521E+02 -0.10507770872E+02  0.31381496142E+02  0.00000000000E+00 0. -1.
</event>
<event>
 7    1  0.5479172E-013  0.5052885E+02  0.7816164E-02  0.1300439E+00
        -11   -1    0    0    0    0  0.00000000000E+00  0.00000000000E+00  0.45593999997E+02  0.45594000000E+02  0.51100000000E-03 0.  1.
         11   -1    0    0    0    0 -0.00000000000E+00 -0.00000000000E+00 -0.45593999997E+02  0.45594000000E+02  0.51100000000E-03 0. -1.
    9900012    2    1    2    0    0  0.34379519510E+02 -0.16367889883E+02  0.14258578613E+02  0.50528852873E+02  0.29999978794E+02 0.  0.
         12    1    1    2    0    0 -0.34379519510E+02  0.16367889883E+02 -0.14258578613E+02  0.40659147127E+02  0.00000000000E+00 0. -1.
         11    1    3    3    0    0  0.74248239440E+01  0.57240928436E+01  0.27285175286E+00  0.93791096497E+01  0.51100000000E-03 0. -1.
        -11    1    3    3    0    0  0.19610238590E+02 -0.22983054255E+02  0.70833173912E+01  0.31031526324E+02  0.51100000000E-03 0.  1.
         12    1    3    3    0    0  0.73444569766E+01  0.89107152880E+00  0.69024094695E+01  0.10118216900E+02  0.00000000000E+00 0. -1.
</event>
<event>
 7    1  0.5479172E-013  0.5052885E+02  0.7816164E-02  0.1300439E+00
        -11   -1    0    0    0    0  0.00000000000E+00  0.00000000000E+00  0.45593999997E+02  0.45594000000E+02  0.51100000000E-03 0.  1.
         11   -1    0    0    0    0 -0.00000000000E+00 -0.00000000000E+00 -0.45593999997E+02  0.45594000000E+02  0.51100000000E-03 0. -1.
    9900012    2    1    2    0    0  0.33175850045E+02 -0.10402466966E+02  0.21078857537E+02  0.50528848752E+02  0.29999966266E+02 0.  0.
         12    1    1    2    0    0 -0.33175850045E+02  0.10402466966E+02 -0.21078857537E+02  0.40659151248E+02  0.00000000000E+00 0. -1.
         11    1    3    3    0    0  0.15589272292E+02 -0.95037908919E+01  0.10775224264E+01  0.18289573717E+02  0.51100000000E-03 0.  1.
        -11    1    3    3    0    0  0.13772845606E+02  0.39348097663E+01  0.36709596521E+01  0.14786816730E+02  0.51100000000E-03 0. -1.
         12    1    3    3    0    0  0.38137321469E+01 -0.48334858407E+01  0.16330375459E+02  0.17452458305E+02  0.00000000000E+00 0. -1.
</event>
<event>
 7    1  0.5479172E-013  0.5052879E+02  0.7816164E-02  0.1300439E+00
        -11   -1    0    0    0    0  0.00000000000E+00  0.00000000000E+00  0.45593999997E+02  0.45594000000E+02  0.51100000000E-03 0.  1.
         11   -1    0    0    0    0 -0.00000000000E+00 -0.00000000000E+00 -0.45593999997E+02  0.45594000000E+02  0.51100000000E-03 0. -1.
    9900012    2    1    2    0    0 -0.26379615812E+02  0.20610759419E+02  0.23075614829E+02  0.50528787834E+02  0.29999781098E+02 0.  0.
         12    1    1    2    0    0  0.26379615812E+02 -0.20610759419E+02 -0.23075614829E+02  0.40659212166E+02  0.00000000000E+00 0. -1.
         11    1    3    3    0    0  0.12487737220E+01  0.33645842409E+01  0.28543432991E+01  0.45855358306E+01  0.51100000000E-03 0. -1.
        -11    1    3    3    0    0  0.27409399736E+01  0.79661743828E+01  0.24708368537E+00  0.84281514488E+01  0.51100000000E-03 0.  1.
        -12    1    3    3    0    0 -0.30369329508E+02  0.92800007951E+01  0.19974187845E+02  0.37515100554E+02  0.00000000000E+00 0.  1.
</event>
<event>
 7    1  0.5479172E-013  0.5052887E+02  0.7816164E-02  0.1300439E+00
        -11   -1    0    0    0    0  0.00000000000E+00  0.00000000000E+00  0.45593999997E+02  0.45594000000E+02  0.51100000000E-03 0. -1.
         11   -1    0    0    0    0 -0.00000000000E+00 -0.00000000000E+00 -0.45593999997E+02  0.45594000000E+02  0.51100000000E-03 0.  1.
    9900012    2    1    2    0    0  0.41038276538E+01 -0.36412989106E+02  0.17618683197E+02  0.50528866037E+02  0.30000018806E+02 0.  0.
         12    1    1    2    0    0 -0.41038276538E+01  0.36412989106E+02 -0.17618683197E+02  0.40659133963E+02  0.00000000000E+00 0. -1.
         11    1    3    3    0    0  0.89686518951E+01 -0.86753833063E+01  0.60722494591E+01  0.13877002777E+02  0.51100000000E-03 0. -1.
        -11    1    3    3    0    0 -0.36582486233E+01 -0.28724271814E+02  0.43411098143E+01  0.29279887447E+02  0.51100000000E-03 0.  1.
         12    1    3    3    0    0 -0.12065756180E+01  0.98666601385E+00  0.72053239233E+01  0.73719758128E+01  0.00000000000E+00 0. -1.
</event>
<event>
 7    1  0.5479172E-013  0.5052888E+02  0.7816164E-02  0.1300439E+00
        -11   -1    0    0    0    0  0.00000000000E+00  0.00000000000E+00  0.45593999997E+02  0.45594000000E+02  0.51100000000E-03 0. -1.
         11   -1    0    0    0    0 -0.00000000000E+00 -0.00000000000E+00 -0.45593999997E+02  0.45594000000E+02  0.51100000000E-03 0.  1.
    9900012    2    1    2    0    0 -0.63866900005E+01  0.20356799944E+02 -0.34611776580E+02  0.50528878131E+02  0.30000055566E+02 0.  0.
         12    1    1    2    0    0  0.63866900005E+01 -0.20356799944E+02  0.34611776580E+02  0.40659121869E+02  0.00000000000E+00 0. -1.
         11    1    3    3    0    0 -0.11087598706E+02  0.86603075764E+01 -0.40107783087E+01  0.14629494704E+02  0.51100000000E-03 0. -1.
        -11    1    3    3    0    0  0.50400075888E+00  0.60723505987E+01 -0.19442203590E+01  0.63958933405E+01  0.51100000000E-03 0.  1.
        -12    1    3    3    0    0  0.41969079468E+01  0.56241417690E+01 -0.28656777913E+02  0.29503490087E+02  0.00000000000E+00 0.  1.
</event>
<event>
 7    1  0.5479172E-013  0.5052887E+02  0.7816164E-02  0.1300439E+00
        -11   -1    0    0    0    0  0.00000000000E+00  0.00000000000E+00  0.45593999997E+02  0.45594000000E+02  0.51100000000E-03 0. -1.
         11   -1    0    0    0    0 -0.00000000000E+00 -0.00000000000E+00 -0.45593999997E+02  0.45594000000E+02  0.51100000000E-03 0.  1.
    9900012    2    1    2    0    0  0.27112984339E+02 -0.22654526173E+02 -0.20120220368E+02  0.50528871338E+02  0.30000034919E+02 0.  0.
         12    1    1    2    0    0 -0.27112984339E+02  0.22654526173E+02  0.20120220368E+02  0.40659128662E+02  0.00000000000E+00 0. -1.
         11    1    3    3    0    0  0.49682691908E+01  0.20439145213E+01  0.14580443021E+01  0.55666128633E+01  0.51100000000E-03 0. -1.
        -11    1    3    3    0    0  0.41428873530E+01 -0.56520018102E+01  0.42259235674E+01  0.81833410256E+01  0.51100000000E-03 0.  1.
         12    1    3    3    0    0  0.18001827796E+02 -0.19046438884E+02 -0.25804188237E+02  0.36778917449E+02  0.00000000000E+00 0. -1.
</event>
<event>
 7    1  0.5479172E-013  0.5052886E+02  0.7816164E-02  0.1300439E+00
        -11   -1    0    0    0    0  0.00000000000E+00  0.00000000000E+00  0.45593999997E+02  0.45594000000E+02  0.51100000000E-03 0. -1.
         11   -1    0    0    0    0 -0.00000000000E+00 -0.00000000000E+00 -0.45593999997E+02  0.45594000000E+02  0.51100000000E-03 0.  1.
    9900012    2    1    2    0    0  0.20822233099E+02  0.31018846931E+02 -0.16044662737E+02  0.50528862546E+02  0.30000008194E+02 0.  0.
         12    1    1    2    0    0 -0.20822233099E+02 -0.31018846931E+02  0.16044662737E+02  0.40659137454E+02  0.00000000000E+00 0. -1.
         11    1    3    3    0    0  0.80012238739E+01  0.15080973676E+02 -0.18216525880E+02  0.24965920089E+02  0.51100000000E-03 0.  1.
        -11    1    3    3    0    0 -0.40116756211E+00  0.11075603050E+02  0.29009340417E+01  0.11456235722E+02  0.51100000000E-03 0. -1.
        -12    1    3    3    0    0  0.13222176787E+02  0.48622702052E+01 -0.72907089933E+00  0.14106706735E+02  0.00000000000E+00 0.  1.
</event>
<event>
 7    1  0.5479172E-013  0.5052886E+02  0.7816164E-02  0.1300439E+00
        -11   -1    0    0    0    0  0.00000000000E+00  0.00000000000E+00  0.45593999997E+02  0.45594000000E+02  0.51100000000E-03 0.  1.
         11   -1    0    0    0    0 -0.00000000000E+00 -0.00000000000E+00 -0.45593999997E+02  0.45594000000E+02  0.51100000000E-03 0. -1.
    9900012    2    1    2    0    0 -0.39638014558E+02  0.49054313783E+01 -0.76112091172E+01  0.50528856387E+02  0.29999989473E+02 0.  0.
         12    1    1    2    0    0  0.39638014558E+02 -0.49054313783E+01  0.76112091172E+01  0.40659143613E+02  0.00000000000E+00 0. -1.
         11    1    3    3    0    0 -0.68363260224E+01 -0.13422464983E+01  0.30936830874E+01  0.76228508089E+01  0.51100000000E-03 0.  1.
        -11    1    3    3    0    0  0.33285065554E+01  0.38652535333E+01 -0.28932077333E+01  0.58642810314E+01  0.51100000000E-03 0. -1.
         12    1    3    3    0    0 -0.36130195091E+02  0.23824243434E+01 -0.78116844713E+01  0.37041724546E+02  0.00000000000E+00 0. -1.
</event>
<event>
 7    1  0.5479172E-013  0.5052886E+02  0.7816164E-02  0.1300439E+00
        -11   -1    0    0    0    0  0.00000000000E+00  0.00000000000E+00  0.45593999997E+02  0.45594000000E+02  0.51100000000E-03 0.  1.
         11   -1    0    0    0    0 -0.00000000000E+00 -0.00000000000E+00 -0.45593999997E+02  0.45594000000E+02  0.51100000000E-03 0. -1.
    9900012    2    1    2    0    0 -0.12882381169E+02 -0.40258633102E+01  0.38353645605E+02  0.50528862636E+02  0.30000008468E+02 0.  0.
         12    1    1    2    0    0  0.12882381169E+02  0.40258633102E+01 -0.38353645605E+02  0.40659137364E+02  0.00000000000E+00 0. -1.
         11    1    3    3    0    0 -0.53539270529E+01  0.17605931652E+01 -0.29526146007E+00  0.56437047028E+01  0.51100000000E-03 0. -1.
        -11    1    3    3    0    0 -0.38190836390E+01 -0.76704977600E+01  0.31284841893E+01  0.91219158794E+01  0.51100000000E-03 0.  1.
        -12    1    3    3    0    0 -0.37093704769E+01  0.18840412846E+01  0.35520422876E+02  0.35763242054E+02  0.00000000000E+00 0.  1.
</event>
<event>
 7    1  0.5479172E-013  0.5052886E+02  0.7816164E-02  0.1300439E+00
        -11   -1    0    0    0    0  0.00000000000E+00  0.00000000000E+00  0.45593999997E+02  0.45594000000E+02  0.51100000000E-03 0. -1.
         11   -1    0    0    0    0 -0.00000000000E+00 -0.00000000000E+00 -0.45593999997E+02  0.45594000000E+02  0.51100000000E-03 0.  1.
    9900012    2    1    2    0    0 -0.16359423759E+02  0.11302727541E+02 -0.35465236281E+02  0.50528863511E+02  0.30000011127E+02 0.  0.
         12    1    1    2    0    0  0.16359423759E+02 -0.11302727541E+02  0.35465236281E+02  0.40659136489E+02  0.00000000000E+00 0. -1.
         11    1    3    3    0    0 -0.97465063324E+01 -0.41062467696E+01 -0.14983410201E+02  0.18340071694E+02  0.51100000000E-03 0. -1.
        -11    1    3    3    0    0  0.12027783586E+01 -0.10762106504E+01 -0.11932052792E+02  0.12040713817E+02  0.51100000000E-03 0.  1.
         12    1    3    3    0    0 -0.78156957849E+01  0.16485184961E+02 -0.85497732881E+01  0.20148078000E+02  0.00000000000E+00 0. -1.
</event>
<event>
 7    1  0.5479172E-013  0.5052887E+02  0.7816164E-02  0.1300439E+00
        -11   -1    0    0    0    0  0.00000000000E+00  0.00000000000E+00  0.45593999997E+02  0.45594000000E+02  0.51100000000E-03 0.  1.
         11   -1    0    0    0    0 -0.00000000000E+00 -0.00000000000E+00 -0.45593999997E+02  0.45594000000E+02  0.51100000000E-03 0. -1.
    9900012    2    1    2    0    0  0.19154077559E+02  0.19785079433E+02  0.29913829573E+02  0.50528865048E+02  0.30000015799E+02 0.  0.
         12    1    1    2    0    0 -0.19154077559E+02 -0.19785079433E+02 -0.29913829573E+02  0.40659134952E+02  0.00000000000E+00 0. -1.
         11    1    3    3    0    0  0.26870563692E+01  0.12072476420E+02  0.11591701449E+02  0.16950884979E+02  0.51100000000E-03 0. -1.
        -11    1    3    3    0    0  0.12973141312E+02  0.14170159013E+02  0.17843958233E+02  0.26220271693E+02  0.51100000000E-03 0.  1.
         12    1    3    3    0    0  0.34938798783E+01 -0.64575560000E+01  0.47816989093E+00  0.73577083757E+01  0.00000000000E+00 0. -1.
</event>
<event>
 7    1  0.5479172E-013  0.5052886E+02  0.7816164E-02  0.1300439E+00
        -11   -1    0    0    0    0  0.00000000000E+00  0.00000000000E+00  0.45593999997E+02  0.45594000000E+02  0.51100000000E-03 0.  1.
         11   -1    0    0    0    0 -0.00000000000E+00 -0.00000000000E+00 -0.45593999997E+02  0.45594000000E+02  0.51100000000E-03 0. -1.
    9900012    2    1    2    0    0 -0.36047974019E+02  0.31714713802E+00  0.18804481662E+02  0.50528861497E+02  0.30000005008E+02 0.  0.
         12    1    1    2    0    0  0.36047974019E+02 -0.31714713802E+00 -0.18804481662E+02  0.40659138503E+02  0.00000000000E+00 0. -1.
         11    1    3    3    0    0 -0.36458029384E+01 -0.62999419349E+01 -0.29703490940E+01  0.78615597339E+01  0.51100000000E-03 0. -1.
        -11    1    3    3    0    0 -0.13931220697E+02 -0.35918786406E+01  0.36365015269E+01  0.14839293982E+02  0.51100000000E-03 0.  1.
        -12    1    3    3    0    0 -0.18470950384E+02  0.10208967714E+02  0.18138329229E+02  0.27828007781E+02  0.00000000000E+00 0.  1.
</event>
<event>
 7    1  0.5479172E-013  0.5052886E+02  0.7816164E-02  0.1300439E+00
        -11   -1    0    0    0    0  0.00000000000E+00  0.00000000000E+00  0.45593999997E+02  0.45594000000E+02  0.51100000000E-03 0.  1.
         11   -1    0    0    0    0 -0.00000000000E+00 -0.00000000000E+00 -0.45593999997E+02  0.45594000000E+02  0.51100000000E-03 0. -1.
    9900012    2    1    2    0    0  0.38710260342E+02 -0.11381279025E+02 -0.50147392412E+01  0.50528863540E+02  0.30000011216E+02 0.  0.
         12    1    1    2    0    0 -0.38710260342E+02  0.11381279025E+02  0.50147392412E+01  0.40659136460E+02  0.00000000000E+00 0. -1.
         11    1    3    3    0    0  0.44476413471E+01 -0.15331706942E+01 -0.47494591449E+01  0.66850196978E+01  0.51100000000E-03 0. -1.
        -11    1    3    3    0    0 -0.14542865593E+01 -0.79344871915E+01  0.28070677207E+00  0.80715446440E+01  0.51100000000E-03 0.  1.
        -12    1    3    3    0    0  0.35716905555E+02 -0.19136211391E+01 -0.54598686842E+00  0.35772299198E+02  0.00000000000E+00 0.  1.
</event>
<event>
 7    1  0.5479172E-013  0.5052885E+02  0.7816164E-02  0.1300439E+00
        -11   -1    0    0    0    0  0.00000000000E+00  0.00000000000E+00  0.45593999997E+02  0.45594000000E+02  0.51100000000E-03 0. -1.
         11   -1    0    0    0    0 -0.00000000000E+00 -0.00000000000E+00 -0.45593999997E+02  0.45594000000E+02  0.51100000000E-03 0.  1.
    9900012    2    1    2    0    0 -0.69906313113E+01 -0.12326722463E+02 -0.38109705466E+02  0.50528847727E+02  0.29999963152E+02 0.  0.
         12    1    1    2    0    0  0.69906313113E+01  0.12326722463E+02  0.38109705466E+02  0.40659152273E+02  0.00000000000E+00 0. -1.
         11    1    3    3    0    0 -0.33597410553E+01 -0.81295096914E+01 -0.22693778799E+02  0.24338947887E+02  0.51100000000E-03 0. -1.
        -11    1    3    3    0    0 -0.57005709486E+01 -0.11201869828E+02 -0.13881751092E+02  0.18726489538E+02  0.51100000000E-03 0.  1.
         12    1    3    3    0    0  0.20696806925E+01  0.70046570565E+01 -0.15341755749E+01  0.74634103025E+01  0.00000000000E+00 0. -1.
</event>
<event>
 7    1  0.5479172E-013  0.5052886E+02  0.7816164E-02  0.1300439E+00
        -11   -1    0    0    0    0  0.00000000000E+00  0.00000000000E+00  0.45593999997E+02  0.45594000000E+02  0.51100000000E-03 0.  1.
         11   -1    0    0    0    0 -0.00000000000E+00 -0.00000000000E+00 -0.45593999997E+02  0.45594000000E+02  0.51100000000E-03 0. -1.
    9900012    2    1    2    0    0  0.27773537182E+02 -0.22150717999E+02  0.19777314545E+02  0.50528857780E+02  0.29999993708E+02 0.  0.
         12    1    1    2    0    0 -0.27773537182E+02  0.22150717999E+02 -0.19777314545E+02  0.40659142220E+02  0.00000000000E+00 0. -1.
         11    1    3    3    0    0  0.19247975678E+02 -0.14859752497E+01  0.12005817282E+02  0.22733946842E+02  0.51100000000E-03 0. -1.
        -11    1    3    3    0    0  0.51854907444E+01 -0.17372611854E+02 -0.66535668084E+00  0.18142206500E+02  0.51100000000E-03 0.  1.
         12    1    3    3    0    0  0.33400707592E+01 -0.32921308949E+01  0.84368539444E+01  0.96527044389E+01  0.00000000000E+00 0. -1.
</event>
<event>
 7    1  0.5479172E-013  0.5052886E+02  0.7816164E-02  0.1300439E+00
        -11   -1    0    0    0    0  0.00000000000E+00  0.00000000000E+00  0.45593999997E+02  0.45594000000E+02  0.51100000000E-03 0.  1.
         11   -1    0    0    0    0 -0.00000000000E+00 -0.00000000000E+00 -0.45593999997E+02  0.45594000000E+02  0.51100000000E-03 0. -1.
    9900012    2    1    2    0    0  0.30017897993E+02  0.24445579221E+02  0.12429996106E+02  0.50528863923E+02  0.30000012379E+02 0.  0.
         12    1    1    2    0    0 -0.30017897993E+02 -0.24445579221E+02 -0.12429996106E+02  0.40659136077E+02  0.00000000000E+00 0. -1.
         11    1    3    3    0    0 -0.97940948020E-01 -0.29143696011E+01  0.37437462207E+01  0.47453955185E+01  0.51100000000E-03 0. -1.
        -11    1    3    3    0    0  0.31096265646E+02  0.22844965706E+02  0.33590009337E+01  0.38731809702E+02  0.51100000000E-03 0.  1.
         12    1    3    3    0    0 -0.98042670483E+00  0.45149831154E+01  0.53272489519E+01  0.70516587021E+01  0.00000000000E+00 0. -1.
</event>
<event>
 7    1  0.5479172E-013  0.5052886E+02  0.7816164E-02  0.1300439E+00
        -11   -1    0    0    0    0  0.00000000000E+00  0.00000000000E+00  0.45593999997E+02  0.45594000000E+02  0.51100000000E-03 0. -1.
         11   -1    0    0    0    0 -0.00000000000E+00 -0.00000000000E+00 -0.45593999997E+02  0.45594000000E+02  0.51100000000E-03 0.  1.
    9900012    2    1    2    0    0 -0.31398161016E+01 -0.29782499905E+02 -0.27501095650E+02  0.50528855793E+02  0.29999987668E+02 0.  0.
         12    1    1    2    0    0  0.31398161016E+01  0.29782499905E+02  0.27501095650E+02  0.40659144207E+02  0.00000000000E+00 0. -1.
         11    1    3    3    0    0  0.12143127376E+02 -0.84189042087E+01 -0.64639534100E+01  0.16128117822E+02  0.51100000000E-03 0. -1.
        -11    1    3    3    0    0  0.93658902958E-01 -0.40942630041E+01 -0.32220447998E+01  0.52108861521E+01  0.51100000000E-03 0.  1.
        -12    1    3    3    0    0 -0.15376602381E+02 -0.17269332692E+02 -0.17815097440E+02  0.29189851818E+02  0.00000000000E+00 0.  1.
</event>
<event>
 7    1  0.5479172E-013  0.5052886E+02  0.7816164E-02  0.1300439E+00
        -11   -1    0    0    0    0  0.00000000000E+00  0.00000000000E+00  0.45593999997E+02  0.45594000000E+02  0.51100000000E-03 0.  1.
         11   -1    0    0    0    0 -0.00000000000E+00 -0.00000000000E+00 -0.45593999997E+02  0.45594000000E+02  0.51100000000E-03 0. -1.
    9900012    2    1    2    0    0  0.28108725960E+02  0.84458899604E+01  0.28137738577E+02  0.50528857553E+02  0.29999993018E+02 0.  0.
         12    1    1    2    0    0 -0.28108725960E+02 -0.84458899604E+01 -0.28137738577E+02  0.40659142447E+02  0.00000000000E+00 0. -1.
         11    1    3    3    0    0 -0.25812170634E+01  0.38060920660E+01  0.45255050637E+01  0.64520705736E+01  0.51100000000E-03 0. -1.
        -11    1    3    3    0    0  0.67583143218E+01  0.63326978184E+01  0.16722023385E+02  0.19115541857E+02  0.51100000000E-03 0.  1.
        -12    1    3    3    0    0  0.23931628701E+02 -0.16928999239E+01  0.68902101282E+01  0.24961245122E+02  0.00000000000E+00 0.  1.
</event>
<event>
 7    1  0.5479172E-013  0.5052886E+02  0.7816164E-02  0.1300439E+00
        -11   -1    0    0    0    0  0.00000000000E+00  0.00000000000E+00  0.45593999997E+02  0.45594000000E+02  0.51100000000E-03 0. -1.
         11   -1    0    0    0    0 -0.00000000000E+00 -0.00000000000E+00 -0.45593999997E+02  0.45594000000E+02  0.51100000000E-03 0.  1.
    9900012    2    1    2    0    0 -0.21450700186E+02  0.27709189168E+02 -0.20621197863E+02  0.50528861985E+02  0.30000006490E+02 0.  0.
         12    1    1    2    0    0  0.21450700186E+02 -0.27709189168E+02  0.20621197863E+02  0.40659138015E+02  0.00000000000E+00 0. -1.
         11    1    3    3    0    0 -0.61959377153E+01 -0.20888153983E+01 -0.16425646478E+01  0.67417217996E+01  0.51100000000E-03 0. -1.
        -11    1    3    3    0    0 -0.13327586667E+02  0.14536352854E+02 -0.47856020440E+00  0.19727116891E+02  0.51100000000E-03 0.  1.
         12    1    3    3    0    0 -0.19271758030E+01  0.15261651712E+02 -0.18500073011E+02  0.24060023295E+02  0.00000000000E+00 0. -1.
</event>
<event>
 7    1  0.5479172E-013  0.5052887E+02  0.7816164E-02  0.1300439E+00
        -11   -1    0    0    0    0  0.00000000000E+00  0.00000000000E+00  0.45593999997E+02  0.45594000000E+02  0.51100000000E-03 0. -1.
         11   -1    0    0    0    0 -0.00000000000E+00 -0.00000000000E+00 -0.45593999997E+02  0.45594000000E+02  0.51100000000E-03 0.  1.
    9900012    2    1    2    0    0 -0.66203837392E+01 -0.36954464632E+02  0.15610982955E+02  0.50528871555E+02  0.30000035579E+02 0.  0.
         12    1    1    2    0    0  0.66203837392E+01  0.36954464632E+02 -0.15610982955E+02  0.40659128445E+02  0.00000000000E+00 0. -1.
         11    1    3    3    0    0 -0.32716353609E+01 -0.99555701034E+01 -0.70821163892E+01  0.12648057038E+02  0.51100000000E-03 0. -1.
        -11    1    3    3    0    0  0.14191570382E+01 -0.38484661391E+01 -0.11982177590E+01  0.42732217801E+01  0.51100000000E-03 0.  1.
         12    1    3    3    0    0 -0.47679054165E+01 -0.23150428389E+02  0.23891317104E+02  0.33607592737E+02  0.00000000000E+00 0. -1.
</event>
<event>
 7    1  0.5479172E-013  0.5052886E+02  0.7816164E-02  0.1300439E+00
        -11   -1    0    0    0    0  0.00000000000E+00  0.00000000000E+00  0.45593999997E+02  0.45594000000E+02  0.51100000000E-03 0. -1.
         11   -1    0    0    0    0 -0.00000000000E+00 -0.00000000000E+00 -0.45593999997E+02  0.45594000000E+02  0.51100000000E-03 0.  1.
    9900012    2    1    2    0    0  0.30679044211E+02  0.24247192540E+02 -0.11137132465E+02  0.50528858110E+02  0.29999994710E+02 0.  0.
         12    1    1    2    0    0 -0.30679044211E+02 -0.24247192540E+02  0.11137132465E+02  0.40659141890E+02  0.00000000000E+00 0. -1.
         11    1    3    3    0    0  0.16296114501E+01  0.21146696998E+01 -0.46340375402E+01  0.53480618548E+01  0.51100000000E-03 0. -1.
        -11    1    3    3    0    0  0.27543347268E+02  0.17903235289E+02 -0.14579438137E+02  0.35940531844E+02  0.51100000000E-03 0.  1.
         12    1    3    3    0    0  0.15060854922E+01  0.42292875507E+01  0.80763432126E+01  0.92402644109E+01  0.00000000000E+00 0. -1.
</event>
<event>
 7    1 -0.5479172E-013  0.5052886E+02  0.7816164E-02  0.1300439E+00
        -11   -1    0    0    0    0  0.00000000000E+00  0.00000000000E+00  0.45593999997E+02  0.45594000000E+02  0.51100000000E-03 0.  1.
         11   -1    0    0    0    0 -0.00000000000E+00 -0.00000000000E+00 -0.45593999997E+02  0.45594000000E+02  0.51100000000E-03 0. -1.
    9900012    2    1    2    0    0 -0.21055664011E+02 -0.87442193745E+01  0.33665463605E+02  0.50528858357E+02  0.29999995461E+02 0.  0.
         12    1    1    2    0    0  0.21055664011E+02  0.87442193745E+01 -0.33665463605E+02  0.40659141643E+02  0.00000000000E+00 0. -1.
         11    1    3    3    0    0 -0.31431146768E+01  0.11461098271E+00  0.39578898488E+00  0.31700086325E+01  0.51100000000E-03 0. -1.
        -11    1    3    3    0    0  0.68196744598E+01 -0.19822757513E+01  0.31084215105E+01  0.77523971415E+01  0.51100000000E-03 0.  1.
        -12    1    3    3    0    0 -0.24732223794E+02 -0.68765546060E+01  0.30161253110E+02  0.39606452583E+02  0.00000000000E+00 0.  1.
</event>
<event>
 7    1  0.5479172E-013  0.5052885E+02  0.7816164E-02  0.1300439E+00
        -11   -1    0    0    0    0  0.00000000000E+00  0.00000000000E+00  0.45593999997E+02  0.45594000000E+02  0.51100000000E-03 0.  1.
         11   -1    0    0    0    0 -0.00000000000E+00 -0.00000000000E+00 -0.45593999997E+02  0.45594000000E+02  0.51100000000E-03 0. -1.
    9900012    2    1    2    0    0 -0.33498274295E+02 -0.17427267090E+02  0.15077225316E+02  0.50528846760E+02  0.29999960212E+02 0.  0.
         12    1    1    2    0    0  0.33498274295E+02  0.17427267090E+02 -0.15077225316E+02  0.40659153240E+02  0.00000000000E+00 0. -1.
         11    1    3    3    0    0  0.56319230283E+00 -0.52399559005E+01  0.77088071279E+01  0.93380956841E+01  0.51100000000E-03 0. -1.
        -11    1    3    3    0    0 -0.13350622829E+02  0.18377564249E+01  0.88688213486E+01  0.16132962250E+02  0.51100000000E-03 0.  1.
        -12    1    3    3    0    0 -0.20710843769E+02 -0.14025067614E+02 -0.15004031603E+01  0.25057788826E+02  0.00000000000E+00 0.  1.
</event>
<event>
 7    1  0.5479172E-013  0.5052886E+02  0.7816164E-02  0.1300439E+00
        -11   -1    0    0    0    0  0.00000000000E+00  0.00000000000E+00  0.45593999997E+02  0.45594000000E+02  0.51100000000E-03 0.  1.
         11   -1    0    0    0    0 -0.00000000000E+00 -0.00000000000E+00 -0.45593999997E+02  0.45594000000E+02  0.51100000000E-03 0. -1.
    9900012    2    1    2    0    0  0.42507469524E+01  0.39783669884E+02 -0.72357543803E+01  0.50528863505E+02  0.30000011109E+02 0.  0.
         12    1    1    2    0    0 -0.42507469524E+01 -0.39783669884E+02  0.72357543803E+01  0.40659136495E+02  0.00000000000E+00 0. -1.
         11    1    3    3    0    0  0.85165228046E-01  0.46300173972E+01  0.13934317340E+01  0.48359038941E+01  0.51100000000E-03 0.  1.
        -11    1    3    3    0    0  0.10935103594E+02  0.12924731751E+02  0.63105106275E+01  0.18067864458E+02  0.51100000000E-03 0. -1.
         12    1    3    3    0    0 -0.67695218699E+01  0.22228920736E+02 -0.14939696742E+02  0.27625095152E+02  0.00000000000E+00 0. -1.
</event>
<event>
 7    1  0.5479172E-013  0.5052886E+02  0.7816164E-02  0.1300439E+00
        -11   -1    0    0    0    0  0.00000000000E+00  0.00000000000E+00  0.45593999997E+02  0.45594000000E+02  0.51100000000E-03 0.  1.
         11   -1    0    0    0    0 -0.00000000000E+00 -0.00000000000E+00 -0.45593999997E+02  0.45594000000E+02  0.51100000000E-03 0. -1.
    9900012    2    1    2    0    0 -0.40103069370E+01  0.29309571222E+02  0.27893223770E+02  0.50528862537E+02  0.30000008168E+02 0.  0.
         12    1    1    2    0    0  0.40103069370E+01 -0.29309571222E+02 -0.27893223770E+02  0.40659137463E+02  0.00000000000E+00 0. -1.
         11    1    3    3    0    0 -0.43759676954E+01 -0.26367536208E+01  0.14019944727E+00  0.51108921994E+01  0.51100000000E-03 0. -1.
        -11    1    3    3    0    0 -0.60834263119E+01  0.41414487882E+01  0.66780154349E+01  0.99375834169E+01  0.51100000000E-03 0.  1.
         12    1    3    3    0    0  0.64490870703E+01  0.27804876054E+02  0.21075008888E+02  0.35480386921E+02  0.00000000000E+00 0. -1.
</event>
<event>
 7    1  0.5479172E-013  0.5052886E+02  0.7816164E-02  0.1300439E+00
        -11   -1    0    0    0    0  0.00000000000E+00  0.00000000000E+00  0.45593999997E+02  0.45594000000E+02  0.51100000000E-03 0. -1.
         11   -1    0    0    0    0 -0.00000000000E+00 -0.00000000000E+00 -0.45593999997E+02  0.45594000000E+02  0.51100000000E-03 0.  1.
    9900012    2    1    2    0    0 -0.35291037761E+02 -0.13089038597E+02 -0.15374824034E+02  0.50528862138E+02  0.30000006954E+02 0.  0.
         12    1    1    2    0    0  0.35291037761E+02  0.13089038597E+02  0.15374824034E+02  0.40659137862E+02  0.00000000000E+00 0. -1.
         11    1    3    3    0    0 -0.15592877954E+02 -0.12866540387E+02 -0.98481453477E+01  0.22487144583E+02  0.51100000000E-03 0. -1.
        -11    1    3    3    0    0 -0.14088728495E+02 -0.85578706454E+01  0.18366363877E+00  0.16485240465E+02  0.51100000000E-03 0.  1.
         12    1    3    3    0    0 -0.56094313111E+01  0.83353724353E+01 -0.57103423252E+01  0.11556477090E+02  0.00000000000E+00 0. -1.
</event>
<event>
 7    1  0.5479172E-013  0.5052888E+02  0.7816164E-02  0.1300439E+00
        -11   -1    0    0    0    0  0.00000000000E+00  0.00000000000E+00  0.45593999997E+02  0.45594000000E+02  0.51100000000E-03 0.  1.
         11   -1    0    0    0    0 -0.00000000000E+00 -0.00000000000E+00 -0.45593999997E+02  0.45594000000E+02  0.51100000000E-03 0. -1.
    9900012    2    1    2    0    0 -0.10090828967E+02  0.31664743994E+02  0.23423982671E+02  0.50528882872E+02  0.30000069978E+02 0.  0.
         12    1    1    2    0    0  0.10090828967E+02 -0.31664743994E+02 -0.23423982671E+02  0.40659117128E+02  0.00000000000E+00 0. -1.
         11    1    3    3    0    0 -0.43461942620E+01  0.10064742252E+02  0.16952915321E+02  0.20188852847E+02  0.51100000000E-03 0. -1.
        -11    1    3    3    0    0 -0.19500473238E+01  0.22288178318E+02  0.10541906241E+02  0.24732516345E+02  0.51100000000E-03 0.  1.
         12    1    3    3    0    0 -0.37945873817E+01 -0.68817657601E+00 -0.40708388905E+01  0.56075136799E+01  0.00000000000E+00 0. -1.
</event>
<event>
 7    1  0.5479172E-013  0.5052886E+02  0.7816164E-02  0.1300439E+00
        -11   -1    0    0    0    0  0.00000000000E+00  0.00000000000E+00  0.45593999997E+02  0.45594000000E+02  0.51100000000E-03 0.  1.
         11   -1    0    0    0    0 -0.00000000000E+00 -0.00000000000E+00 -0.45593999997E+02  0.45594000000E+02  0.51100000000E-03 0. -1.
    9900012    2    1    2    0    0  0.11931484200E+02  0.87753156244E+01  0.37865544464E+02  0.50528856661E+02  0.29999990306E+02 0.  0.
         12    1    1    2    0    0 -0.11931484200E+02 -0.87753156244E+01 -0.37865544464E+02  0.40659143339E+02  0.00000000000E+00 0. -1.
         11    1    3    3    0    0 -0.46742524829E+00 -0.25007384035E+00  0.11598492079E+02  0.11610600417E+02  0.51100000000E-03 0. -1.
        -11    1    3    3    0    0  0.27689188476E+00  0.57814800403E+01  0.25714138890E+02  0.26357524916E+02  0.51100000000E-03 0.  1.
         12    1    3    3    0    0  0.12122017563E+02  0.32439094244E+01  0.55291349549E+00  0.12560731328E+02  0.00000000000E+00 0. -1.
</event>
<event>
 7    1  0.5479172E-013  0.5052885E+02  0.7816164E-02  0.1300439E+00
        -11   -1    0    0    0    0  0.00000000000E+00  0.00000000000E+00  0.45593999997E+02  0.45594000000E+02  0.51100000000E-03 0. -1.
         11   -1    0    0    0    0 -0.00000000000E+00 -0.00000000000E+00 -0.45593999997E+02  0.45594000000E+02  0.51100000000E-03 0.  1.
    9900012    2    1    2    0    0 -0.86432049885E+01  0.33935491228E+02 -0.20660199158E+02  0.50528851133E+02  0.29999973503E+02 0.  0.
         12    1    1    2    0    0  0.86432049885E+01 -0.33935491228E+02  0.20660199158E+02  0.40659148867E+02  0.00000000000E+00 0. -1.
         11    1    3    3    0    0  0.45734405529E+01  0.87613229660E+01 -0.73952632408E+01  0.12343705168E+02  0.51100000000E-03 0.  1.
        -11    1    3    3    0    0  0.58467743672E+01  0.30464742775E+01 -0.21472746707E+01  0.69337266169E+01  0.51100000000E-03 0. -1.
         12    1    3    3    0    0 -0.19063419909E+02  0.22127693984E+02 -0.11117661246E+02  0.31251419348E+02  0.00000000000E+00 0. -1.
</event>
<event>
 7    1  0.5479172E-013  0.5052888E+02  0.7816164E-02  0.1300439E+00
        -11   -1    0    0    0    0  0.00000000000E+00  0.00000000000E+00  0.45593999997E+02  0.45594000000E+02  0.51100000000E-03 0. -1.
         11   -1    0    0    0    0 -0.00000000000E+00 -0.00000000000E+00 -0.45593999997E+02  0.45594000000E+02  0.51100000000E-03 0.  1.
    9900012    2    1    2    0    0 -0.32706627003E+02 -0.17982373330E+02 -0.16126838006E+02  0.50528879196E+02  0.30000058803E+02 0.  0.
         12    1    1    2    0    0  0.32706627003E+02  0.17982373330E+02  0.16126838006E+02  0.40659120804E+02  0.00000000000E+00 0. -1.
         11    1    3    3    0    0 -0.63090528647E+01 -0.52317927056E+01  0.22088826439E+00  0.81990606078E+01  0.51100000000E-03 0. -1.
        -11    1    3    3    0    0 -0.21355892986E+02 -0.13043840915E+02  0.20363315190E+00  0.25025135720E+02  0.51100000000E-03 0.  1.
        -12    1    3    3    0    0 -0.50416811523E+01  0.29326029109E+00 -0.16551359422E+02  0.17304682868E+02  0.00000000000E+00 0.  1.
</event>
<event>
 7    1  0.5479172E-013  0.5052871E+02  0.7816164E-02  0.1300439E+00
        -11   -1    0    0    0    0  0.00000000000E+00  0.00000000000E+00  0.45593999997E+02  0.45594000000E+02  0.51100000000E-03 0.  1.
         11   -1    0    0    0    0 -0.00000000000E+00 -0.00000000000E+00 -0.45593999997E+02  0.45594000000E+02  0.51100000000E-03 0. -1.
    9900012    2    1    2    0    0  0.12343168186E+02 -0.37378146423E+02 -0.10183217624E+02  0.50528713827E+02  0.29999556146E+02 0.  0.
         12    1    1    2    0    0 -0.12343168186E+02  0.37378146423E+02  0.10183217624E+02  0.40659286173E+02  0.00000000000E+00 0. -1.
         11    1    3    3    0    0 -0.32401354080E+01 -0.12867990489E+02 -0.75284732075E+01  0.15256525351E+02  0.51100000000E-03 0. -1.
        -11    1    3    3    0    0  0.50791627056E+01 -0.15287577898E+02  0.77209088506E+01  0.17863940369E+02  0.51100000000E-03 0.  1.
         12    1    3    3    0    0  0.10504140889E+02 -0.92225780363E+01 -0.10375653267E+02  0.17408248107E+02  0.00000000000E+00 0. -1.
</event>
<event>
 7    1  0.5479172E-013  0.5052884E+02  0.7816164E-02  0.1300439E+00
        -11   -1    0    0    0    0  0.00000000000E+00  0.00000000000E+00  0.45593999997E+02  0.45594000000E+02  0.51100000000E-03 0.  1.
         11   -1    0    0    0    0 -0.00000000000E+00 -0.00000000000E+00 -0.45593999997E+02  0.45594000000E+02  0.51100000000E-03 0. -1.
    9900012    2    1    2    0    0  0.36564514823E+02 -0.17742666016E+02 -0.11837589208E+01  0.50528840801E+02  0.29999942099E+02 0.  0.
         12    1    1    2    0    0 -0.36564514823E+02  0.17742666016E+02  0.11837589208E+01  0.40659159199E+02  0.00000000000E+00 0. -1.
         11    1    3    3    0    0  0.78296613550E+01  0.27541526807E+01 -0.52652052440E+00  0.83166205905E+01  0.51100000000E-03 0. -1.
        -11    1    3    3    0    0  0.31902212253E+02 -0.19835642196E+02 -0.37291200775E+01  0.37750631581E+02  0.51100000000E-03 0.  1.
        -12    1    3    3    0    0 -0.31673587850E+01 -0.66117650098E+00  0.30718816811E+01  0.44615886297E+01  0.00000000000E+00 0.  1.
</event>
<event>
 7    1  0.5479172E-013  0.5052887E+02  0.7816164E-02  0.1300439E+00
        -11   -1    0    0    0    0  0.00000000000E+00  0.00000000000E+00  0.45593999997E+02  0.45594000000E+02  0.51100000000E-03 0.  1.
         11   -1    0    0    0    0 -0.00000000000E+00 -0.00000000000E+00 -0.45593999997E+02  0.45594000000E+02  0.51100000000E-03 0. -1.
    9900012    2    1    2    0    0 -0.12211501537E+02 -0.13656463747E+02  0.36298008557E+02  0.50528865761E+02  0.30000017967E+02 0.  0.
         12    1    1    2    0    0  0.12211501537E+02  0.13656463747E+02 -0.36298008557E+02  0.40659134239E+02  0.00000000000E+00 0. -1.
         11    1    3    3    0    0 -0.12346515012E+02 -0.62686174885E+01  0.27139195302E+02  0.30467489560E+02  0.51100000000E-03 0. -1.
        -11    1    3    3    0    0 -0.32513572463E+01 -0.56937592526E+01  0.13067004388E+02  0.14619740843E+02  0.51100000000E-03 0.  1.
         12    1    3    3    0    0  0.33863707216E+01 -0.16940870062E+01 -0.39081911330E+01  0.54416353590E+01  0.00000000000E+00 0. -1.
</event>
<event>
 7    1  0.5479172E-013  0.5052887E+02  0.7816164E-02  0.1300439E+00
        -11   -1    0    0    0    0  0.00000000000E+00  0.00000000000E+00  0.45593999997E+02  0.45594000000E+02  0.51100000000E-03 0. -1.
         11   -1    0    0    0    0 -0.00000000000E+00 -0.00000000000E+00 -0.45593999997E+02  0.45594000000E+02  0.51100000000E-03 0.  1.
    9900012    2    1    2    0    0 -0.34990875916E+02  0.36442074204E+01  0.20384393101E+02  0.50528866620E+02  0.30000020579E+02 0.  0.
         12    1    1    2    0    0  0.34990875916E+02 -0.36442074204E+01 -0.20384393101E+02  0.40659133380E+02  0.00000000000E+00 0. -1.
         11    1    3    3    0    0 -0.13992250404E+02  0.29967995059E+01  0.78328004710E+01  0.16313081932E+02  0.51100000000E-03 0.  1.
        -11    1    3    3    0    0 -0.19267196636E+02  0.27777482768E+01  0.19003396814E+02  0.27204224717E+02  0.51100000000E-03 0. -1.
        -12    1    3    3    0    0 -0.17314288761E+01 -0.21303403624E+01 -0.64518041838E+01  0.70115599718E+01  0.00000000000E+00 0.  1.
</event>
<event>
 7    1  0.5479172E-013  0.5052887E+02  0.7816164E-02  0.1300439E+00
        -11   -1    0    0    0    0  0.00000000000E+00  0.00000000000E+00  0.45593999997E+02  0.45594000000E+02  0.51100000000E-03 0.  1.
         11   -1    0    0    0    0 -0.00000000000E+00 -0.00000000000E+00 -0.45593999997E+02  0.45594000000E+02  0.51100000000E-03 0. -1.
    9900012    2    1    2    0    0  0.12795034607E+02  0.35839580710E+02  0.14317009802E+02  0.50528865409E+02  0.30000016897E+02 0.  0.
         12    1    1    2    0    0 -0.12795034607E+02 -0.35839580710E+02 -0.14317009802E+02  0.40659134591E+02  0.00000000000E+00 0. -1.
         11    1    3    3    0    0  0.25240043639E+01  0.41324027879E+01  0.48023145558E+01  0.68197929722E+01  0.51100000000E-03 0. -1.
        -11    1    3    3    0    0  0.16633135822E+02  0.32054832791E+02  0.94819436853E+01  0.37337391029E+02  0.51100000000E-03 0.  1.
         12    1    3    3    0    0 -0.63621055787E+01 -0.34765486889E+00  0.32751560556E-01  0.63716814081E+01  0.00000000000E+00 0. -1.
</event>
<event>
 7    1  0.5479172E-013  0.5052888E+02  0.7816164E-02  0.1300439E+00
        -11   -1    0    0    0    0  0.00000000000E+00  0.00000000000E+00  0.45593999997E+02  0.45594000000E+02  0.51100000000E-03 0.  1.
         11   -1    0    0    0    0 -0.00000000000E+00 -0.00000000000E+00 -0.45593999997E+02  0.45594000000E+02  0.51100000000E-03 0. -1.
    9900012    2    1    2    0    0  0.67096642379E+01 -0.28666505748E+02  0.28042399589E+02  0.50528876538E+02  0.30000050726E+02 0.  0.
         12    1    1    2    0    0 -0.67096642379E+01  0.28666505748E+02 -0.28042399589E+02  0.40659123462E+02  0.00000000000E+00 0. -1.
         11    1    3    3    0    0  0.29430450551E+01 -0.28154977333E+02  0.16008333756E+02  0.32521239409E+02  0.51100000000E-03 0.  1.
        -11    1    3    3    0    0 -0.55732941359E+00 -0.38203694104E+01 -0.90866483640E+00  0.39662968312E+01  0.51100000000E-03 0. -1.
        -12    1    3    3    0    0  0.43239485964E+01  0.33088409952E+01  0.12942730669E+02  0.14041340298E+02  0.00000000000E+00 0.  1.
</event>
<event>
 7    1  0.5479172E-013  0.5052886E+02  0.7816164E-02  0.1300439E+00
        -11   -1    0    0    0    0  0.00000000000E+00  0.00000000000E+00  0.45593999997E+02  0.45594000000E+02  0.51100000000E-03 0.  1.
         11   -1    0    0    0    0 -0.00000000000E+00 -0.00000000000E+00 -0.45593999997E+02  0.45594000000E+02  0.51100000000E-03 0. -1.
    9900012    2    1    2    0    0  0.25473043083E+02 -0.24344465938E+02  0.20288837102E+02  0.50528857650E+02  0.29999993312E+02 0.  0.
         12    1    1    2    0    0 -0.25473043083E+02  0.24344465938E+02 -0.20288837102E+02  0.40659142350E+02  0.00000000000E+00 0. -1.
         11    1    3    3    0    0  0.43396631659E+01 -0.89706868445E+01  0.17148522055E+02  0.19833751732E+02  0.51100000000E-03 0. -1.
        -11    1    3    3    0    0  0.37466127990E+01  0.11187486170E+01  0.53525269594E+01  0.66285934440E+01  0.51100000000E-03 0.  1.
         12    1    3    3    0    0  0.17386767118E+02 -0.16492527711E+02 -0.22122119121E+01  0.24066512474E+02  0.00000000000E+00 0. -1.
</event>
<event>
 7    1  0.5479172E-013  0.5052888E+02  0.7816164E-02  0.1300439E+00
        -11   -1    0    0    0    0  0.00000000000E+00  0.00000000000E+00  0.45593999997E+02  0.45594000000E+02  0.51100000000E-03 0.  1.
         11   -1    0    0    0    0 -0.00000000000E+00 -0.00000000000E+00 -0.45593999997E+02  0.45594000000E+02  0.51100000000E-03 0. -1.
    9900012    2    1    2    0    0  0.11627204327E+02 -0.17049237552E+02  0.35032784368E+02  0.50528876028E+02  0.30000049176E+02 0.  0.
         12    1    1    2    0    0 -0.11627204327E+02  0.17049237552E+02 -0.35032784368E+02  0.40659123972E+02  0.00000000000E+00 0. -1.
         11    1    3    3    0    0 -0.57100961233E+01  0.84692386841E-01  0.15252969106E+01  0.59109137588E+01  0.51100000000E-03 0. -1.
        -11    1    3    3    0    0 -0.24533809411E+01 -0.20413186212E+00  0.71581189067E+01  0.75696376665E+01  0.51100000000E-03 0.  1.
        -12    1    3    3    0    0  0.19790681391E+02 -0.16929798077E+02  0.26349368551E+02  0.37048324603E+02  0.00000000000E+00 0.  1.
</event>
<event>
 7    1  0.5479172E-013  0.5052886E+02  0.7816164E-02  0.1300439E+00
        -11   -1    0    0    0    0  0.00000000000E+00  0.00000000000E+00  0.45593999997E+02  0.45594000000E+02  0.51100000000E-03 0.  1.
         11   -1    0    0    0    0 -0.00000000000E+00 -0.00000000000E+00 -0.45593999997E+02  0.45594000000E+02  0.51100000000E-03 0. -1.
    9900012    2    1    2    0    0 -0.38726591847E+02 -0.62248072340E+01  0.10708336610E+02  0.50528860632E+02  0.30000002378E+02 0.  0.
         12    1    1    2    0    0  0.38726591847E+02  0.62248072340E+01 -0.10708336610E+02  0.40659139368E+02  0.00000000000E+00 0. -1.
         11    1    3    3    0    0 -0.92834944966E+00 -0.26118039500E+01  0.98591688444E+01  0.10241414118E+02  0.51100000000E-03 0. -1.
        -11    1    3    3    0    0 -0.16896784871E+01 -0.26705285888E+01  0.26463820148E+01  0.41219017896E+01  0.51100000000E-03 0.  1.
         12    1    3    3    0    0 -0.36108563910E+02 -0.94247469519E+00 -0.17972142491E+01  0.36165544725E+02  0.00000000000E+00 0. -1.
</event>
<event>
 7    1  0.5479172E-013  0.5052885E+02  0.7816164E-02  0.1300439E+00
        -11   -1    0    0    0    0  0.00000000000E+00  0.00000000000E+00  0.45593999997E+02  0.45594000000E+02  0.51100000000E-03 0.  1.
         11   -1    0    0    0    0 -0.00000000000E+00 -0.00000000000E+00 -0.45593999997E+02  0.45594000000E+02  0.51100000000E-03 0. -1.
    9900012    2    1    2    0    0  0.37875659959E+02  0.66402503575E+01 -0.13210142834E+02  0.50528850773E+02  0.29999972410E+02 0.  0.
         12    1    1    2    0    0 -0.37875659959E+02 -0.66402503575E+01  0.13210142834E+02  0.40659149227E+02  0.00000000000E+00 0. -1.
         11    1    3    3    0    0  0.17144033142E+02  0.68004402024E+01 -0.15930784774E+02  0.24371166634E+02  0.51100000000E-03 0. -1.
        -11    1    3    3    0    0  0.13997034380E+02 -0.67690601648E+00 -0.59011275605E+01  0.15205212262E+02  0.51100000000E-03 0.  1.
         12    1    3    3    0    0  0.67345924374E+01  0.51671617158E+00  0.86217695005E+01  0.10952471877E+02  0.00000000000E+00 0. -1.
</event>
<event>
 7    1  0.5479172E-013  0.5052885E+02  0.7816164E-02  0.1300439E+00
        -11   -1    0    0    0    0  0.00000000000E+00  0.00000000000E+00  0.45593999997E+02  0.45594000000E+02  0.51100000000E-03 0.  1.
         11   -1    0    0    0    0 -0.00000000000E+00 -0.00000000000E+00 -0.45593999997E+02  0.45594000000E+02  0.51100000000E-03 0. -1.
    9900012    2    1    2    0    0 -0.12505936833E+02  0.20954055123E+02  0.32522230385E+02  0.50528851566E+02  0.29999974820E+02 0.  0.
         12    1    1    2    0    0  0.12505936833E+02 -0.20954055123E+02 -0.32522230385E+02  0.40659148434E+02  0.00000000000E+00 0. -1.
         11    1    3    3    0    0 -0.34122119969E+01  0.44635085260E+01  0.15082853662E+02  0.16095296640E+02  0.51100000000E-03 0. -1.
        -11    1    3    3    0    0 -0.15311327428E+02  0.12894799384E+02  0.18396978057E+02  0.27187522885E+02  0.51100000000E-03 0.  1.
         12    1    3    3    0    0  0.62176025922E+01  0.35957472130E+01 -0.95760133439E+00  0.72460320404E+01  0.00000000000E+00 0. -1.
</event>
<event>
 7    1  0.5479172E-013  0.5052885E+02  0.7816164E-02  0.1300439E+00
        -11   -1    0    0    0    0  0.00000000000E+00  0.00000000000E+00  0.45593999997E+02  0.45594000000E+02  0.51100000000E-03 0.  1.
         11   -1    0    0    0    0 -0.00000000000E+00 -0.00000000000E+00 -0.45593999997E+02  0.45594000000E+02  0.51100000000E-03 0. -1.
    9900012    2    1    2    0    0  0.23838509435E+02 -0.21842767796E+02  0.24653311225E+02  0.50528846154E+02  0.29999958369E+02 0.  0.
         12    1    1    2    0    0 -0.23838509435E+02  0.21842767796E+02 -0.24653311225E+02  0.40659153846E+02  0.00000000000E+00 0. -1.
         11    1    3    3    0    0 -0.99296336852E+00  0.30353956767E+01 -0.38685642074E+01  0.50165119808E+01  0.51100000000E-03 0. -1.
        -11    1    3    3    0    0  0.14215106049E+01 -0.28404015876E+01  0.14942926294E+01  0.35101971885E+01  0.51100000000E-03 0.  1.
        -12    1    3    3    0    0  0.23409962199E+02 -0.22037761885E+02  0.27027582804E+02  0.42002136985E+02  0.00000000000E+00 0.  1.
</event>
<event>
 7    1  0.5479172E-013  0.5052886E+02  0.7816164E-02  0.1300439E+00
        -11   -1    0    0    0    0  0.00000000000E+00  0.00000000000E+00  0.45593999997E+02  0.45594000000E+02  0.51100000000E-03 0. -1.
         11   -1    0    0    0    0 -0.00000000000E+00 -0.00000000000E+00 -0.45593999997E+02  0.45594000000E+02  0.51100000000E-03 0.  1.
    9900012    2    1    2    0    0  0.25660889354E+02  0.30928765054E+02 -0.61721734263E+01  0.50528862343E+02  0.30000007578E+02 0.  0.
         12    1    1    2    0    0 -0.25660889354E+02 -0.30928765054E+02  0.61721734263E+01  0.40659137657E+02  0.00000000000E+00 0. -1.
         11    1    3    3    0    0  0.61020425898E+01  0.10846196779E+02  0.42047346868E+01  0.13136007856E+02  0.51100000000E-03 0. -1.
        -11    1    3    3    0    0  0.12847183981E+02  0.93499280272E+01  0.57442923395E+01  0.16895803772E+02  0.51100000000E-03 0.  1.
        -12    1    3    3    0    0  0.67116627838E+01  0.10732640248E+02 -0.16121200453E+02  0.20497050716E+02  0.00000000000E+00 0.  1.
</event>
<event>
 7    1  0.5479172E-013  0.5052885E+02  0.7816164E-02  0.1300439E+00
        -11   -1    0    0    0    0  0.00000000000E+00  0.00000000000E+00  0.45593999997E+02  0.45594000000E+02  0.51100000000E-03 0. -1.
         11   -1    0    0    0    0 -0.00000000000E+00 -0.00000000000E+00 -0.45593999997E+02  0.45594000000E+02  0.51100000000E-03 0.  1.
    9900012    2    1    2    0    0 -0.31187540598E+02 -0.10566367438E+02 -0.23850691640E+02  0.50528852184E+02  0.29999976699E+02 0.  0.
         12    1    1    2    0    0  0.31187540598E+02  0.10566367438E+02  0.23850691640E+02  0.40659147816E+02  0.00000000000E+00 0. -1.
         11    1    3    3    0    0 -0.27345464441E+01  0.19381309899E+01 -0.12007432530E+02  0.12466456282E+02  0.51100000000E-03 0. -1.
        -11    1    3    3    0    0 -0.48952403271E+01  0.48665182078E+01 -0.23423876564E+01  0.72892494484E+01  0.51100000000E-03 0.  1.
        -12    1    3    3    0    0 -0.23557753827E+02 -0.17371016635E+02 -0.95008714537E+01  0.30773146454E+02  0.00000000000E+00 0.  1.
</event>
<event>
 7    1  0.5479172E-013  0.5052886E+02  0.7816164E-02  0.1300439E+00
        -11   -1    0    0    0    0  0.00000000000E+00  0.00000000000E+00  0.45593999997E+02  0.45594000000E+02  0.51100000000E-03 0.  1.
         11   -1    0    0    0    0 -0.00000000000E+00 -0.00000000000E+00 -0.45593999997E+02  0.45594000000E+02  0.51100000000E-03 0. -1.
    9900012    2    1    2    0    0 -0.28944946721E+02  0.27144793403E+02  0.88609152790E+01  0.50528861185E+02  0.30000004057E+02 0.  0.
         12    1    1    2    0    0  0.28944946721E+02 -0.27144793403E+02 -0.88609152790E+01  0.40659138815E+02  0.00000000000E+00 0. -1.
         11    1    3    3    0    0 -0.49778854740E+01  0.12594235988E+02 -0.41437942170E+01  0.14162102764E+02  0.51100000000E-03 0. -1.
        -11    1    3    3    0    0 -0.15665855347E+02  0.13481908624E+02 -0.27424868319E+00  0.20670174080E+02  0.51100000000E-03 0.  1.
         12    1    3    3    0    0 -0.83012059002E+01  0.10686487908E+01  0.13278958179E+02  0.15696584340E+02  0.00000000000E+00 0. -1.
</event>
<event>
 7    1  0.5479172E-013  0.5052886E+02  0.7816164E-02  0.1300439E+00
        -11   -1    0    0    0    0  0.00000000000E+00  0.00000000000E+00  0.45593999997E+02  0.45594000000E+02  0.51100000000E-03 0.  1.
         11   -1    0    0    0    0 -0.00000000000E+00 -0.00000000000E+00 -0.45593999997E+02  0.45594000000E+02  0.51100000000E-03 0. -1.
    9900012    2    1    2    0    0  0.31749004818E+02  0.25376354557E+02  0.10986184498E+01  0.50528860314E+02  0.30000001410E+02 0.  0.
         12    1    1    2    0    0 -0.31749004818E+02 -0.25376354557E+02 -0.10986184498E+01  0.40659139686E+02  0.00000000000E+00 0. -1.
         11    1    3    3    0    0  0.18438284668E+01 -0.22433559902E+01  0.18739838393E+01  0.34560331602E+01  0.51100000000E-03 0. -1.
        -11    1    3    3    0    0  0.29648346764E+01  0.60346190129E+01  0.89629791774E+01  0.11204546724E+02  0.51100000000E-03 0.  1.
        -12    1    3    3    0    0  0.26940341674E+02  0.21585091535E+02 -0.97383445669E+01  0.35868280430E+02  0.00000000000E+00 0.  1.
</event>
<event>
 7    1  0.5479172E-013  0.5052887E+02  0.7816164E-02  0.1300439E+00
        -11   -1    0    0    0    0  0.00000000000E+00  0.00000000000E+00  0.45593999997E+02  0.45594000000E+02  0.51100000000E-03 0.  1.
         11   -1    0    0    0    0 -0.00000000000E+00 -0.00000000000E+00 -0.45593999997E+02  0.45594000000E+02  0.51100000000E-03 0. -1.
    9900012    2    1    2    0    0  0.36900271583E+02  0.41406738589E-01  0.17074342360E+02  0.50528869114E+02  0.30000028158E+02 0.  0.
         12    1    1    2    0    0 -0.36900271583E+02 -0.41406738589E-01 -0.17074342360E+02  0.40659130886E+02  0.00000000000E+00 0. -1.
         11    1    3    3    0    0  0.53599188083E+01  0.44878117677E+01  0.15645424184E+01  0.71635869042E+01  0.51100000000E-03 0. -1.
        -11    1    3    3    0    0  0.30324235051E+02  0.31473450112E+00  0.36711284862E+01  0.30547266226E+02  0.51100000000E-03 0.  1.
        -12    1    3    3    0    0  0.12161177235E+01 -0.47611395303E+01  0.11838671455E+02  0.12818015984E+02  0.00000000000E+00 0.  1.
</event>
<event>
 7    1  0.5479172E-013  0.5052887E+02  0.7816164E-02  0.1300439E+00
        -11   -1    0    0    0    0  0.00000000000E+00  0.00000000000E+00  0.45593999997E+02  0.45594000000E+02  0.51100000000E-03 0.  1.
         11   -1    0    0    0    0 -0.00000000000E+00 -0.00000000000E+00 -0.45593999997E+02  0.45594000000E+02  0.51100000000E-03 0. -1.
    9900012    2    1    2    0    0  0.16538449877E+02  0.35781725749E+02 -0.99655752830E+01  0.50528869259E+02  0.30000028599E+02 0.  0.
         12    1    1    2    0    0 -0.16538449877E+02 -0.35781725749E+02  0.99655752830E+01  0.40659130741E+02  0.00000000000E+00 0. -1.
         11    1    3    3    0    0 -0.43031048816E+01  0.21273776660E+00 -0.18630689452E+00  0.43123867521E+01  0.51100000000E-03 0. -1.
        -11    1    3    3    0    0 -0.16404705799E+01  0.13102088752E+02 -0.47750273999E+01  0.14041252092E+02  0.51100000000E-03 0.  1.
         12    1    3    3    0    0  0.22482025338E+02  0.22466899230E+02 -0.50042409885E+01  0.32175230414E+02  0.00000000000E+00 0. -1.
</event>
<event>
 7    1  0.5479172E-013  0.5052889E+02  0.7816164E-02  0.1300439E+00
        -11   -1    0    0    0    0  0.00000000000E+00  0.00000000000E+00  0.45593999997E+02  0.45594000000E+02  0.51100000000E-03 0.  1.
         11   -1    0    0    0    0 -0.00000000000E+00 -0.00000000000E+00 -0.45593999997E+02  0.45594000000E+02  0.51100000000E-03 0. -1.
    9900012    2    1    2    0    0 -0.34310803398E+02  0.13607277632E+02  0.17052091310E+02  0.50528892134E+02  0.30000098132E+02 0.  0.
         12    1    1    2    0    0  0.34310803398E+02 -0.13607277632E+02 -0.17052091310E+02  0.40659107866E+02  0.00000000000E+00 0. -1.
         11    1    3    3    0    0 -0.15125760321E+02 -0.18625223521E+01  0.74514145930E+01  0.16964114905E+02  0.51100000000E-03 0. -1.
        -11    1    3    3    0    0 -0.91844498808E+01  0.13744479127E+02  0.14776945007E+02  0.22172571572E+02  0.51100000000E-03 0.  1.
         12    1    3    3    0    0 -0.10000593196E+02  0.17253208564E+01 -0.51762682904E+01  0.11392205658E+02  0.00000000000E+00 0. -1.
</event>
<event>
 7    1  0.5479172E-013  0.5052886E+02  0.7816164E-02  0.1300439E+00
        -11   -1    0    0    0    0  0.00000000000E+00  0.00000000000E+00  0.45593999997E+02  0.45594000000E+02  0.51100000000E-03 0.  1.
         11   -1    0    0    0    0 -0.00000000000E+00 -0.00000000000E+00 -0.45593999997E+02  0.45594000000E+02  0.51100000000E-03 0. -1.
    9900012    2    1    2    0    0 -0.81023064296E+00  0.26343162144E+02  0.30960409234E+02  0.50528860740E+02  0.30000002704E+02 0.  0.
         12    1    1    2    0    0  0.81023064296E+00 -0.26343162144E+02 -0.30960409234E+02  0.40659139260E+02  0.00000000000E+00 0. -1.
         11    1    3    3    0    0  0.65074503332E+01  0.29618475874E+01  0.23638411730E+00  0.71536933595E+01  0.51100000000E-03 0. -1.
        -11    1    3    3    0    0 -0.39297350635E+01  0.19510819586E+02  0.32348619641E+02  0.37980891137E+02  0.51100000000E-03 0.  1.
         12    1    3    3    0    0 -0.33879459126E+01  0.38704949704E+01 -0.16245945241E+01  0.53942762435E+01  0.00000000000E+00 0. -1.
</event>
<event>
 7    1  0.5479172E-013  0.5052889E+02  0.7816164E-02  0.1300439E+00
        -11   -1    0    0    0    0  0.00000000000E+00  0.00000000000E+00  0.45593999997E+02  0.45594000000E+02  0.51100000000E-03 0. -1.
         11   -1    0    0    0    0 -0.00000000000E+00 -0.00000000000E+00 -0.45593999997E+02  0.45594000000E+02  0.51100000000E-03 0.  1.
    9900012    2    1    2    0    0 -0.19276754072E+02 -0.31883700962E+02  0.16278797207E+02  0.50528894340E+02  0.30000104835E+02 0.  0.
         12    1    1    2    0    0  0.19276754072E+02  0.31883700962E+02 -0.16278797207E+02  0.40659105660E+02  0.00000000000E+00 0. -1.
         11    1    3    3    0    0 -0.24629768429E+01  0.23155855123E+00  0.36982396592E+01  0.44493652502E+01  0.51100000000E-03 0. -1.
        -11    1    3    3    0    0 -0.24539888279E+01  0.56649339409E+00  0.99740940229E+01  0.10287153531E+02  0.51100000000E-03 0.  1.
        -12    1    3    3    0    0 -0.14359788401E+02 -0.32681752907E+02  0.26064635252E+01  0.35792375559E+02  0.00000000000E+00 0.  1.
</event>
<event>
 7    1  0.5479172E-013  0.5052886E+02  0.7816164E-02  0.1300439E+00
        -11   -1    0    0    0    0  0.00000000000E+00  0.00000000000E+00  0.45593999997E+02  0.45594000000E+02  0.51100000000E-03 0.  1.
         11   -1    0    0    0    0 -0.00000000000E+00 -0.00000000000E+00 -0.45593999997E+02  0.45594000000E+02  0.51100000000E-03 0. -1.
    9900012    2    1    2    0    0 -0.25684901377E+02  0.28864616911E+02  0.12660395119E+02  0.50528857452E+02  0.29999992712E+02 0.  0.
         12    1    1    2    0    0  0.25684901377E+02 -0.28864616911E+02 -0.12660395119E+02  0.40659142548E+02  0.00000000000E+00 0. -1.
         11    1    3    3    0    0 -0.55451733963E+00  0.12657942535E+02  0.18572040189E+01  0.12805475615E+02  0.51100000000E-03 0. -1.
        -11    1    3    3    0    0 -0.55129885100E+01  0.14058180195E+02  0.97212091405E+01  0.17959047306E+02  0.51100000000E-03 0.  1.
         12    1    3    3    0    0 -0.19617395527E+02  0.21484941803E+01  0.10819819595E+01  0.19764334532E+02  0.00000000000E+00 0. -1.
</event>
<event>
 7    1  0.5479172E-013  0.5052887E+02  0.7816164E-02  0.1300439E+00
        -11   -1    0    0    0    0  0.00000000000E+00  0.00000000000E+00  0.45593999997E+02  0.45594000000E+02  0.51100000000E-03 0.  1.
         11   -1    0    0    0    0 -0.00000000000E+00 -0.00000000000E+00 -0.45593999997E+02  0.45594000000E+02  0.51100000000E-03 0. -1.
    9900012    2    1    2    0    0 -0.57251873907E+01  0.31266188422E+01  0.40132422168E+02  0.50528870335E+02  0.30000031871E+02 0.  0.
         12    1    1    2    0    0  0.57251873907E+01 -0.31266188422E+01 -0.40132422168E+02  0.40659129665E+02  0.00000000000E+00 0. -1.
         11    1    3    3    0    0  0.44310880808E+01 -0.99250627300E+00 -0.60933630560E+00  0.45815828352E+01  0.51100000000E-03 0. -1.
        -11    1    3    3    0    0  0.19363564681E+01  0.10720604688E+01 -0.96609820458E+00  0.24149815781E+01  0.51100000000E-03 0.  1.
        -12    1    3    3    0    0 -0.12092631940E+02  0.30470646464E+01  0.41707856678E+02  0.43532305922E+02  0.00000000000E+00 0.  1.
</event>
<event>
 7    1  0.5479172E-013  0.5052887E+02  0.7816164E-02  0.1300439E+00
        -11   -1    0    0    0    0  0.00000000000E+00  0.00000000000E+00  0.45593999997E+02  0.45594000000E+02  0.51100000000E-03 0. -1.
         11   -1    0    0    0    0 -0.00000000000E+00 -0.00000000000E+00 -0.45593999997E+02  0.45594000000E+02  0.51100000000E-03 0.  1.
    9900012    2    1    2    0    0 -0.29065217582E+02  0.18765649057E+02 -0.21359505997E+02  0.50528868749E+02  0.30000027049E+02 0.  0.
         12    1    1    2    0    0  0.29065217582E+02 -0.18765649057E+02  0.21359505997E+02  0.40659131251E+02  0.00000000000E+00 0. -1.
         11    1    3    3    0    0  0.13396882949E+01  0.81751483095E+01 -0.23397020066E+01  0.86082530371E+01  0.51100000000E-03 0. -1.
        -11    1    3    3    0    0 -0.12734685483E+02 -0.57836750222E+00  0.12422887371E+01  0.12808200689E+02  0.51100000000E-03 0.  1.
        -12    1    3    3    0    0 -0.17670220394E+02  0.11168868250E+02 -0.20262092728E+02  0.29112415023E+02  0.00000000000E+00 0.  1.
</event>
<event>
 7    1  0.5479172E-013  0.5052886E+02  0.7816164E-02  0.1300439E+00
        -11   -1    0    0    0    0  0.00000000000E+00  0.00000000000E+00  0.45593999997E+02  0.45594000000E+02  0.51100000000E-03 0. -1.
         11   -1    0    0    0    0 -0.00000000000E+00 -0.00000000000E+00 -0.45593999997E+02  0.45594000000E+02  0.51100000000E-03 0.  1.
    9900012    2    1    2    0    0  0.31027682579E+02  0.39505200509E+01 -0.25977720981E+02  0.50528859795E+02  0.29999999832E+02 0.  0.
         12    1    1    2    0    0 -0.31027682579E+02 -0.39505200509E+01  0.25977720981E+02  0.40659140205E+02  0.00000000000E+00 0. -1.
         11    1    3    3    0    0  0.21570194991E+02 -0.68837389235E+01 -0.16405819830E+02  0.27960867262E+02  0.51100000000E-03 0. -1.
        -11    1    3    3    0    0  0.98715309822E+01  0.20278856487E+01 -0.76502907055E+00  0.10106666804E+02  0.51100000000E-03 0.  1.
        -12    1    3    3    0    0 -0.41404339430E+00  0.88063733256E+01 -0.88068720805E+01  0.12461325729E+02  0.00000000000E+00 0.  1.
</event>
<event>
 7    1  0.5479172E-013  0.5052877E+02  0.7816164E-02  0.1300439E+00
        -11   -1    0    0    0    0  0.00000000000E+00  0.00000000000E+00  0.45593999997E+02  0.45594000000E+02  0.51100000000E-03 0. -1.
         11   -1    0    0    0    0 -0.00000000000E+00 -0.00000000000E+00 -0.45593999997E+02  0.45594000000E+02  0.51100000000E-03 0.  1.
    9900012    2    1    2    0    0  0.24937298165E+02  0.14650500051E+02 -0.28577387492E+02  0.50528768977E+02  0.29999723781E+02 0.  0.
         12    1    1    2    0    0 -0.24937298165E+02 -0.14650500051E+02  0.28577387492E+02  0.40659231023E+02  0.00000000000E+00 0. -1.
         11    1    3    3    0    0  0.18116100174E+01  0.17578941022E+01  0.18427634878E+01  0.31253639888E+01  0.51100000000E-03 0. -1.
        -11    1    3    3    0    0  0.15487336342E+02  0.11301251536E+02 -0.36464032500E+01  0.19515945537E+02  0.51100000000E-03 0.  1.
        -12    1    3    3    0    0  0.76383518052E+01  0.15913544130E+01 -0.26773747730E+02  0.27887459451E+02  0.00000000000E+00 0.  1.
</event>
<event>
 7    1  0.5479172E-013  0.5052882E+02  0.7816164E-02  0.1300439E+00
        -11   -1    0    0    0    0  0.00000000000E+00  0.00000000000E+00  0.45593999997E+02  0.45594000000E+02  0.51100000000E-03 0.  1.
         11   -1    0    0    0    0 -0.00000000000E+00 -0.00000000000E+00 -0.45593999997E+02  0.45594000000E+02  0.51100000000E-03 0. -1.
    9900012    2    1    2    0    0  0.38626244753E+02 -0.10997019484E+02  0.63440902830E+01  0.50528822650E+02  0.29999886926E+02 0.  0.
         12    1    1    2    0    0 -0.38626244753E+02  0.10997019484E+02 -0.63440902830E+01  0.40659177350E+02  0.00000000000E+00 0. -1.
         11    1    3    3    0    0  0.20603023560E+01 -0.28463778869E+01 -0.81976438729E-01  0.35147451217E+01  0.51100000000E-03 0. -1.
        -11    1    3    3    0    0  0.16926563715E+02 -0.13174179631E+02  0.13729405534E+02  0.25466922561E+02  0.51100000000E-03 0.  1.
         12    1    3    3    0    0  0.19639378682E+02  0.50235380337E+01 -0.73033388118E+01  0.21547154967E+02  0.00000000000E+00 0. -1.
</event>
<event>
 7    1  0.5479172E-013  0.5052886E+02  0.7816164E-02  0.1300439E+00
        -11   -1    0    0    0    0  0.00000000000E+00  0.00000000000E+00  0.45593999997E+02  0.45594000000E+02  0.51100000000E-03 0.  1.
         11   -1    0    0    0    0 -0.00000000000E+00 -0.00000000000E+00 -0.45593999997E+02  0.45594000000E+02  0.51100000000E-03 0. -1.
    9900012    2    1    2    0    0 -0.31463501658E+02  0.25410045371E+02  0.41884975549E+01  0.50528857682E+02  0.29999993409E+02 0.  0.
         12    1    1    2    0    0  0.31463501658E+02 -0.25410045371E+02 -0.41884975549E+01  0.40659142318E+02  0.00000000000E+00 0. -1.
         11    1    3    3    0    0 -0.14586638954E+02  0.14883899136E+02 -0.11207254251E+01  0.20869990781E+02  0.51100000000E-03 0. -1.
        -11    1    3    3    0    0 -0.10853206066E+02  0.16987182911E+02  0.21289856820E+01  0.20270398256E+02  0.51100000000E-03 0.  1.
        -12    1    3    3    0    0 -0.60236566373E+01 -0.64610366762E+01  0.31802372979E+01  0.93884686443E+01  0.00000000000E+00 0.  1.
</event>
<event>
 7    1  0.5479172E-013  0.5052886E+02  0.7816164E-02  0.1300439E+00
        -11   -1    0    0    0    0  0.00000000000E+00  0.00000000000E+00  0.45593999997E+02  0.45594000000E+02  0.51100000000E-03 0.  1.
         11   -1    0    0    0    0 -0.00000000000E+00 -0.00000000000E+00 -0.45593999997E+02  0.45594000000E+02  0.51100000000E-03 0. -1.
    9900012    2    1    2    0    0  0.30781187123E+02 -0.26450543341E+02 -0.24602701296E+01  0.50528860156E+02  0.30000000930E+02 0.  0.
         12    1    1    2    0    0 -0.30781187123E+02  0.26450543341E+02  0.24602701296E+01  0.40659139844E+02  0.00000000000E+00 0. -1.
         11    1    3    3    0    0  0.13397814470E+02  0.19187155229E+01  0.12287794023E+01  0.13590172953E+02  0.51100000000E-03 0. -1.
        -11    1    3    3    0    0  0.99455446041E+01 -0.35691514902E+01 -0.32078370644E+01  0.11042776767E+02  0.51100000000E-03 0.  1.
         12    1    3    3    0    0  0.74378280496E+01 -0.24800107374E+02 -0.48121246752E+00  0.25895910436E+02  0.00000000000E+00 0. -1.
</event>
<event>
 7    1  0.5501894E-013  0.5052886E+02  0.7816164E-02  0.1300439E+00
        -11   -1    0    0    0    0  0.00000000000E+00  0.00000000000E+00  0.45593999997E+02  0.45594000000E+02  0.51100000000E-03 0. -1.
         11   -1    0    0    0    0 -0.00000000000E+00 -0.00000000000E+00 -0.45593999997E+02  0.45594000000E+02  0.51100000000E-03 0.  1.
    9900012    2    1    2    0    0  0.19380029327E+02  0.24838945542E+01 -0.35656838769E+02  0.50528863021E+02  0.30000009639E+02 0.  0.
         12    1    1    2    0    0 -0.19380029327E+02 -0.24838945542E+01  0.35656838769E+02  0.40659136979E+02  0.00000000000E+00 0. -1.
         11    1    3    3    0    0  0.23495321892E+01  0.50728685070E+01 -0.22828900299E+01  0.60386988290E+01  0.51100000000E-03 0. -1.
        -11    1    3    3    0    0 -0.44829930618E+01 -0.13100092710E+01  0.10801729104E+00  0.46717254927E+01  0.51100000000E-03 0.  1.
        -12    1    3    3    0    0  0.21513490200E+02 -0.12789646818E+01 -0.33481966030E+02  0.39818438700E+02  0.00000000000E+00 0.  1.
</event>
<event>
 7    1  0.5479172E-013  0.5052887E+02  0.7816164E-02  0.1300439E+00
        -11   -1    0    0    0    0  0.00000000000E+00  0.00000000000E+00  0.45593999997E+02  0.45594000000E+02  0.51100000000E-03 0.  1.
         11   -1    0    0    0    0 -0.00000000000E+00 -0.00000000000E+00 -0.45593999997E+02  0.45594000000E+02  0.51100000000E-03 0. -1.
    9900012    2    1    2    0    0 -0.77773288958E+00  0.44471575047E+01  0.40407709723E+02  0.50528867159E+02  0.30000022217E+02 0.  0.
         12    1    1    2    0    0  0.77773288958E+00 -0.44471575047E+01 -0.40407709723E+02  0.40659132841E+02  0.00000000000E+00 0. -1.
         11    1    3    3    0    0  0.34732670559E+01  0.25076280350E+01  0.26985935913E+02  0.27323845260E+02  0.51100000000E-03 0. -1.
        -11    1    3    3    0    0  0.48422114233E+01  0.61919118955E+01  0.97321175226E+01  0.12510031820E+02  0.51100000000E-03 0.  1.
         12    1    3    3    0    0 -0.90932113688E+01 -0.42523824258E+01  0.36896562870E+01  0.10694990080E+02  0.00000000000E+00 0. -1.
</event>
<event>
 7    1  0.5479172E-013  0.5052886E+02  0.7816164E-02  0.1300439E+00
        -11   -1    0    0    0    0  0.00000000000E+00  0.00000000000E+00  0.45593999997E+02  0.45594000000E+02  0.51100000000E-03 0. -1.
         11   -1    0    0    0    0 -0.00000000000E+00 -0.00000000000E+00 -0.45593999997E+02  0.45594000000E+02  0.51100000000E-03 0.  1.
    9900012    2    1    2    0    0 -0.34679728629E+02 -0.13366336601E+02 -0.16487061126E+02  0.50528859373E+02  0.29999998551E+02 0.  0.
         12    1    1    2    0    0  0.34679728629E+02  0.13366336601E+02  0.16487061126E+02  0.40659140627E+02  0.00000000000E+00 0. -1.
         11    1    3    3    0    0  0.53410843804E+00  0.19731752972E+01 -0.51951381037E+01  0.55828445039E+01  0.51100000000E-03 0. -1.
        -11    1    3    3    0    0 -0.53678800484E+01 -0.72645513605E+01  0.46498120555E+01  0.10159163110E+02  0.51100000000E-03 0.  1.
        -12    1    3    3    0    0 -0.29845957019E+02 -0.80749605380E+01 -0.15941735077E+02  0.34786851760E+02  0.00000000000E+00 0.  1.
</event>
<event>
 7    1  0.5479172E-013  0.5052885E+02  0.7816164E-02  0.1300439E+00
        -11   -1    0    0    0    0  0.00000000000E+00  0.00000000000E+00  0.45593999997E+02  0.45594000000E+02  0.51100000000E-03 0.  1.
         11   -1    0    0    0    0 -0.00000000000E+00 -0.00000000000E+00 -0.45593999997E+02  0.45594000000E+02  0.51100000000E-03 0. -1.
    9900012    2    1    2    0    0  0.29408501946E+02  0.15025607995E+02  0.23717873418E+02  0.50528850946E+02  0.29999972936E+02 0.  0.
         12    1    1    2    0    0 -0.29408501946E+02 -0.15025607995E+02 -0.23717873418E+02  0.40659149054E+02  0.00000000000E+00 0. -1.
         11    1    3    3    0    0  0.32869689472E+01  0.37694356599E+00  0.55784929273E+00  0.33552119764E+01  0.51100000000E-03 0. -1.
        -11    1    3    3    0    0  0.29398733065E+02  0.15040369431E+02  0.26602111021E+02  0.42404840873E+02  0.51100000000E-03 0.  1.
         12    1    3    3    0    0 -0.32772000668E+01 -0.39170500187E+00 -0.34420868959E+01  0.47687980965E+01  0.00000000000E+00 0. -1.
</event>
<event>
 7    1  0.5479172E-013  0.5052886E+02  0.7816164E-02  0.1300439E+00
        -11   -1    0    0    0    0  0.00000000000E+00  0.00000000000E+00  0.45593999997E+02  0.45594000000E+02  0.51100000000E-03 0.  1.
         11   -1    0    0    0    0 -0.00000000000E+00 -0.00000000000E+00 -0.45593999997E+02  0.45594000000E+02  0.51100000000E-03 0. -1.
    9900012    2    1    2    0    0  0.14939819782E+02  0.10152593020E+02  0.36426534170E+02  0.50528858939E+02  0.29999997232E+02 0.  0.
         12    1    1    2    0    0 -0.14939819782E+02 -0.10152593020E+02 -0.36426534170E+02  0.40659141061E+02  0.00000000000E+00 0. -1.
         11    1    3    3    0    0  0.16468641701E+02  0.68511101335E+01  0.11677887731E+02  0.21319637231E+02  0.51100000000E-03 0. -1.
        -11    1    3    3    0    0  0.56103484056E+01  0.48459327263E+01  0.78383911493E+01  0.10788857645E+02  0.51100000000E-03 0.  1.
        -12    1    3    3    0    0 -0.71391703252E+01 -0.15444498395E+01  0.16910255290E+02  0.18420364063E+02  0.00000000000E+00 0.  1.
</event>
<event>
 7    1  0.5479172E-013  0.5052886E+02  0.7816164E-02  0.1300439E+00
        -11   -1    0    0    0    0  0.00000000000E+00  0.00000000000E+00  0.45593999997E+02  0.45594000000E+02  0.51100000000E-03 0.  1.
         11   -1    0    0    0    0 -0.00000000000E+00 -0.00000000000E+00 -0.45593999997E+02  0.45594000000E+02  0.51100000000E-03 0. -1.
    9900012    2    1    2    0    0  0.26588475763E+02 -0.36303691870E+00  0.30758522609E+02  0.50528861392E+02  0.30000004688E+02 0.  0.
         12    1    1    2    0    0 -0.26588475763E+02  0.36303691870E+00 -0.30758522609E+02  0.40659138608E+02  0.00000000000E+00 0. -1.
         11    1    3    3    0    0 -0.13686081646E+01 -0.45145603884E+01  0.13122365905E+02  0.13944562776E+02  0.51100000000E-03 0. -1.
        -11    1    3    3    0    0  0.38012778606E+01  0.67128751490E+01  0.34161594173E+01  0.84369752616E+01  0.51100000000E-03 0.  1.
         12    1    3    3    0    0  0.24155806068E+02 -0.25613516793E+01  0.14219997287E+02  0.28147323355E+02  0.00000000000E+00 0. -1.
</event>
<event>
 7    1  0.5479172E-013  0.5052886E+02  0.7816164E-02  0.1300439E+00
        -11   -1    0    0    0    0  0.00000000000E+00  0.00000000000E+00  0.45593999997E+02  0.45594000000E+02  0.51100000000E-03 0.  1.
         11   -1    0    0    0    0 -0.00000000000E+00 -0.00000000000E+00 -0.45593999997E+02  0.45594000000E+02  0.51100000000E-03 0. -1.
    9900012    2    1    2    0    0 -0.10431111203E+02 -0.39298302177E+02  0.37842685595E-01  0.50528855063E+02  0.29999985449E+02 0.  0.
         12    1    1    2    0    0  0.10431111203E+02  0.39298302177E+02 -0.37842685595E-01  0.40659144937E+02  0.00000000000E+00 0. -1.
         11    1    3    3    0    0 -0.30956432402E+01 -0.25081992720E+02  0.10853104367E+01  0.25295597737E+02  0.51100000000E-03 0. -1.
        -11    1    3    3    0    0  0.31444136214E+01 -0.14330743027E+02  0.24251228942E+00  0.14673661615E+02  0.51100000000E-03 0.  1.
         12    1    3    3    0    0 -0.10479881584E+02  0.11443356995E+00 -0.12899800406E+01  0.10559595710E+02  0.00000000000E+00 0. -1.
</event>
<event>
 7    1  0.5479172E-013  0.5052886E+02  0.7816164E-02  0.1300439E+00
        -11   -1    0    0    0    0  0.00000000000E+00  0.00000000000E+00  0.45593999997E+02  0.45594000000E+02  0.51100000000E-03 0.  1.
         11   -1    0    0    0    0 -0.00000000000E+00 -0.00000000000E+00 -0.45593999997E+02  0.45594000000E+02  0.51100000000E-03 0. -1.
    9900012    2    1    2    0    0  0.29283630066E+02 -0.52089554417E+00  0.28202183951E+02  0.50528862016E+02  0.30000006583E+02 0.  0.
         12    1    1    2    0    0 -0.29283630066E+02  0.52089554417E+00 -0.28202183951E+02  0.40659137984E+02  0.00000000000E+00 0. -1.
         11    1    3    3    0    0  0.13305349563E+01  0.70852771582E+00  0.98280982681E+01  0.99430302536E+01  0.51100000000E-03 0. -1.
        -11    1    3    3    0    0  0.81821829333E+01 -0.96496474689E+01  0.13595755936E+02  0.18571709495E+02  0.51100000000E-03 0.  1.
         12    1    3    3    0    0  0.19770912177E+02  0.84202242089E+01  0.47783297466E+01  0.22014122267E+02  0.00000000000E+00 0. -1.
</event>
<event>
 7    1  0.5479172E-013  0.5052886E+02  0.7816164E-02  0.1300439E+00
        -11   -1    0    0    0    0  0.00000000000E+00  0.00000000000E+00  0.45593999997E+02  0.45594000000E+02  0.51100000000E-03 0.  1.
         11   -1    0    0    0    0 -0.00000000000E+00 -0.00000000000E+00 -0.45593999997E+02  0.45594000000E+02  0.51100000000E-03 0. -1.
    9900012    2    1    2    0    0 -0.12195681036E+02 -0.35486600020E+02  0.15656699257E+02  0.50528860209E+02  0.30000001091E+02 0.  0.
         12    1    1    2    0    0  0.12195681036E+02  0.35486600020E+02 -0.15656699257E+02  0.40659139791E+02  0.00000000000E+00 0. -1.
         11    1    3    3    0    0 -0.15053769004E+02 -0.29940492553E+02  0.17480045518E+02  0.37796839115E+02  0.51100000000E-03 0. -1.
        -11    1    3    3    0    0 -0.34274569677E+01 -0.60678723784E+00  0.18415731433E+01  0.39378984142E+01  0.51100000000E-03 0.  1.
         12    1    3    3    0    0  0.62855449356E+01 -0.49393202293E+01 -0.36649194041E+01  0.87941226796E+01  0.00000000000E+00 0. -1.
</event>
<event>
 7    1  0.5479172E-013  0.5052886E+02  0.7816164E-02  0.1300439E+00
        -11   -1    0    0    0    0  0.00000000000E+00  0.00000000000E+00  0.45593999997E+02  0.45594000000E+02  0.51100000000E-03 0.  1.
         11   -1    0    0    0    0 -0.00000000000E+00 -0.00000000000E+00 -0.45593999997E+02  0.45594000000E+02  0.51100000000E-03 0. -1.
    9900012    2    1    2    0    0  0.31545761888E+02  0.16434038538E+02  0.19696512805E+02  0.50528864096E+02  0.30000012906E+02 0.  0.
         12    1    1    2    0    0 -0.31545761888E+02 -0.16434038538E+02 -0.19696512805E+02  0.40659135904E+02  0.00000000000E+00 0. -1.
         11    1    3    3    0    0  0.35697230655E+01  0.20768291373E+00 -0.30673710641E+01  0.47111379159E+01  0.51100000000E-03 0. -1.
        -11    1    3    3    0    0  0.23901784885E+01 -0.55799871512E+01  0.45226299153E+01  0.75699003578E+01  0.51100000000E-03 0.  1.
        -12    1    3    3    0    0  0.25585860334E+02  0.21806342776E+02  0.18241253954E+02  0.38247825822E+02  0.00000000000E+00 0.  1.
</event>
<event>
 7    1  0.5479172E-013  0.5052887E+02  0.7816164E-02  0.1300439E+00
        -11   -1    0    0    0    0  0.00000000000E+00  0.00000000000E+00  0.45593999997E+02  0.45594000000E+02  0.51100000000E-03 0. -1.
         11   -1    0    0    0    0 -0.00000000000E+00 -0.00000000000E+00 -0.45593999997E+02  0.45594000000E+02  0.51100000000E-03 0.  1.
    9900012    2    1    2    0    0 -0.16341552692E+02 -0.32823011475E+02 -0.17571807641E+02  0.50528870023E+02  0.30000030923E+02 0.  0.
         12    1    1    2    0    0  0.16341552692E+02  0.32823011475E+02  0.17571807641E+02  0.40659129977E+02  0.00000000000E+00 0. -1.
         11    1    3    3    0    0 -0.29811471276E+01 -0.45859188022E+01 -0.51247002332E+01  0.74953613787E+01  0.51100000000E-03 0. -1.
        -11    1    3    3    0    0  0.63253214857E+01 -0.16790100211E+02 -0.87551777672E+01  0.19964225379E+02  0.51100000000E-03 0.  1.
         12    1    3    3    0    0 -0.19685727050E+02 -0.11446992462E+02 -0.36919296409E+01  0.23069283266E+02  0.00000000000E+00 0. -1.
</event>
<event>
 7    1  0.5479172E-013  0.5052886E+02  0.7816164E-02  0.1300439E+00
        -11   -1    0    0    0    0  0.00000000000E+00  0.00000000000E+00  0.45593999997E+02  0.45594000000E+02  0.51100000000E-03 0.  1.
         11   -1    0    0    0    0 -0.00000000000E+00 -0.00000000000E+00 -0.45593999997E+02  0.45594000000E+02  0.51100000000E-03 0. -1.
    9900012    2    1    2    0    0  0.33120289249E+02  0.20736298925E+02 -0.11234665561E+02  0.50528863717E+02  0.30000011754E+02 0.  0.
         12    1    1    2    0    0 -0.33120289249E+02 -0.20736298925E+02  0.11234665561E+02  0.40659136283E+02  0.00000000000E+00 0. -1.
         11    1    3    3    0    0 -0.21778222734E+01  0.52265930224E+01  0.12685218281E+01  0.58025281012E+01  0.51100000000E-03 0. -1.
        -11    1    3    3    0    0  0.17577872765E+02  0.39575717426E+01  0.33054119651E+01  0.18318562541E+02  0.51100000000E-03 0.  1.
         12    1    3    3    0    0  0.17720238757E+02  0.11552134160E+02 -0.15808599354E+02  0.26407773075E+02  0.00000000000E+00 0. -1.
</event>
<event>
 7    1  0.5479172E-013  0.5052886E+02  0.7816164E-02  0.1300439E+00
        -11   -1    0    0    0    0  0.00000000000E+00  0.00000000000E+00  0.45593999997E+02  0.45594000000E+02  0.51100000000E-03 0.  1.
         11   -1    0    0    0    0 -0.00000000000E+00 -0.00000000000E+00 -0.45593999997E+02  0.45594000000E+02  0.51100000000E-03 0. -1.
    9900012    2    1    2    0    0  0.40364443050E+01  0.39381066271E+02  0.92738759718E+01  0.50528855410E+02  0.29999986503E+02 0.  0.
         12    1    1    2    0    0 -0.40364443050E+01 -0.39381066271E+02 -0.92738759718E+01  0.40659144590E+02  0.00000000000E+00 0. -1.
         11    1    3    3    0    0 -0.15349105519E+01  0.75200491549E+01 -0.60939986354E+01  0.98001994533E+01  0.51100000000E-03 0. -1.
        -11    1    3    3    0    0  0.10641951432E+02  0.23977946124E+02  0.49168694107E+01  0.26690234838E+02  0.51100000000E-03 0.  1.
         12    1    3    3    0    0 -0.50705965752E+01  0.78830709919E+01  0.10451005196E+02  0.14038421119E+02  0.00000000000E+00 0. -1.
</event>
<event>
 7    1  0.5479172E-013  0.5052886E+02  0.7816164E-02  0.1300439E+00
        -11   -1    0    0    0    0  0.00000000000E+00  0.00000000000E+00  0.45593999997E+02  0.45594000000E+02  0.51100000000E-03 0. -1.
         11   -1    0    0    0    0 -0.00000000000E+00 -0.00000000000E+00 -0.45593999997E+02  0.45594000000E+02  0.51100000000E-03 0.  1.
    9900012    2    1    2    0    0  0.21389689365E+02 -0.19785418869E+02 -0.28358141102E+02  0.50528858621E+02  0.29999996265E+02 0.  0.
         12    1    1    2    0    0 -0.21389689365E+02  0.19785418869E+02  0.28358141102E+02  0.40659141379E+02  0.00000000000E+00 0. -1.
         11    1    3    3    0    0 -0.66515484213E+00 -0.13069238341E+02 -0.62640111883E+01  0.14508110084E+02  0.51100000000E-03 0. -1.
        -11    1    3    3    0    0  0.28339498725E+01 -0.81347687654E+00 -0.14063960840E+02  0.14369690716E+02  0.51100000000E-03 0.  1.
        -12    1    3    3    0    0  0.19220894334E+02 -0.59027036505E+01 -0.80301690731E+01  0.21651057820E+02  0.00000000000E+00 0.  1.
</event>
<event>
 7    1  0.5479172E-013  0.5052886E+02  0.7816164E-02  0.1300439E+00
        -11   -1    0    0    0    0  0.00000000000E+00  0.00000000000E+00  0.45593999997E+02  0.45594000000E+02  0.51100000000E-03 0.  1.
         11   -1    0    0    0    0 -0.00000000000E+00 -0.00000000000E+00 -0.45593999997E+02  0.45594000000E+02  0.51100000000E-03 0. -1.
    9900012    2    1    2    0    0  0.18363448163E+02  0.35028685292E+02 -0.94308298943E+01  0.50528861123E+02  0.30000003869E+02 0.  0.
         12    1    1    2    0    0 -0.18363448163E+02 -0.35028685292E+02  0.94308298943E+01  0.40659138877E+02  0.00000000000E+00 0. -1.
         11    1    3    3    0    0  0.54070254996E+01  0.28319387687E+01 -0.55073930533E+01  0.82211422837E+01  0.51100000000E-03 0. -1.
        -11    1    3    3    0    0  0.12656657423E+02  0.12718010735E+02 -0.11603202275E+02  0.21367570697E+02  0.51100000000E-03 0.  1.
        -12    1    3    3    0    0  0.29976524050E+00  0.19478735788E+02  0.76797654341E+01  0.20940148143E+02  0.00000000000E+00 0.  1.
</event>
<event>
 7    1  0.5479172E-013  0.5052886E+02  0.7816164E-02  0.1300439E+00
        -11   -1    0    0    0    0  0.00000000000E+00  0.00000000000E+00  0.45593999997E+02  0.45594000000E+02  0.51100000000E-03 0.  1.
         11   -1    0    0    0    0 -0.00000000000E+00 -0.00000000000E+00 -0.45593999997E+02  0.45594000000E+02  0.51100000000E-03 0. -1.
    9900012    2    1    2    0    0  0.79827190855E+01  0.11271888679E+01  0.39851867213E+02  0.50528859833E+02  0.29999999948E+02 0.  0.
         12    1    1    2    0    0 -0.79827190855E+01 -0.11271888679E+01 -0.39851867213E+02  0.40659140167E+02  0.00000000000E+00 0. -1.
         11    1    3    3    0    0  0.32395673902E+01  0.42368258599E+01 -0.17677789582E+00  0.53363602697E+01  0.51100000000E-03 0. -1.
        -11    1    3    3    0    0 -0.48236518568E+01 -0.82491638594E+01  0.13618611239E+02  0.16636793380E+02  0.51100000000E-03 0.  1.
        -12    1    3    3    0    0  0.95668035521E+01  0.51395268674E+01  0.26410033870E+02  0.28555706184E+02  0.00000000000E+00 0.  1.
</event>
<event>
 7    1  0.5479172E-013  0.5052886E+02  0.7816164E-02  0.1300439E+00
        -11   -1    0    0    0    0  0.00000000000E+00  0.00000000000E+00  0.45593999997E+02  0.45594000000E+02  0.51100000000E-03 0. -1.
         11   -1    0    0    0    0 -0.00000000000E+00 -0.00000000000E+00 -0.45593999997E+02  0.45594000000E+02  0.51100000000E-03 0.  1.
    9900012    2    1    2    0    0 -0.21786384480E+02  0.31687183948E+02  0.13207631328E+02  0.50528859569E+02  0.29999999147E+02 0.  0.
         12    1    1    2    0    0  0.21786384480E+02 -0.31687183948E+02 -0.13207631328E+02  0.40659140431E+02  0.00000000000E+00 0. -1.
         11    1    3    3    0    0 -0.51678037018E+01  0.25188855948E+02  0.96579054475E+01  0.27467431569E+02  0.51100000000E-03 0. -1.
        -11    1    3    3    0    0 -0.12334445471E+02  0.51509329474E+01  0.89132062769E+01  0.16065985862E+02  0.51100000000E-03 0.  1.
        -12    1    3    3    0    0 -0.42841353067E+01  0.13473950525E+01 -0.53634803968E+01  0.69954421390E+01  0.00000000000E+00 0.  1.
</event>
<event>
 7    1  0.5479172E-013  0.5052886E+02  0.7816164E-02  0.1300439E+00
        -11   -1    0    0    0    0  0.00000000000E+00  0.00000000000E+00  0.45593999997E+02  0.45594000000E+02  0.51100000000E-03 0.  1.
         11   -1    0    0    0    0 -0.00000000000E+00 -0.00000000000E+00 -0.45593999997E+02  0.45594000000E+02  0.51100000000E-03 0. -1.
    9900012    2    1    2    0    0  0.39705483371E+02  0.43992143352E+01  0.75688455941E+01  0.50528856870E+02  0.29999990941E+02 0.  0.
         12    1    1    2    0    0 -0.39705483371E+02 -0.43992143352E+01 -0.75688455941E+01  0.40659143130E+02  0.00000000000E+00 0. -1.
         11    1    3    3    0    0  0.22736485074E+01  0.34735359502E+01 -0.28642709574E+01  0.50437067630E+01  0.51100000000E-03 0. -1.
        -11    1    3    3    0    0  0.96578153294E+01  0.25672313316E+01 -0.74028690889E+01  0.12436500499E+02  0.51100000000E-03 0.  1.
        -12    1    3    3    0    0  0.27774019534E+02 -0.16415529466E+01  0.17835985640E+02  0.33048649608E+02  0.00000000000E+00 0.  1.
</event>
<event>
 7    1  0.5479172E-013  0.5052887E+02  0.7816164E-02  0.1300439E+00
        -11   -1    0    0    0    0  0.00000000000E+00  0.00000000000E+00  0.45593999997E+02  0.45594000000E+02  0.51100000000E-03 0.  1.
         11   -1    0    0    0    0 -0.00000000000E+00 -0.00000000000E+00 -0.45593999997E+02  0.45594000000E+02  0.51100000000E-03 0. -1.
    9900012    2    1    2    0    0 -0.36919884595E+02  0.12606351389E+02 -0.11452821516E+02  0.50528867022E+02  0.30000021801E+02 0.  0.
         12    1    1    2    0    0  0.36919884595E+02 -0.12606351389E+02  0.11452821516E+02  0.40659132978E+02  0.00000000000E+00 0. -1.
         11    1    3    3    0    0 -0.14052904424E+02  0.18888007540E+02 -0.49797337771E+01  0.24063222983E+02  0.51100000000E-03 0. -1.
        -11    1    3    3    0    0 -0.13259996514E+02 -0.63382767871E+00  0.56143251194E+00  0.13287003116E+02  0.51100000000E-03 0.  1.
        -12    1    3    3    0    0 -0.96069836567E+01 -0.56478284724E+01 -0.70345202511E+01  0.13178640924E+02  0.00000000000E+00 0.  1.
</event>
<event>
 7    1  0.5479172E-013  0.5052886E+02  0.7816164E-02  0.1300439E+00
        -11   -1    0    0    0    0  0.00000000000E+00  0.00000000000E+00  0.45593999997E+02  0.45594000000E+02  0.51100000000E-03 0. -1.
         11   -1    0    0    0    0 -0.00000000000E+00 -0.00000000000E+00 -0.45593999997E+02  0.45594000000E+02  0.51100000000E-03 0.  1.
    9900012    2    1    2    0    0 -0.74348124628E-01 -0.32706213965E+02 -0.24154985106E+02  0.50528864925E+02  0.30000015427E+02 0.  0.
         12    1    1    2    0    0  0.74348124628E-01  0.32706213965E+02  0.24154985106E+02  0.40659135075E+02  0.00000000000E+00 0. -1.
         11    1    3    3    0    0  0.29686502835E+01 -0.74894407287E+01  0.29735517563E+01  0.85875850647E+01  0.51100000000E-03 0. -1.
        -11    1    3    3    0    0 -0.93671461879E+01 -0.20986615276E+02 -0.14426844768E+02  0.27135130342E+02  0.51100000000E-03 0.  1.
        -12    1    3    3    0    0  0.63241477797E+01 -0.42301579597E+01 -0.12701692094E+02  0.14806149518E+02  0.00000000000E+00 0.  1.
</event>
<event>
 7    1  0.5479172E-013  0.5052886E+02  0.7816164E-02  0.1300439E+00
        -11   -1    0    0    0    0  0.00000000000E+00  0.00000000000E+00  0.45593999997E+02  0.45594000000E+02  0.51100000000E-03 0.  1.
         11   -1    0    0    0    0 -0.00000000000E+00 -0.00000000000E+00 -0.45593999997E+02  0.45594000000E+02  0.51100000000E-03 0. -1.
    9900012    2    1    2    0    0 -0.35557290702E+01  0.39738210546E+02  0.78356542790E+01  0.50528855093E+02  0.29999985539E+02 0.  0.
         12    1    1    2    0    0  0.35557290702E+01 -0.39738210546E+02 -0.78356542790E+01  0.40659144907E+02  0.00000000000E+00 0. -1.
         11    1    3    3    0    0  0.66386600055E+01  0.85641741925E+01 -0.14072401053E+01  0.10926903095E+02  0.51100000000E-03 0. -1.
        -11    1    3    3    0    0 -0.48199035613E+01  0.25980393786E+02 -0.15554224667E+01  0.26469447877E+02  0.51100000000E-03 0.  1.
         12    1    3    3    0    0 -0.53744855144E+01  0.51936425678E+01  0.10798316851E+02  0.13132504121E+02  0.00000000000E+00 0. -1.
</event>
<event>
 7    1  0.5479172E-013  0.5052886E+02  0.7816164E-02  0.1300439E+00
        -11   -1    0    0    0    0  0.00000000000E+00  0.00000000000E+00  0.45593999997E+02  0.45594000000E+02  0.51100000000E-03 0. -1.
         11   -1    0    0    0    0 -0.00000000000E+00 -0.00000000000E+00 -0.45593999997E+02  0.45594000000E+02  0.51100000000E-03 0.  1.
    9900012    2    1    2    0    0  0.34241054525E+02  0.14724552379E+02 -0.16245096335E+02  0.50528863110E+02  0.30000009909E+02 0.  0.
         12    1    1    2    0    0 -0.34241054525E+02 -0.14724552379E+02  0.16245096335E+02  0.40659136890E+02  0.00000000000E+00 0. -1.
         11    1    3    3    0    0  0.20996242744E+00 -0.33664892795E+01 -0.42626974038E+01  0.54358001902E+01  0.51100000000E-03 0. -1.
        -11    1    3    3    0    0  0.12805878369E+02  0.75757222312E+01 -0.15103261784E+02  0.21201193479E+02  0.51100000000E-03 0.  1.
         12    1    3    3    0    0  0.21225213728E+02  0.10515319427E+02  0.31208628533E+01  0.23891869441E+02  0.00000000000E+00 0. -1.
</event>
<event>
 7    1  0.5479172E-013  0.5052886E+02  0.7816164E-02  0.1300439E+00
        -11   -1    0    0    0    0  0.00000000000E+00  0.00000000000E+00  0.45593999997E+02  0.45594000000E+02  0.51100000000E-03 0.  1.
         11   -1    0    0    0    0 -0.00000000000E+00 -0.00000000000E+00 -0.45593999997E+02  0.45594000000E+02  0.51100000000E-03 0. -1.
    9900012    2    1    2    0    0  0.12221236943E+00  0.21626943865E+02  0.34430015509E+02  0.50528860747E+02  0.30000002728E+02 0.  0.
         12    1    1    2    0    0 -0.12221236943E+00 -0.21626943865E+02 -0.34430015509E+02  0.40659139253E+02  0.00000000000E+00 0. -1.
         11    1    3    3    0    0 -0.44695555412E+01  0.35979253111E+01 -0.20376978215E+01  0.60888591668E+01  0.51100000000E-03 0. -1.
        -11    1    3    3    0    0 -0.45021797548E+01  0.92209634031E+01  0.71534448922E+01  0.12508699481E+02  0.51100000000E-03 0.  1.
         12    1    3    3    0    0  0.90939476654E+01  0.88080551503E+01  0.29314268439E+02  0.31931302099E+02  0.00000000000E+00 0. -1.
</event>
<event>
 7    1  0.5479172E-013  0.5052886E+02  0.7816164E-02  0.1300439E+00
        -11   -1    0    0    0    0  0.00000000000E+00  0.00000000000E+00  0.45593999997E+02  0.45594000000E+02  0.51100000000E-03 0.  1.
         11   -1    0    0    0    0 -0.00000000000E+00 -0.00000000000E+00 -0.45593999997E+02  0.45594000000E+02  0.51100000000E-03 0. -1.
    9900012    2    1    2    0    0  0.12626225359E+02  0.19564607432E+02  0.33331214548E+02  0.50528864568E+02  0.30000014342E+02 0.  0.
         12    1    1    2    0    0 -0.12626225359E+02 -0.19564607432E+02 -0.33331214548E+02  0.40659135432E+02  0.00000000000E+00 0. -1.
         11    1    3    3    0    0  0.56560685415E+01  0.22407102081E+01 -0.12168855452E+01  0.62042488888E+01  0.51100000000E-03 0. -1.
        -11    1    3    3    0    0  0.10757290035E+02  0.12869187411E+01  0.99017689243E+01  0.14677209436E+02  0.51100000000E-03 0.  1.
         12    1    3    3    0    0 -0.37871332173E+01  0.16036978483E+02  0.24646331169E+02  0.29647406244E+02  0.00000000000E+00 0. -1.
</event>
<event>
 7    1  0.5479172E-013  0.5052886E+02  0.7816164E-02  0.1300439E+00
        -11   -1    0    0    0    0  0.00000000000E+00  0.00000000000E+00  0.45593999997E+02  0.45594000000E+02  0.51100000000E-03 0.  1.
         11   -1    0    0    0    0 -0.00000000000E+00 -0.00000000000E+00 -0.45593999997E+02  0.45594000000E+02  0.51100000000E-03 0. -1.
    9900012    2    1    2    0    0  0.23120116940E+02 -0.29111213457E+01  0.33318931782E+02  0.50528860193E+02  0.30000001042E+02 0.  0.
         12    1    1    2    0    0 -0.23120116940E+02  0.29111213457E+01 -0.33318931782E+02  0.40659139807E+02  0.00000000000E+00 0. -1.
         11    1    3    3    0    0  0.14098485861E+01 -0.34976706525E+00  0.84341239461E+01  0.85582975547E+01  0.51100000000E-03 0. -1.
        -11    1    3    3    0    0  0.14740530835E+02 -0.44993682617E+01  0.29574463223E+02  0.33349309427E+02  0.51100000000E-03 0.  1.
         12    1    3    3    0    0  0.69697375183E+01  0.19380139812E+01 -0.46896553879E+01  0.86212532107E+01  0.00000000000E+00 0. -1.
</event>
<event>
 7    1  0.5479172E-013  0.5052886E+02  0.7816164E-02  0.1300439E+00
        -11   -1    0    0    0    0  0.00000000000E+00  0.00000000000E+00  0.45593999997E+02  0.45594000000E+02  0.51100000000E-03 0.  1.
         11   -1    0    0    0    0 -0.00000000000E+00 -0.00000000000E+00 -0.45593999997E+02  0.45594000000E+02  0.51100000000E-03 0. -1.
    9900012    2    1    2    0    0  0.34437329432E+02  0.77917596862E+01  0.20162459611E+02  0.50528856441E+02  0.29999989637E+02 0.  0.
         12    1    1    2    0    0 -0.34437329432E+02 -0.77917596862E+01 -0.20162459611E+02  0.40659143559E+02  0.00000000000E+00 0. -1.
         11    1    3    3    0    0  0.76872744427E+01 -0.65794898848E+01  0.69276241262E+01  0.12262783199E+02  0.51100000000E-03 0. -1.
        -11    1    3    3    0    0  0.15401931712E+02 -0.22101362044E+01  0.35432958467E+01  0.15958043371E+02  0.51100000000E-03 0.  1.
        -12    1    3    3    0    0  0.11348123278E+02  0.16581385775E+02  0.96915396380E+01  0.22308029871E+02  0.00000000000E+00 0.  1.
</event>
<event>
 7    1  0.5479172E-013  0.5052881E+02  0.7816164E-02  0.1300439E+00
        -11   -1    0    0    0    0  0.00000000000E+00  0.00000000000E+00  0.45593999997E+02  0.45594000000E+02  0.51100000000E-03 0.  1.
         11   -1    0    0    0    0 -0.00000000000E+00 -0.00000000000E+00 -0.45593999997E+02  0.45594000000E+02  0.51100000000E-03 0. -1.
    9900012    2    1    2    0    0  0.17809862678E+02 -0.40940553518E+00  0.36548751866E+02  0.50528805659E+02  0.29999835281E+02 0.  0.
         12    1    1    2    0    0 -0.17809862678E+02  0.40940553518E+00 -0.36548751866E+02  0.40659194341E+02  0.00000000000E+00 0. -1.
         11    1    3    3    0    0  0.18996452845E+01 -0.11106538427E+01  0.70258313306E+00  0.23099410133E+01  0.51100000000E-03 0. -1.
        -11    1    3    3    0    0  0.11777027627E+01 -0.10996335640E+02  0.22755624606E+02  0.25300688386E+02  0.51100000000E-03 0.  1.
         12    1    3    3    0    0  0.14732514631E+02  0.11697583948E+02  0.13090544126E+02  0.22918176260E+02  0.00000000000E+00 0. -1.
</event>
<event>
 7    1  0.5479172E-013  0.5052886E+02  0.7816164E-02  0.1300439E+00
        -11   -1    0    0    0    0  0.00000000000E+00  0.00000000000E+00  0.45593999997E+02  0.45594000000E+02  0.51100000000E-03 0.  1.
         11   -1    0    0    0    0 -0.00000000000E+00 -0.00000000000E+00 -0.45593999997E+02  0.45594000000E+02  0.51100000000E-03 0. -1.
    9900012    2    1    2    0    0 -0.39082265452E+01  0.39717604071E+02  0.77719458529E+01  0.50528862648E+02  0.30000008503E+02 0.  0.
         12    1    1    2    0    0  0.39082265452E+01 -0.39717604071E+02 -0.77719458529E+01  0.40659137352E+02  0.00000000000E+00 0. -1.
         11    1    3    3    0    0 -0.12643575534E+01 -0.11790288721E+01  0.58802526441E+01  0.61291174343E+01  0.51100000000E-03 0. -1.
        -11    1    3    3    0    0  0.55791782826E+01  0.13840046228E+02 -0.41382044417E+01  0.15485439812E+02  0.51100000000E-03 0.  1.
         12    1    3    3    0    0 -0.82230472744E+01  0.27056586715E+02  0.60298976505E+01  0.28914305401E+02  0.00000000000E+00 0. -1.
</event>
<event>
 7    1  0.5479172E-013  0.5052889E+02  0.7816164E-02  0.1300439E+00
        -11   -1    0    0    0    0  0.00000000000E+00  0.00000000000E+00  0.45593999997E+02  0.45594000000E+02  0.51100000000E-03 0. -1.
         11   -1    0    0    0    0 -0.00000000000E+00 -0.00000000000E+00 -0.45593999997E+02  0.45594000000E+02  0.51100000000E-03 0.  1.
    9900012    2    1    2    0    0  0.11031952458E+02 -0.17792335145E+02 -0.34855304662E+02  0.50528887515E+02  0.30000084091E+02 0.  0.
         12    1    1    2    0    0 -0.11031952458E+02  0.17792335145E+02  0.34855304662E+02  0.40659112485E+02  0.00000000000E+00 0. -1.
         11    1    3    3    0    0 -0.10117769474E+01 -0.48164464732E+01 -0.20589665230E+01  0.53349032441E+01  0.51100000000E-03 0. -1.
        -11    1    3    3    0    0 -0.20257165917E+01 -0.13796759292E+02 -0.65570774414E+01  0.15409391926E+02  0.51100000000E-03 0.  1.
        -12    1    3    3    0    0  0.14069445997E+02  0.82087062028E+00 -0.26239260698E+02  0.29784592346E+02  0.00000000000E+00 0.  1.
</event>
<event>
 7    1  0.5479172E-013  0.5052879E+02  0.7816164E-02  0.1300439E+00
        -11   -1    0    0    0    0  0.00000000000E+00  0.00000000000E+00  0.45593999997E+02  0.45594000000E+02  0.51100000000E-03 0.  1.
         11   -1    0    0    0    0 -0.00000000000E+00 -0.00000000000E+00 -0.45593999997E+02  0.45594000000E+02  0.51100000000E-03 0. -1.
    9900012    2    1    2    0    0 -0.11064274080E+02 -0.57438962959E+01  0.38700919244E+02  0.50528786334E+02  0.29999776541E+02 0.  0.
         12    1    1    2    0    0  0.11064274080E+02  0.57438962959E+01 -0.38700919244E+02  0.40659213666E+02  0.00000000000E+00 0. -1.
         11    1    3    3    0    0  0.17827903297E+01 -0.62588182943E+01 -0.11676828398E+01  0.66117041129E+01  0.51100000000E-03 0. -1.
        -11    1    3    3    0    0 -0.60819744447E-01  0.12745428136E+01 -0.64295837219E+00  0.14288296450E+01  0.51100000000E-03 0.  1.
        -12    1    3    3    0    0 -0.12786244666E+02 -0.75962081509E+00  0.40511560456E+02  0.42488252576E+02  0.00000000000E+00 0.  1.
</event>
<event>
 7    1  0.5479172E-013  0.5052886E+02  0.7816164E-02  0.1300439E+00
        -11   -1    0    0    0    0  0.00000000000E+00  0.00000000000E+00  0.45593999997E+02  0.45594000000E+02  0.51100000000E-03 0. -1.
         11   -1    0    0    0    0 -0.00000000000E+00 -0.00000000000E+00 -0.45593999997E+02  0.45594000000E+02  0.51100000000E-03 0.  1.
    9900012    2    1    2    0    0 -0.34631389039E+02 -0.43549566830E+01 -0.20853468051E+02  0.50528857310E+02  0.29999992280E+02 0.  0.
         12    1    1    2    0    0  0.34631389039E+02  0.43549566830E+01  0.20853468051E+02  0.40659142690E+02  0.00000000000E+00 0. -1.
         11    1    3    3    0    0 -0.11984832894E+02  0.40146990656E+01 -0.16628669166E+02  0.20886997548E+02  0.51100000000E-03 0. -1.
        -11    1    3    3    0    0 -0.36655476198E+01 -0.29264494433E+01 -0.82495868194E+01  0.94897854902E+01  0.51100000000E-03 0.  1.
         12    1    3    3    0    0 -0.18981008526E+02 -0.54432063053E+01  0.40247879347E+01  0.20152074272E+02  0.00000000000E+00 0. -1.
</event>
<event>
 7    1  0.5479172E-013  0.5052885E+02  0.7816164E-02  0.1300439E+00
        -11   -1    0    0    0    0  0.00000000000E+00  0.00000000000E+00  0.45593999997E+02  0.45594000000E+02  0.51100000000E-03 0.  1.
         11   -1    0    0    0    0 -0.00000000000E+00 -0.00000000000E+00 -0.45593999997E+02  0.45594000000E+02  0.51100000000E-03 0. -1.
    9900012    2    1    2    0    0  0.14005152383E+02 -0.14458369176E+02  0.35326723296E+02  0.50528854518E+02  0.29999983793E+02 0.  0.
         12    1    1    2    0    0 -0.14005152383E+02  0.14458369176E+02 -0.35326723296E+02  0.40659145482E+02  0.00000000000E+00 0. -1.
         11    1    3    3    0    0  0.13217164738E+02 -0.79000255777E+01  0.25118864720E+02  0.29462878558E+02  0.51100000000E-03 0. -1.
        -11    1    3    3    0    0  0.72416536382E+01  0.18093528870E+01  0.64037342600E+01  0.98347912036E+01  0.51100000000E-03 0.  1.
         12    1    3    3    0    0 -0.64536659933E+01 -0.83676964850E+01  0.38041243161E+01  0.11231184756E+02  0.00000000000E+00 0. -1.
</event>
<event>
 7    1  0.5479172E-013  0.5052887E+02  0.7816164E-02  0.1300439E+00
        -11   -1    0    0    0    0  0.00000000000E+00  0.00000000000E+00  0.45593999997E+02  0.45594000000E+02  0.51100000000E-03 0.  1.
         11   -1    0    0    0    0 -0.00000000000E+00 -0.00000000000E+00 -0.45593999997E+02  0.45594000000E+02  0.51100000000E-03 0. -1.
    9900012    2    1    2    0    0  0.24466800510E+02 -0.12539475809E+02  0.29954999689E+02  0.50528870802E+02  0.30000033290E+02 0.  0.
         12    1    1    2    0    0 -0.24466800510E+02  0.12539475809E+02 -0.29954999689E+02  0.40659129198E+02  0.00000000000E+00 0. -1.
         11    1    3    3    0    0  0.13279144189E+02 -0.21362993353E+02  0.16951222065E+02  0.30332442782E+02  0.51100000000E-03 0.  1.
        -11    1    3    3    0    0  0.14519902582E+01  0.17795300956E+01  0.56726893250E+01  0.61200006136E+01  0.51100000000E-03 0. -1.
        -12    1    3    3    0    0  0.97356660631E+01  0.70439874487E+01  0.73310882998E+01  0.14076427406E+02  0.00000000000E+00 0.  1.
</event>
<event>
 7    1  0.5479172E-013  0.5052886E+02  0.7816164E-02  0.1300439E+00
        -11   -1    0    0    0    0  0.00000000000E+00  0.00000000000E+00  0.45593999997E+02  0.45594000000E+02  0.51100000000E-03 0. -1.
         11   -1    0    0    0    0 -0.00000000000E+00 -0.00000000000E+00 -0.45593999997E+02  0.45594000000E+02  0.51100000000E-03 0.  1.
    9900012    2    1    2    0    0  0.90665331630E+01 -0.81781469239E+01 -0.38782491621E+02  0.50528858752E+02  0.29999996661E+02 0.  0.
         12    1    1    2    0    0 -0.90665331630E+01  0.81781469239E+01  0.38782491621E+02  0.40659141248E+02  0.00000000000E+00 0. -1.
         11    1    3    3    0    0 -0.54608493364E+01  0.48015679352E+01 -0.70800737851E+01  0.10149057847E+02  0.51100000000E-03 0. -1.
        -11    1    3    3    0    0 -0.21499306339E+01 -0.31846922798E+01 -0.80152153053E+00  0.39251628849E+01  0.51100000000E-03 0.  1.
        -12    1    3    3    0    0  0.16677313133E+02 -0.97950225793E+01 -0.30900896306E+02  0.36454638020E+02  0.00000000000E+00 0.  1.
</event>
<event>
 7    1  0.5479172E-013  0.5052885E+02  0.7816164E-02  0.1300439E+00
        -11   -1    0    0    0    0  0.00000000000E+00  0.00000000000E+00  0.45593999997E+02  0.45594000000E+02  0.51100000000E-03 0.  1.
         11   -1    0    0    0    0 -0.00000000000E+00 -0.00000000000E+00 -0.45593999997E+02  0.45594000000E+02  0.51100000000E-03 0. -1.
    9900012    2    1    2    0    0 -0.39585128643E+02  0.92753304662E+01  0.39048254980E+00  0.50528847997E+02  0.29999963973E+02 0.  0.
         12    1    1    2    0    0  0.39585128643E+02 -0.92753304662E+01 -0.39048254980E+00  0.40659152003E+02  0.00000000000E+00 0. -1.
         11    1    3    3    0    0 -0.66269148543E+01 -0.38385754011E+01  0.62703115268E+01  0.98978517114E+01  0.51100000000E-03 0. -1.
        -11    1    3    3    0    0  0.17030674608E+01  0.39323566551E+01 -0.13288221169E+01  0.44866063030E+01  0.51100000000E-03 0.  1.
         12    1    3    3    0    0 -0.34661281250E+02  0.91815492122E+01 -0.45510068602E+01  0.36144389983E+02  0.00000000000E+00 0. -1.
</event>
<event>
 7    1  0.5479172E-013  0.5052884E+02  0.7816164E-02  0.1300439E+00
        -11   -1    0    0    0    0  0.00000000000E+00  0.00000000000E+00  0.45593999997E+02  0.45594000000E+02  0.51100000000E-03 0.  1.
         11   -1    0    0    0    0 -0.00000000000E+00 -0.00000000000E+00 -0.45593999997E+02  0.45594000000E+02  0.51100000000E-03 0. -1.
    9900012    2    1    2    0    0  0.30183431332E+02  0.13650627716E+02  0.23575158158E+02  0.50528840562E+02  0.29999941372E+02 0.  0.
         12    1    1    2    0    0 -0.30183431332E+02 -0.13650627716E+02 -0.23575158158E+02  0.40659159438E+02  0.00000000000E+00 0. -1.
         11    1    3    3    0    0 -0.12960171094E+01 -0.99348172499E+00 -0.36342933068E+01  0.39843135402E+01  0.51100000000E-03 0. -1.
        -11    1    3    3    0    0  0.25341302010E+02  0.84727632473E+01  0.12607632389E+02  0.29545248337E+02  0.51100000000E-03 0.  1.
         12    1    3    3    0    0  0.61381464319E+01  0.61713461938E+01  0.14601819076E+02  0.16999278684E+02  0.00000000000E+00 0. -1.
</event>
<event>
 7    1  0.5479172E-013  0.5052882E+02  0.7816164E-02  0.1300439E+00
        -11   -1    0    0    0    0  0.00000000000E+00  0.00000000000E+00  0.45593999997E+02  0.45594000000E+02  0.51100000000E-03 0. -1.
         11   -1    0    0    0    0 -0.00000000000E+00 -0.00000000000E+00 -0.45593999997E+02  0.45594000000E+02  0.51100000000E-03 0.  1.
    9900012    2    1    2    0    0 -0.23088558788E+01 -0.57783278710E+01 -0.40180207811E+02  0.50528819141E+02  0.29999876260E+02 0.  0.
         12    1    1    2    0    0  0.23088558788E+01  0.57783278710E+01  0.40180207811E+02  0.40659180859E+02  0.00000000000E+00 0. -1.
         11    1    3    3    0    0  0.61235714819E+01 -0.28857940056E+01 -0.24021120494E+02  0.24956765912E+02  0.51100000000E-03 0. -1.
        -11    1    3    3    0    0 -0.24746842134E+01 -0.44521870174E+01 -0.18343515571E+02  0.19037610012E+02  0.51100000000E-03 0.  1.
         12    1    3    3    0    0 -0.59577431473E+01  0.15596531520E+01  0.21844282540E+01  0.65344432173E+01  0.00000000000E+00 0. -1.
</event>
<event>
 7    1  0.5479172E-013  0.5052886E+02  0.7816164E-02  0.1300439E+00
        -11   -1    0    0    0    0  0.00000000000E+00  0.00000000000E+00  0.45593999997E+02  0.45594000000E+02  0.51100000000E-03 0.  1.
         11   -1    0    0    0    0 -0.00000000000E+00 -0.00000000000E+00 -0.45593999997E+02  0.45594000000E+02  0.51100000000E-03 0. -1.
    9900012    2    1    2    0    0  0.39744894254E+02  0.85737487074E+01 -0.48725096362E-02  0.50528858224E+02  0.29999995059E+02 0.  0.
         12    1    1    2    0    0 -0.39744894254E+02 -0.85737487074E+01  0.48725096362E-02  0.40659141776E+02  0.00000000000E+00 0. -1.
         11    1    3    3    0    0  0.56019385733E+00  0.19509575421E+01  0.36576387684E+01  0.41831057971E+01  0.51100000000E-03 0. -1.
        -11    1    3    3    0    0 -0.26807013707E+00 -0.19399748701E+01  0.47228542933E+01  0.51127993342E+01  0.51100000000E-03 0.  1.
        -12    1    3    3    0    0  0.39452770534E+02  0.85627660353E+01 -0.83853655713E+01  0.41232953093E+02  0.00000000000E+00 0.  1.
</event>
<event>
 7    1  0.5479172E-013  0.5052882E+02  0.7816164E-02  0.1300439E+00
        -11   -1    0    0    0    0  0.00000000000E+00  0.00000000000E+00  0.45593999997E+02  0.45594000000E+02  0.51100000000E-03 0.  1.
         11   -1    0    0    0    0 -0.00000000000E+00 -0.00000000000E+00 -0.45593999997E+02  0.45594000000E+02  0.51100000000E-03 0. -1.
    9900012    2    1    2    0    0 -0.19614666732E+01 -0.18354187889E+02  0.36227685231E+02  0.50528822171E+02  0.29999885470E+02 0.  0.
         12    1    1    2    0    0  0.19614666732E+01  0.18354187889E+02 -0.36227685231E+02  0.40659177829E+02  0.00000000000E+00 0. -1.
         11    1    3    3    0    0  0.23814440884E+01  0.40515474800E+01  0.66657759985E+01  0.81559109149E+01  0.51100000000E-03 0. -1.
        -11    1    3    3    0    0 -0.68544509697E+00  0.38177513868E+01  0.38955190261E+01  0.54972838180E+01  0.51100000000E-03 0.  1.
        -12    1    3    3    0    0 -0.36574656647E+01 -0.26223486756E+02  0.25666390206E+02  0.36875627438E+02  0.00000000000E+00 0.  1.
</event>
<event>
 7    1  0.5479172E-013  0.5052887E+02  0.7816164E-02  0.1300439E+00
        -11   -1    0    0    0    0  0.00000000000E+00  0.00000000000E+00  0.45593999997E+02  0.45594000000E+02  0.51100000000E-03 0. -1.
         11   -1    0    0    0    0 -0.00000000000E+00 -0.00000000000E+00 -0.45593999997E+02  0.45594000000E+02  0.51100000000E-03 0.  1.
    9900012    2    1    2    0    0  0.36113402291E+02 -0.15860263079E+02 -0.98711381934E+01  0.50528866473E+02  0.30000020132E+02 0.  0.
         12    1    1    2    0    0 -0.36113402291E+02  0.15860263079E+02  0.98711381934E+01  0.40659133527E+02  0.00000000000E+00 0. -1.
         11    1    3    3    0    0  0.48299735651E+01  0.42881591657E+01 -0.52308555345E+01  0.83113659259E+01  0.51100000000E-03 0. -1.
        -11    1    3    3    0    0  0.65622107455E+01 -0.19165629884E+01 -0.88826890268E+01  0.11208835272E+02  0.51100000000E-03 0.  1.
         12    1    3    3    0    0  0.24721217980E+02 -0.18231859256E+02  0.42424063679E+01  0.31008665275E+02  0.00000000000E+00 0. -1.
</event>
<event>
 7    1  0.5479172E-013  0.5052884E+02  0.7816164E-02  0.1300439E+00
        -11   -1    0    0    0    0  0.00000000000E+00  0.00000000000E+00  0.45593999997E+02  0.45594000000E+02  0.51100000000E-03 0.  1.
         11   -1    0    0    0    0 -0.00000000000E+00 -0.00000000000E+00 -0.45593999997E+02  0.45594000000E+02  0.51100000000E-03 0. -1.
    9900012    2    1    2    0    0  0.39800746895E+01  0.39789019632E+02  0.73593594679E+01  0.50528840520E+02  0.29999941244E+02 0.  0.
         12    1    1    2    0    0 -0.39800746895E+01 -0.39789019632E+02 -0.73593594679E+01  0.40659159480E+02  0.00000000000E+00 0. -1.
         11    1    3    3    0    0  0.16561818539E+01  0.12706429163E+02 -0.91792010465E+01  0.15762424068E+02  0.51100000000E-03 0. -1.
        -11    1    3    3    0    0 -0.22872421534E+01  0.50421712758E+01 -0.16970181434E+01  0.57909272732E+01  0.51100000000E-03 0.  1.
        -12    1    3    3    0    0  0.46111349890E+01  0.22040419194E+02  0.18235578658E+02  0.28975489178E+02  0.00000000000E+00 0.  1.
</event>
<event>
 7    1  0.5479172E-013  0.5052886E+02  0.7816164E-02  0.1300439E+00
        -11   -1    0    0    0    0  0.00000000000E+00  0.00000000000E+00  0.45593999997E+02  0.45594000000E+02  0.51100000000E-03 0.  1.
         11   -1    0    0    0    0 -0.00000000000E+00 -0.00000000000E+00 -0.45593999997E+02  0.45594000000E+02  0.51100000000E-03 0. -1.
    9900012    2    1    2    0    0 -0.28790746399E+02  0.10878918757E+02  0.26568930535E+02  0.50528855625E+02  0.29999987158E+02 0.  0.
         12    1    1    2    0    0  0.28790746399E+02 -0.10878918757E+02 -0.26568930535E+02  0.40659144375E+02  0.00000000000E+00 0. -1.
         11    1    3    3    0    0 -0.16376198808E+02 -0.12221892887E+01  0.71411406943E+01  0.17907247827E+02  0.51100000000E-03 0. -1.
        -11    1    3    3    0    0 -0.17444522373E+02  0.64963411684E+01  0.12815367971E+02  0.22599722695E+02  0.51100000000E-03 0.  1.
        -12    1    3    3    0    0  0.50299747814E+01  0.56047668770E+01  0.66124218693E+01  0.10021885103E+02  0.00000000000E+00 0.  1.
</event>
<event>
 7    1  0.5479172E-013  0.5052890E+02  0.7816164E-02  0.1300439E+00
        -11   -1    0    0    0    0  0.00000000000E+00  0.00000000000E+00  0.45593999997E+02  0.45594000000E+02  0.51100000000E-03 0.  1.
         11   -1    0    0    0    0 -0.00000000000E+00 -0.00000000000E+00 -0.45593999997E+02  0.45594000000E+02  0.51100000000E-03 0. -1.
    9900012    2    1    2    0    0  0.37253694460E+02  0.61060209267E+01  0.15101037649E+02  0.50528897937E+02  0.30000115770E+02 0.  0.
         12    1    1    2    0    0 -0.37253694460E+02 -0.61060209267E+01 -0.15101037649E+02  0.40659102063E+02  0.00000000000E+00 0. -1.
         11    1    3    3    0    0  0.11323682608E+02  0.13342706198E+02  0.44910191134E+01  0.18067176023E+02  0.51100000000E-03 0. -1.
        -11    1    3    3    0    0  0.91491297293E+01 -0.16538144265E+01 -0.34000733616E+01  0.98996048450E+01  0.51100000000E-03 0.  1.
        -12    1    3    3    0    0  0.16780882122E+02 -0.55828708452E+01  0.14010091897E+02  0.22562117069E+02  0.00000000000E+00 0.  1.
</event>
<event>
 7    1  0.5479172E-013  0.5052886E+02  0.7816164E-02  0.1300439E+00
        -11   -1    0    0    0    0  0.00000000000E+00  0.00000000000E+00  0.45593999997E+02  0.45594000000E+02  0.51100000000E-03 0.  1.
         11   -1    0    0    0    0 -0.00000000000E+00 -0.00000000000E+00 -0.45593999997E+02  0.45594000000E+02  0.51100000000E-03 0. -1.
    9900012    2    1    2    0    0  0.29001623654E+02 -0.21527798763E+02  0.18671506567E+02  0.50528862631E+02  0.30000008453E+02 0.  0.
         12    1    1    2    0    0 -0.29001623654E+02  0.21527798763E+02 -0.18671506567E+02  0.40659137369E+02  0.00000000000E+00 0. -1.
         11    1    3    3    0    0  0.20201084529E+02 -0.14678919468E+02  0.45471226490E+01  0.25381702416E+02  0.51100000000E-03 0. -1.
        -11    1    3    3    0    0  0.63284371492E+01 -0.12555772192E+02  0.12258751990E+02  0.18654048694E+02  0.51100000000E-03 0.  1.
         12    1    3    3    0    0  0.24721019760E+01  0.57068928976E+01  0.18656319282E+01  0.64931115204E+01  0.00000000000E+00 0. -1.
</event>
<event>
 7    1  0.5479172E-013  0.5052886E+02  0.7816164E-02  0.1300439E+00
        -11   -1    0    0    0    0  0.00000000000E+00  0.00000000000E+00  0.45593999997E+02  0.45594000000E+02  0.51100000000E-03 0.  1.
         11   -1    0    0    0    0 -0.00000000000E+00 -0.00000000000E+00 -0.45593999997E+02  0.45594000000E+02  0.51100000000E-03 0. -1.
    9900012    2    1    2    0    0  0.23060009718E+02  0.33364005056E+02  0.28713368127E+01  0.50528862569E+02  0.30000008264E+02 0.  0.
         12    1    1    2    0    0 -0.23060009718E+02 -0.33364005056E+02 -0.28713368127E+01  0.40659137431E+02  0.00000000000E+00 0. -1.
         11    1    3    3    0    0  0.60957483670E+01  0.17028731936E+02  0.68061040410E+01  0.19325085045E+02  0.51100000000E-03 0. -1.
        -11    1    3    3    0    0  0.11683606983E+02  0.19951768123E+02  0.96829790603E+00  0.23141247254E+02  0.51100000000E-03 0.  1.
         12    1    3    3    0    0  0.52806543675E+01 -0.36164950025E+01 -0.49030651343E+01  0.80625302705E+01  0.00000000000E+00 0. -1.
</event>
<event>
 7    1  0.5479172E-013  0.5052886E+02  0.7816164E-02  0.1300439E+00
        -11   -1    0    0    0    0  0.00000000000E+00  0.00000000000E+00  0.45593999997E+02  0.45594000000E+02  0.51100000000E-03 0. -1.
         11   -1    0    0    0    0 -0.00000000000E+00 -0.00000000000E+00 -0.45593999997E+02  0.45594000000E+02  0.51100000000E-03 0.  1.
    9900012    2    1    2    0    0  0.22302951685E+02 -0.33670504337E+02 -0.46948198564E+01  0.50528857736E+02  0.29999993575E+02 0.  0.
         12    1    1    2    0    0 -0.22302951685E+02  0.33670504337E+02  0.46948198564E+01  0.40659142264E+02  0.00000000000E+00 0. -1.
         11    1    3    3    0    0  0.39527261828E+01 -0.41535936236E+01  0.91137013912E+00  0.58057712716E+01  0.51100000000E-03 0. -1.
        -11    1    3    3    0    0  0.37247089653E+00 -0.24412647515E+02 -0.84148205989E+01  0.25824896887E+02  0.51100000000E-03 0.  1.
        -12    1    3    3    0    0  0.17977754605E+02 -0.51042631985E+01  0.28086306034E+01  0.18898189578E+02  0.00000000000E+00 0.  1.
</event>
<event>
 7    1  0.5479172E-013  0.5052886E+02  0.7816164E-02  0.1300439E+00
        -11   -1    0    0    0    0  0.00000000000E+00  0.00000000000E+00  0.45593999997E+02  0.45594000000E+02  0.51100000000E-03 0.  1.
         11   -1    0    0    0    0 -0.00000000000E+00 -0.00000000000E+00 -0.45593999997E+02  0.45594000000E+02  0.51100000000E-03 0. -1.
    9900012    2    1    2    0    0 -0.16638041891E+02  0.26209215382E+02  0.26256773141E+02  0.50528861486E+02  0.30000004973E+02 0.  0.
         12    1    1    2    0    0  0.16638041891E+02 -0.26209215382E+02 -0.26256773141E+02  0.40659138514E+02  0.00000000000E+00 0. -1.
         11    1    3    3    0    0  0.97689921011E-01 -0.33532882799E+01 -0.16944152001E+01  0.37583412218E+01  0.51100000000E-03 0. -1.
        -11    1    3    3    0    0 -0.62962605430E+01  0.24528293596E+02  0.22846160558E+02  0.34106115816E+02  0.51100000000E-03 0.  1.
         12    1    3    3    0    0 -0.10439471269E+02  0.50342100665E+01  0.51050277838E+01  0.12664404449E+02  0.00000000000E+00 0. -1.
</event>
<event>
 7    1  0.5479172E-013  0.5052886E+02  0.7816164E-02  0.1300439E+00
        -11   -1    0    0    0    0  0.00000000000E+00  0.00000000000E+00  0.45593999997E+02  0.45594000000E+02  0.51100000000E-03 0. -1.
         11   -1    0    0    0    0 -0.00000000000E+00 -0.00000000000E+00 -0.45593999997E+02  0.45594000000E+02  0.51100000000E-03 0.  1.
    9900012    2    1    2    0    0  0.11921283372E+02  0.27663800829E+02 -0.27308659071E+02  0.50528859161E+02  0.29999997905E+02 0.  0.
         12    1    1    2    0    0 -0.11921283372E+02 -0.27663800829E+02  0.27308659071E+02  0.40659140839E+02  0.00000000000E+00 0. -1.
         11    1    3    3    0    0  0.95407603990E+01  0.19874416382E+02 -0.13462168840E+02  0.25831154168E+02  0.51100000000E-03 0. -1.
        -11    1    3    3    0    0  0.19755533712E+01  0.12054355931E+02 -0.15814862182E+02  0.19982997125E+02  0.51100000000E-03 0.  1.
         12    1    3    3    0    0  0.40496960201E+00 -0.42649714839E+01  0.19683719506E+01  0.47147078672E+01  0.00000000000E+00 0. -1.
</event>
<event>
 7    1  0.5479172E-013  0.5052886E+02  0.7816164E-02  0.1300439E+00
        -11   -1    0    0    0    0  0.00000000000E+00  0.00000000000E+00  0.45593999997E+02  0.45594000000E+02  0.51100000000E-03 0. -1.
         11   -1    0    0    0    0 -0.00000000000E+00 -0.00000000000E+00 -0.45593999997E+02  0.45594000000E+02  0.51100000000E-03 0.  1.
    9900012    2    1    2    0    0 -0.11636988564E+02  0.34935654751E+02 -0.17240831195E+02  0.50528859133E+02  0.29999997822E+02 0.  0.
         12    1    1    2    0    0  0.11636988564E+02 -0.34935654751E+02  0.17240831195E+02  0.40659140867E+02  0.00000000000E+00 0. -1.
         11    1    3    3    0    0 -0.44832224358E+01  0.33086420261E+01 -0.15372385439E+02  0.16351043692E+02  0.51100000000E-03 0. -1.
        -11    1    3    3    0    0 -0.11927733505E+01  0.24634470608E+01 -0.34085714294E+01  0.43714573243E+01  0.51100000000E-03 0.  1.
        -12    1    3    3    0    0 -0.59609927775E+01  0.29163565664E+02  0.15401256733E+01  0.29806358117E+02  0.00000000000E+00 0.  1.
</event>
<event>
 7    1  0.5479172E-013  0.5052886E+02  0.7816164E-02  0.1300439E+00
        -11   -1    0    0    0    0  0.00000000000E+00  0.00000000000E+00  0.45593999997E+02  0.45594000000E+02  0.51100000000E-03 0. -1.
         11   -1    0    0    0    0 -0.00000000000E+00 -0.00000000000E+00 -0.45593999997E+02  0.45594000000E+02  0.51100000000E-03 0.  1.
    9900012    2    1    2    0    0  0.63589254810E+01 -0.35768411692E+02 -0.18257898252E+02  0.50528855188E+02  0.29999985829E+02 0.  0.
         12    1    1    2    0    0 -0.63589254810E+01  0.35768411692E+02  0.18257898252E+02  0.40659144812E+02  0.00000000000E+00 0. -1.
         11    1    3    3    0    0  0.60651444446E+01 -0.22317310550E+01 -0.42883184412E+00  0.64769203830E+01  0.51100000000E-03 0. -1.
        -11    1    3    3    0    0  0.47203665443E+01  0.68532388502E+00 -0.57974064939E+01  0.75074264203E+01  0.51100000000E-03 0.  1.
         12    1    3    3    0    0 -0.44265855078E+01 -0.34222004522E+02 -0.12031659914E+02  0.36544508385E+02  0.00000000000E+00 0. -1.
</event>
<event>
 7    1  0.5479172E-013  0.5052886E+02  0.7816164E-02  0.1300439E+00
        -11   -1    0    0    0    0  0.00000000000E+00  0.00000000000E+00  0.45593999997E+02  0.45594000000E+02  0.51100000000E-03 0.  1.
         11   -1    0    0    0    0 -0.00000000000E+00 -0.00000000000E+00 -0.45593999997E+02  0.45594000000E+02  0.51100000000E-03 0. -1.
    9900012    2    1    2    0    0 -0.11483572711E+02 -0.35896219384E+02  0.15256303006E+02  0.50528858473E+02  0.29999995816E+02 0.  0.
         12    1    1    2    0    0  0.11483572711E+02  0.35896219384E+02 -0.15256303006E+02  0.40659141527E+02  0.00000000000E+00 0. -1.
         11    1    3    3    0    0 -0.68984428451E+01 -0.10893925457E+02  0.52841507243E+01  0.13935148894E+02  0.51100000000E-03 0. -1.
        -11    1    3    3    0    0 -0.12608321684E+02 -0.12193135346E+02 -0.15214225338E+01  0.17605597179E+02  0.51100000000E-03 0.  1.
        -12    1    3    3    0    0  0.80231918179E+01 -0.12809158581E+02  0.11493574815E+02  0.18988112401E+02  0.00000000000E+00 0.  1.
</event>
<event>
 7    1  0.5479172E-013  0.5052887E+02  0.7816164E-02  0.1300439E+00
        -11   -1    0    0    0    0  0.00000000000E+00  0.00000000000E+00  0.45593999997E+02  0.45594000000E+02  0.51100000000E-03 0.  1.
         11   -1    0    0    0    0 -0.00000000000E+00 -0.00000000000E+00 -0.45593999997E+02  0.45594000000E+02  0.51100000000E-03 0. -1.
    9900012    2    1    2    0    0 -0.20745064437E+02 -0.10076332377E+02  0.33485437498E+02  0.50528871910E+02  0.30000036656E+02 0.  0.
         12    1    1    2    0    0  0.20745064437E+02  0.10076332377E+02 -0.33485437498E+02  0.40659128090E+02  0.00000000000E+00 0. -1.
         11    1    3    3    0    0 -0.16256871521E+02 -0.37253834125E+01  0.30128507767E+02  0.34436772987E+02  0.51100000000E-03 0. -1.
        -11    1    3    3    0    0  0.59792667405E+00  0.40677383391E+01  0.42569123871E+00  0.41334277294E+01  0.51100000000E-03 0.  1.
         12    1    3    3    0    0 -0.50861195905E+01 -0.10418687303E+02  0.29312384919E+01  0.11958671193E+02  0.00000000000E+00 0. -1.
</event>
<event>
 7    1  0.5479172E-013  0.5052885E+02  0.7816164E-02  0.1300439E+00
        -11   -1    0    0    0    0  0.00000000000E+00  0.00000000000E+00  0.45593999997E+02  0.45594000000E+02  0.51100000000E-03 0. -1.
         11   -1    0    0    0    0 -0.00000000000E+00 -0.00000000000E+00 -0.45593999997E+02  0.45594000000E+02  0.51100000000E-03 0.  1.
    9900012    2    1    2    0    0  0.17949000467E+02 -0.86137743622E+01 -0.35451410035E+02  0.50528853428E+02  0.29999980479E+02 0.  0.
         12    1    1    2    0    0 -0.17949000467E+02  0.86137743622E+01  0.35451410035E+02  0.40659146572E+02  0.00000000000E+00 0. -1.
         11    1    3    3    0    0  0.39961921902E+01  0.51876894121E+01 -0.45336300886E+01  0.79646390690E+01  0.51100000000E-03 0. -1.
        -11    1    3    3    0    0  0.18481019517E+02 -0.78397592326E+01 -0.15286564070E+02  0.25232696022E+02  0.51100000000E-03 0.  1.
        -12    1    3    3    0    0 -0.45282112405E+01 -0.59617045416E+01 -0.15631215876E+02  0.17331518337E+02  0.00000000000E+00 0.  1.
</event>
<event>
 7    1  0.5479172E-013  0.5052886E+02  0.7816164E-02  0.1300439E+00
        -11   -1    0    0    0    0  0.00000000000E+00  0.00000000000E+00  0.45593999997E+02  0.45594000000E+02  0.51100000000E-03 0. -1.
         11   -1    0    0    0    0 -0.00000000000E+00 -0.00000000000E+00 -0.45593999997E+02  0.45594000000E+02  0.51100000000E-03 0.  1.
    9900012    2    1    2    0    0  0.19750436181E+02  0.25572463426E+02 -0.24680664771E+02  0.50528857996E+02  0.29999994364E+02 0.  0.
         12    1    1    2    0    0 -0.19750436181E+02 -0.25572463426E+02  0.24680664771E+02  0.40659142004E+02  0.00000000000E+00 0. -1.
         11    1    3    3    0    0  0.94820938717E+01  0.90516990620E+00 -0.50937975203E+01  0.10801676268E+02  0.51100000000E-03 0. -1.
        -11    1    3    3    0    0  0.78215055367E+01  0.14939227531E+02 -0.23530345034E+02  0.28948810093E+02  0.51100000000E-03 0.  1.
         12    1    3    3    0    0  0.24468367723E+01  0.97280659890E+01  0.39434777840E+01  0.10778371635E+02  0.00000000000E+00 0. -1.
</event>
<event>
 7    1  0.5479172E-013  0.5052886E+02  0.7816164E-02  0.1300439E+00
        -11   -1    0    0    0    0  0.00000000000E+00  0.00000000000E+00  0.45593999997E+02  0.45594000000E+02  0.51100000000E-03 0. -1.
         11   -1    0    0    0    0 -0.00000000000E+00 -0.00000000000E+00 -0.45593999997E+02  0.45594000000E+02  0.51100000000E-03 0.  1.
    9900012    2    1    2    0    0  0.15766460253E+02  0.69557185422E+01 -0.36826652902E+02  0.50528860151E+02  0.30000000914E+02 0.  0.
         12    1    1    2    0    0 -0.15766460253E+02 -0.69557185422E+01  0.36826652902E+02  0.40659139849E+02  0.00000000000E+00 0. -1.
         11    1    3    3    0    0  0.90563800196E+01  0.89935385582E+01 -0.72722193046E+01  0.14689687836E+02  0.51100000000E-03 0. -1.
        -11    1    3    3    0    0  0.11866660362E+02 -0.56511811252E+01 -0.24347139016E+02  0.27668333068E+02  0.51100000000E-03 0.  1.
        -12    1    3    3    0    0 -0.51565801288E+01  0.36133611092E+01 -0.52072945815E+01  0.81708392463E+01  0.00000000000E+00 0.  1.
</event>
<event>
 7    1  0.5479172E-013  0.5052875E+02  0.7816164E-02  0.1300439E+00
        -11   -1    0    0    0    0  0.00000000000E+00  0.00000000000E+00  0.45593999997E+02  0.45594000000E+02  0.51100000000E-03 0.  1.
         11   -1    0    0    0    0 -0.00000000000E+00 -0.00000000000E+00 -0.45593999997E+02  0.45594000000E+02  0.51100000000E-03 0. -1.
    9900012    2    1    2    0    0 -0.25103435573E+02  0.23378548458E+02  0.21827402613E+02  0.50528751232E+02  0.29999669842E+02 0.  0.
         12    1    1    2    0    0  0.25103435573E+02 -0.23378548458E+02 -0.21827402613E+02  0.40659248768E+02  0.00000000000E+00 0. -1.
         11    1    3    3    0    0 -0.48904751079E+01  0.40715769394E+01 -0.37023034343E+01  0.73621692819E+01  0.51100000000E-03 0. -1.
        -11    1    3    3    0    0 -0.91570381601E+01  0.95132393041E+01 -0.52712880460E+00  0.13214799846E+02  0.51100000000E-03 0.  1.
        -12    1    3    3    0    0 -0.11055922305E+02  0.97937322148E+01  0.26056834852E+02  0.29951782104E+02  0.00000000000E+00 0.  1.
</event>
<event>
 7    1  0.5479172E-013  0.5052887E+02  0.7816164E-02  0.1300439E+00
        -11   -1    0    0    0    0  0.00000000000E+00  0.00000000000E+00  0.45593999997E+02  0.45594000000E+02  0.51100000000E-03 0. -1.
         11   -1    0    0    0    0 -0.00000000000E+00 -0.00000000000E+00 -0.45593999997E+02  0.45594000000E+02  0.51100000000E-03 0.  1.
    9900012    2    1    2    0    0  0.11745331776E+02 -0.16405724151E+02 -0.35299638455E+02  0.50528867219E+02  0.30000022400E+02 0.  0.
         12    1    1    2    0    0 -0.11745331776E+02  0.16405724151E+02  0.35299638455E+02  0.40659132781E+02  0.00000000000E+00 0. -1.
         11    1    3    3    0    0  0.71523146796E+01 -0.14339776104E+02 -0.18231554537E+02  0.24272914227E+02  0.51100000000E-03 0. -1.
        -11    1    3    3    0    0  0.10466852827E+02 -0.38155203954E+01 -0.16752931029E+02  0.20118993571E+02  0.51100000000E-03 0.  1.
        -12    1    3    3    0    0 -0.58738357306E+01  0.17495723482E+01 -0.31515288901E+00  0.61369594210E+01  0.00000000000E+00 0.  1.
</event>
<event>
 7    1  0.5479172E-013  0.5052885E+02  0.7816164E-02  0.1300439E+00
        -11   -1    0    0    0    0  0.00000000000E+00  0.00000000000E+00  0.45593999997E+02  0.45594000000E+02  0.51100000000E-03 0.  1.
         11   -1    0    0    0    0 -0.00000000000E+00 -0.00000000000E+00 -0.45593999997E+02  0.45594000000E+02  0.51100000000E-03 0. -1.
    9900012    2    1    2    0    0 -0.11475913366E+02  0.54649590443E+00  0.39002191099E+02  0.50528853970E+02  0.29999982127E+02 0.  0.
         12    1    1    2    0    0  0.11475913366E+02 -0.54649590443E+00 -0.39002191099E+02  0.40659146030E+02  0.00000000000E+00 0. -1.
         11    1    3    3    0    0 -0.15337121180E+01  0.10683627519E+02  0.24382225702E+01  0.11065129886E+02  0.51100000000E-03 0. -1.
        -11    1    3    3    0    0 -0.22806924058E+01 -0.71805388446E+00  0.34808166911E+01  0.42229426149E+01  0.51100000000E-03 0.  1.
        -12    1    3    3    0    0 -0.76615088419E+01 -0.94190777301E+01  0.33083151838E+02  0.35240781469E+02  0.00000000000E+00 0.  1.
</event>
<event>
 7    1  0.5479172E-013  0.5052883E+02  0.7816164E-02  0.1300439E+00
        -11   -1    0    0    0    0  0.00000000000E+00  0.00000000000E+00  0.45593999997E+02  0.45594000000E+02  0.51100000000E-03 0. -1.
         11   -1    0    0    0    0 -0.00000000000E+00 -0.00000000000E+00 -0.45593999997E+02  0.45594000000E+02  0.51100000000E-03 0.  1.
    9900012    2    1    2    0    0  0.27045211255E+02 -0.32473084900E+01 -0.30185755651E+02  0.50528827499E+02  0.29999901666E+02 0.  0.
         12    1    1    2    0    0 -0.27045211255E+02  0.32473084900E+01  0.30185755651E+02  0.40659172501E+02  0.00000000000E+00 0. -1.
         11    1    3    3    0    0  0.25613041466E+01 -0.27000219285E+01  0.32973545265E+01  0.49722172600E+01  0.51100000000E-03 0. -1.
        -11    1    3    3    0    0  0.76118692669E+01 -0.83091390705E+01 -0.18642533948E+02  0.21783627294E+02  0.51100000000E-03 0.  1.
        -12    1    3    3    0    0  0.16872037841E+02  0.77618525090E+01 -0.14840576230E+02  0.23772982945E+02  0.00000000000E+00 0.  1.
</event>
<event>
 7    1  0.5479172E-013  0.5052886E+02  0.7816164E-02  0.1300439E+00
        -11   -1    0    0    0    0  0.00000000000E+00  0.00000000000E+00  0.45593999997E+02  0.45594000000E+02  0.51100000000E-03 0. -1.
         11   -1    0    0    0    0 -0.00000000000E+00 -0.00000000000E+00 -0.45593999997E+02  0.45594000000E+02  0.51100000000E-03 0.  1.
    9900012    2    1    2    0    0  0.26314677213E+02  0.23240219411E+02  0.20508433276E+02  0.50528857479E+02  0.29999992794E+02 0.  0.
         12    1    1    2    0    0 -0.26314677213E+02 -0.23240219411E+02 -0.20508433276E+02  0.40659142521E+02  0.00000000000E+00 0. -1.
         11    1    3    3    0    0  0.21546598311E+02  0.20976177526E+02  0.12478689022E+02  0.32557235791E+02  0.51100000000E-03 0. -1.
        -11    1    3    3    0    0  0.78060095767E+01  0.66410390962E+01  0.73248309635E+01  0.12597235200E+02  0.51100000000E-03 0.  1.
         12    1    3    3    0    0 -0.30379306746E+01 -0.43769972115E+01  0.70491329064E+00  0.53743864878E+01  0.00000000000E+00 0. -1.
</event>
<event>
 7    1  0.5479172E-013  0.5052886E+02  0.7816164E-02  0.1300439E+00
        -11   -1    0    0    0    0  0.00000000000E+00  0.00000000000E+00  0.45593999997E+02  0.45594000000E+02  0.51100000000E-03 0. -1.
         11   -1    0    0    0    0 -0.00000000000E+00 -0.00000000000E+00 -0.45593999997E+02  0.45594000000E+02  0.51100000000E-03 0.  1.
    9900012    2    1    2    0    0  0.18148440029E+02 -0.35336899775E+02  0.86662292345E+01  0.50528857236E+02  0.29999992054E+02 0.  0.
         12    1    1    2    0    0 -0.18148440029E+02  0.35336899775E+02 -0.86662292345E+01  0.40659142764E+02  0.00000000000E+00 0. -1.
         11    1    3    3    0    0  0.41582814533E+01  0.12035066859E+01  0.95863284688E+01  0.10518432714E+02  0.51100000000E-03 0. -1.
        -11    1    3    3    0    0  0.15430249095E+01 -0.38106639971E+00 -0.77538106014E+00  0.17684325042E+01  0.51100000000E-03 0.  1.
        -12    1    3    3    0    0  0.12447133666E+02 -0.36159340061E+02 -0.14471817416E+00  0.38241992018E+02  0.00000000000E+00 0.  1.
</event>
<event>
 7    1  0.5479172E-013  0.5052887E+02  0.7816164E-02  0.1300439E+00
        -11   -1    0    0    0    0  0.00000000000E+00  0.00000000000E+00  0.45593999997E+02  0.45594000000E+02  0.51100000000E-03 0. -1.
         11   -1    0    0    0    0 -0.00000000000E+00 -0.00000000000E+00 -0.45593999997E+02  0.45594000000E+02  0.51100000000E-03 0.  1.
    9900012    2    1    2    0    0 -0.21686308436E+02  0.32063001452E+02 -0.12443173016E+02  0.50528873222E+02  0.30000040644E+02 0.  0.
         12    1    1    2    0    0  0.21686308436E+02 -0.32063001452E+02  0.12443173016E+02  0.40659126778E+02  0.00000000000E+00 0. -1.
         11    1    3    3    0    0 -0.12647168901E+02  0.70026405936E+01 -0.59889044203E+00  0.14468812201E+02  0.51100000000E-03 0. -1.
        -11    1    3    3    0    0 -0.12930413316E+02  0.21080114159E+02 -0.15696491736E+02  0.29290726426E+02  0.51100000000E-03 0.  1.
         12    1    3    3    0    0  0.38912737812E+01  0.39802466987E+01  0.38522091617E+01  0.67693345942E+01  0.00000000000E+00 0. -1.
</event>
<event>
 7    1  0.5479172E-013  0.5052886E+02  0.7816164E-02  0.1300439E+00
        -11   -1    0    0    0    0  0.00000000000E+00  0.00000000000E+00  0.45593999997E+02  0.45594000000E+02  0.51100000000E-03 0. -1.
         11   -1    0    0    0    0 -0.00000000000E+00 -0.00000000000E+00 -0.45593999997E+02  0.45594000000E+02  0.51100000000E-03 0.  1.
    9900012    2    1    2    0    0  0.15309720704E+02 -0.11373474035E+02 -0.35908522546E+02  0.50528862637E+02  0.30000008472E+02 0.  0.
         12    1    1    2    0    0 -0.15309720704E+02  0.11373474035E+02  0.35908522546E+02  0.40659137363E+02  0.00000000000E+00 0. -1.
         11    1    3    3    0    0 -0.32094554110E+01  0.24836470463E+01 -0.12940410451E+02  0.13561833563E+02  0.51100000000E-03 0. -1.
        -11    1    3    3    0    0  0.11167522773E+02 -0.10466565719E+02 -0.24343365815E+02  0.28755208612E+02  0.51100000000E-03 0.  1.
         12    1    3    3    0    0  0.73516533415E+01 -0.33905553622E+01  0.13752537199E+01  0.82118204627E+01  0.00000000000E+00 0. -1.
</event>
<event>
 7    1  0.5479172E-013  0.5052891E+02  0.7816164E-02  0.1300439E+00
        -11   -1    0    0    0    0  0.00000000000E+00  0.00000000000E+00  0.45593999997E+02  0.45594000000E+02  0.51100000000E-03 0.  1.
         11   -1    0    0    0    0 -0.00000000000E+00 -0.00000000000E+00 -0.45593999997E+02  0.45594000000E+02  0.51100000000E-03 0. -1.
    9900012    2    1    2    0    0  0.10248965043E+02 -0.16132071980E+02  0.35886994627E+02  0.50528912280E+02  0.30000159367E+02 0.  0.
         12    1    1    2    0    0 -0.10248965043E+02  0.16132071980E+02 -0.35886994627E+02  0.40659087720E+02  0.00000000000E+00 0. -1.
         11    1    3    3    0    0 -0.49509370124E+01  0.30967033685E+00 -0.83817139368E-01  0.49613202469E+01  0.51100000000E-03 0. -1.
        -11    1    3    3    0    0  0.14931738275E+02 -0.87333830769E+01  0.13909741750E+02  0.22197065205E+02  0.51100000000E-03 0.  1.
         12    1    3    3    0    0  0.26816378039E+00 -0.77083592397E+01  0.22061070017E+02  0.23370526829E+02  0.00000000000E+00 0. -1.
</event>
<event>
 7    1  0.5479172E-013  0.5052886E+02  0.7816164E-02  0.1300439E+00
        -11   -1    0    0    0    0  0.00000000000E+00  0.00000000000E+00  0.45593999997E+02  0.45594000000E+02  0.51100000000E-03 0. -1.
         11   -1    0    0    0    0 -0.00000000000E+00 -0.00000000000E+00 -0.45593999997E+02  0.45594000000E+02  0.51100000000E-03 0.  1.
    9900012    2    1    2    0    0  0.22592775411E+02 -0.33760749485E+02 -0.17158199578E+01  0.50528859026E+02  0.29999997497E+02 0.  0.
         12    1    1    2    0    0 -0.22592775411E+02  0.33760749485E+02  0.17158199578E+01  0.40659140974E+02  0.00000000000E+00 0. -1.
         11    1    3    3    0    0  0.21690858870E+01 -0.26126567467E+01  0.33532260759E+01  0.47723195867E+01  0.51100000000E-03 0. -1.
        -11    1    3    3    0    0  0.19549369164E+02 -0.78517551343E+01  0.25716974333E+01  0.21223607642E+02  0.51100000000E-03 0.  1.
         12    1    3    3    0    0  0.87432036042E+00 -0.23296337604E+02 -0.76407434670E+01  0.24532931798E+02  0.00000000000E+00 0. -1.
</event>
<event>
 7    1  0.5479172E-013  0.5052885E+02  0.7816164E-02  0.1300439E+00
        -11   -1    0    0    0    0  0.00000000000E+00  0.00000000000E+00  0.45593999997E+02  0.45594000000E+02  0.51100000000E-03 0.  1.
         11   -1    0    0    0    0 -0.00000000000E+00 -0.00000000000E+00 -0.45593999997E+02  0.45594000000E+02  0.51100000000E-03 0. -1.
    9900012    2    1    2    0    0  0.32045105893E+02  0.23509419094E+02 -0.85781399194E+01  0.50528854875E+02  0.29999984878E+02 0.  0.
         12    1    1    2    0    0 -0.32045105893E+02 -0.23509419094E+02  0.85781399194E+01  0.40659145125E+02  0.00000000000E+00 0. -1.
         11    1    3    3    0    0  0.44440141928E+01  0.99597472147E+00 -0.28841035835E+01  0.53906661493E+01  0.51100000000E-03 0. -1.
        -11    1    3    3    0    0  0.88824926171E+01 -0.98314079844E+00  0.81184432395E+01  0.12073705389E+02  0.51100000000E-03 0.  1.
        -12    1    3    3    0    0  0.18718599083E+02  0.23496585171E+02 -0.13812479575E+02  0.33064483337E+02  0.00000000000E+00 0.  1.
</event>
<event>
 7    1  0.5479172E-013  0.5052887E+02  0.7816164E-02  0.1300439E+00
        -11   -1    0    0    0    0  0.00000000000E+00  0.00000000000E+00  0.45593999997E+02  0.45594000000E+02  0.51100000000E-03 0.  1.
         11   -1    0    0    0    0 -0.00000000000E+00 -0.00000000000E+00 -0.45593999997E+02  0.45594000000E+02  0.51100000000E-03 0. -1.
    9900012    2    1    2    0    0  0.29734603507E+02  0.77182315068E+01  0.26635443286E+02  0.50528873320E+02  0.30000040944E+02 0.  0.
         12    1    1    2    0    0 -0.29734603507E+02 -0.77182315068E+01 -0.26635443286E+02  0.40659126680E+02  0.00000000000E+00 0. -1.
         11    1    3    3    0    0  0.71128647999E+01  0.43552325553E+01  0.17674708549E+02  0.19543700234E+02  0.51100000000E-03 0. -1.
        -11    1    3    3    0    0  0.11177974460E+02  0.73733403199E+01  0.12536007915E+02  0.18342975637E+02  0.51100000000E-03 0.  1.
         12    1    3    3    0    0  0.11443764247E+02 -0.40103413684E+01 -0.35752731786E+01  0.12642197449E+02  0.00000000000E+00 0. -1.
</event>
<event>
 7    1  0.5479172E-013  0.5052886E+02  0.7816164E-02  0.1300439E+00
        -11   -1    0    0    0    0  0.00000000000E+00  0.00000000000E+00  0.45593999997E+02  0.45594000000E+02  0.51100000000E-03 0.  1.
         11   -1    0    0    0    0 -0.00000000000E+00 -0.00000000000E+00 -0.45593999997E+02  0.45594000000E+02  0.51100000000E-03 0. -1.
    9900012    2    1    2    0    0 -0.19661663247E+02  0.80611857106E+01  0.34664131298E+02  0.50528859388E+02  0.29999998595E+02 0.  0.
         12    1    1    2    0    0  0.19661663247E+02 -0.80611857106E+01 -0.34664131298E+02  0.40659140612E+02  0.00000000000E+00 0. -1.
         11    1    3    3    0    0  0.80640527256E+00 -0.17255771443E+01  0.56803631050E+01  0.59911961419E+01  0.51100000000E-03 0. -1.
        -11    1    3    3    0    0 -0.62487174654E+01  0.55527672879E+01  0.28492209894E+02  0.29693193150E+02  0.51100000000E-03 0.  1.
        -12    1    3    3    0    0 -0.14219351054E+02  0.42339955671E+01  0.49155829824E+00  0.14844470096E+02  0.00000000000E+00 0.  1.
</event>
<event>
 7    1  0.5479172E-013  0.5052886E+02  0.7816164E-02  0.1300439E+00
        -11   -1    0    0    0    0  0.00000000000E+00  0.00000000000E+00  0.45593999997E+02  0.45594000000E+02  0.51100000000E-03 0. -1.
         11   -1    0    0    0    0 -0.00000000000E+00 -0.00000000000E+00 -0.45593999997E+02  0.45594000000E+02  0.51100000000E-03 0.  1.
    9900012    2    1    2    0    0 -0.32503973600E+02 -0.17638287518E+02 -0.16898164222E+02  0.50528862768E+02  0.30000008869E+02 0.  0.
         12    1    1    2    0    0  0.32503973600E+02  0.17638287518E+02  0.16898164222E+02  0.40659137232E+02  0.00000000000E+00 0. -1.
         11    1    3    3    0    0 -0.12942113284E+02 -0.12571532781E+02 -0.18385302748E+02  0.25759679542E+02  0.51100000000E-03 0.  1.
        -11    1    3    3    0    0 -0.92289019985E+01  0.42600894470E+01 -0.21336213052E+01  0.10386208853E+02  0.51100000000E-03 0. -1.
         12    1    3    3    0    0 -0.10332958318E+02 -0.93268441848E+01  0.36207598316E+01  0.14382974373E+02  0.00000000000E+00 0. -1.
</event>
<event>
 7    1  0.5479172E-013  0.5052886E+02  0.7816164E-02  0.1300439E+00
        -11   -1    0    0    0    0  0.00000000000E+00  0.00000000000E+00  0.45593999997E+02  0.45594000000E+02  0.51100000000E-03 0. -1.
         11   -1    0    0    0    0 -0.00000000000E+00 -0.00000000000E+00 -0.45593999997E+02  0.45594000000E+02  0.51100000000E-03 0.  1.
    9900012    2    1    2    0    0 -0.19952491762E+02  0.28917262588E+02 -0.20465955416E+02  0.50528864075E+02  0.30000012843E+02 0.  0.
         12    1    1    2    0    0  0.19952491762E+02 -0.28917262588E+02  0.20465955416E+02  0.40659135925E+02  0.00000000000E+00 0. -1.
         11    1    3    3    0    0 -0.99964215782E+01  0.20837813651E+02 -0.19989948629E+02  0.30557175402E+02  0.51100000000E-03 0. -1.
        -11    1    3    3    0    0 -0.22759125108E+01  0.47982882936E+01 -0.74100945205E+01  0.91166248891E+01  0.51100000000E-03 0.  1.
         12    1    3    3    0    0 -0.76801576728E+01  0.32811606435E+01  0.69340877338E+01  0.10855063784E+02  0.00000000000E+00 0. -1.
</event>
<event>
 7    1  0.5479172E-013  0.5052886E+02  0.7816164E-02  0.1300439E+00
        -11   -1    0    0    0    0  0.00000000000E+00  0.00000000000E+00  0.45593999997E+02  0.45594000000E+02  0.51100000000E-03 0. -1.
         11   -1    0    0    0    0 -0.00000000000E+00 -0.00000000000E+00 -0.45593999997E+02  0.45594000000E+02  0.51100000000E-03 0.  1.
    9900012    2    1    2    0    0 -0.26776240736E+02 -0.10470802052E+02  0.28749969860E+02  0.50528861661E+02  0.30000005503E+02 0.  0.
         12    1    1    2    0    0  0.26776240736E+02  0.10470802052E+02 -0.28749969860E+02  0.40659138339E+02  0.00000000000E+00 0. -1.
         11    1    3    3    0    0 -0.15365709102E+02 -0.10899965065E+02  0.69024682582E+01  0.20063856134E+02  0.51100000000E-03 0. -1.
        -11    1    3    3    0    0 -0.51261724399E+01 -0.16920077157E+01 -0.19660064525E+01  0.57450601063E+01  0.51100000000E-03 0.  1.
         12    1    3    3    0    0 -0.62843591933E+01  0.21211707286E+01  0.23813508055E+02  0.24719945421E+02  0.00000000000E+00 0. -1.
</event>
<event>
 7    1  0.5479172E-013  0.5052884E+02  0.7816164E-02  0.1300439E+00
        -11   -1    0    0    0    0  0.00000000000E+00  0.00000000000E+00  0.45593999997E+02  0.45594000000E+02  0.51100000000E-03 0.  1.
         11   -1    0    0    0    0 -0.00000000000E+00 -0.00000000000E+00 -0.45593999997E+02  0.45594000000E+02  0.51100000000E-03 0. -1.
    9900012    2    1    2    0    0 -0.38706105839E+02 -0.64442166084E+00  0.12433395131E+02  0.50528840848E+02  0.29999942241E+02 0.  0.
         12    1    1    2    0    0  0.38706105839E+02  0.64442166084E+00 -0.12433395131E+02  0.40659159152E+02  0.00000000000E+00 0. -1.
         11    1    3    3    0    0 -0.55945371746E+01 -0.38381510421E+01 -0.99249729069E+00  0.68567704317E+01  0.51100000000E-03 0. -1.
        -11    1    3    3    0    0 -0.23210012567E+02 -0.79690012065E+01  0.14849321949E+02  0.28682957069E+02  0.51100000000E-03 0.  1.
        -12    1    3    3    0    0 -0.99015560971E+01  0.11162730588E+02 -0.14234295276E+01  0.14989113347E+02  0.00000000000E+00 0.  1.
</event>
<event>
 7    1  0.5479172E-013  0.5052885E+02  0.7816164E-02  0.1300439E+00
        -11   -1    0    0    0    0  0.00000000000E+00  0.00000000000E+00  0.45593999997E+02  0.45594000000E+02  0.51100000000E-03 0. -1.
         11   -1    0    0    0    0 -0.00000000000E+00 -0.00000000000E+00 -0.45593999997E+02  0.45594000000E+02  0.51100000000E-03 0.  1.
    9900012    2    1    2    0    0  0.81403089167E+01 -0.38368231238E+02 -0.10713584173E+02  0.50528847483E+02  0.29999962410E+02 0.  0.
         12    1    1    2    0    0 -0.81403089167E+01  0.38368231238E+02  0.10713584173E+02  0.40659152517E+02  0.00000000000E+00 0. -1.
         11    1    3    3    0    0 -0.99973404532E+00 -0.22340141681E+01 -0.18906174147E+01  0.30926884639E+01  0.51100000000E-03 0. -1.
        -11    1    3    3    0    0 -0.60436356033E+01 -0.17826820616E+02 -0.13541325269E+02  0.23188112362E+02  0.51100000000E-03 0.  1.
         12    1    3    3    0    0  0.15183678565E+02 -0.18307396453E+02  0.47183585114E+01  0.24248046658E+02  0.00000000000E+00 0. -1.
</event>
<event>
 7    1  0.5479172E-013  0.5052885E+02  0.7816164E-02  0.1300439E+00
        -11   -1    0    0    0    0  0.00000000000E+00  0.00000000000E+00  0.45593999997E+02  0.45594000000E+02  0.51100000000E-03 0. -1.
         11   -1    0    0    0    0 -0.00000000000E+00 -0.00000000000E+00 -0.45593999997E+02  0.45594000000E+02  0.51100000000E-03 0.  1.
    9900012    2    1    2    0    0 -0.31517029274E+02 -0.25123573278E+02 -0.53525336882E+01  0.50528847459E+02  0.29999962336E+02 0.  0.
         12    1    1    2    0    0  0.31517029274E+02  0.25123573278E+02  0.53525336882E+01  0.40659152541E+02  0.00000000000E+00 0. -1.
         11    1    3    3    0    0 -0.24053511950E+02 -0.23902806344E+02  0.72343305915E+01  0.34673493156E+02  0.51100000000E-03 0. -1.
        -11    1    3    3    0    0 -0.29877997526E+01 -0.22730236325E+00 -0.64693100666E+00  0.30654744681E+01  0.51100000000E-03 0.  1.
         12    1    3    3    0    0 -0.44757175715E+01 -0.99346457004E+00 -0.11939933273E+02  0.12789879835E+02  0.00000000000E+00 0. -1.
</event>
<event>
 7    1  0.5479172E-013  0.5052888E+02  0.7816164E-02  0.1300439E+00
        -11   -1    0    0    0    0  0.00000000000E+00  0.00000000000E+00  0.45593999997E+02  0.45594000000E+02  0.51100000000E-03 0.  1.
         11   -1    0    0    0    0 -0.00000000000E+00 -0.00000000000E+00 -0.45593999997E+02  0.45594000000E+02  0.51100000000E-03 0. -1.
    9900012    2    1    2    0    0  0.16283781973E+02 -0.26859825552E+02  0.25817678319E+02  0.50528876820E+02  0.30000051581E+02 0.  0.
         12    1    1    2    0    0 -0.16283781973E+02  0.26859825552E+02 -0.25817678319E+02  0.40659123180E+02  0.00000000000E+00 0. -1.
         11    1    3    3    0    0  0.73442689222E+01 -0.14769448350E+02  0.24866726572E+02  0.29840056656E+02  0.51100000000E-03 0. -1.
        -11    1    3    3    0    0  0.90574771160E+01 -0.11982594838E+02  0.56047567756E+01  0.16032272750E+02  0.51100000000E-03 0.  1.
         12    1    3    3    0    0 -0.11796406540E+00 -0.10778236419E+00 -0.46538050294E+01  0.46565474131E+01  0.00000000000E+00 0. -1.
</event>
<event>
 7    1  0.5479172E-013  0.5052884E+02  0.7816164E-02  0.1300439E+00
        -11   -1    0    0    0    0  0.00000000000E+00  0.00000000000E+00  0.45593999997E+02  0.45594000000E+02  0.51100000000E-03 0. -1.
         11   -1    0    0    0    0 -0.00000000000E+00 -0.00000000000E+00 -0.45593999997E+02  0.45594000000E+02  0.51100000000E-03 0.  1.
    9900012    2    1    2    0    0 -0.96856337956E+01 -0.31450718096E+02 -0.23879031689E+02  0.50528839591E+02  0.29999938421E+02 0.  0.
         12    1    1    2    0    0  0.96856337956E+01  0.31450718096E+02  0.23879031689E+02  0.40659160409E+02  0.00000000000E+00 0. -1.
         11    1    3    3    0    0 -0.11432669461E+02 -0.16029682277E+02 -0.14119710872E+02  0.24228555059E+02  0.51100000000E-03 0. -1.
        -11    1    3    3    0    0 -0.51163756589E+01 -0.10340042845E+02 -0.12803547708E+02  0.17234402226E+02  0.51100000000E-03 0.  1.
         12    1    3    3    0    0  0.68634113242E+01 -0.50809929744E+01  0.30442268913E+01  0.90658823055E+01  0.00000000000E+00 0. -1.
</event>
<event>
 7    1  0.5479172E-013  0.5052886E+02  0.7816164E-02  0.1300439E+00
        -11   -1    0    0    0    0  0.00000000000E+00  0.00000000000E+00  0.45593999997E+02  0.45594000000E+02  0.51100000000E-03 0. -1.
         11   -1    0    0    0    0 -0.00000000000E+00 -0.00000000000E+00 -0.45593999997E+02  0.45594000000E+02  0.51100000000E-03 0.  1.
    9900012    2    1    2    0    0 -0.38776425419E+02  0.10306921416E+02  0.65819479643E+01  0.50528857900E+02  0.29999994072E+02 0.  0.
         12    1    1    2    0    0  0.38776425419E+02 -0.10306921416E+02 -0.65819479643E+01  0.40659142100E+02  0.00000000000E+00 0. -1.
         11    1    3    3    0    0 -0.76005601150E+01  0.11390346101E+02 -0.62713225712E+00  0.13707727510E+02  0.51100000000E-03 0. -1.
        -11    1    3    3    0    0 -0.65270957148E+01  0.18002057765E+01 -0.56972049408E+01  0.88488340309E+01  0.51100000000E-03 0.  1.
         12    1    3    3    0    0 -0.24648769589E+02 -0.28836304617E+01  0.12906285162E+02  0.27972296359E+02  0.00000000000E+00 0. -1.
</event>
<event>
 7    1  0.5479172E-013  0.5052886E+02  0.7816164E-02  0.1300439E+00
        -11   -1    0    0    0    0  0.00000000000E+00  0.00000000000E+00  0.45593999997E+02  0.45594000000E+02  0.51100000000E-03 0.  1.
         11   -1    0    0    0    0 -0.00000000000E+00 -0.00000000000E+00 -0.45593999997E+02  0.45594000000E+02  0.51100000000E-03 0. -1.
    9900012    2    1    2    0    0 -0.21945854070E+02 -0.33335879140E+02  0.77630129827E+01  0.50528859337E+02  0.29999998440E+02 0.  0.
         12    1    1    2    0    0  0.21945854070E+02  0.33335879140E+02 -0.77630129827E+01  0.40659140663E+02  0.00000000000E+00 0. -1.
         11    1    3    3    0    0 -0.91669379499E+01 -0.30933255038E+02  0.93552167315E+01  0.33591949914E+02  0.51100000000E-03 0. -1.
        -11    1    3    3    0    0 -0.27818206238E+01 -0.54421486963E+01 -0.21344374951E+01  0.64738962069E+01  0.51100000000E-03 0.  1.
        -12    1    3    3    0    0 -0.99970954963E+01  0.30395245948E+01  0.54223374641E+00  0.10463013216E+02  0.00000000000E+00 0.  1.
</event>
<event>
 7    1  0.5479172E-013  0.5052886E+02  0.7816164E-02  0.1300439E+00
        -11   -1    0    0    0    0  0.00000000000E+00  0.00000000000E+00  0.45593999997E+02  0.45594000000E+02  0.51100000000E-03 0.  1.
         11   -1    0    0    0    0 -0.00000000000E+00 -0.00000000000E+00 -0.45593999997E+02  0.45594000000E+02  0.51100000000E-03 0. -1.
    9900012    2    1    2    0    0 -0.38024937034E+02 -0.24210317397E+00  0.14394836636E+02  0.50528858689E+02  0.29999996471E+02 0.  0.
         12    1    1    2    0    0  0.38024937034E+02  0.24210317397E+00 -0.14394836636E+02  0.40659141311E+02  0.00000000000E+00 0. -1.
         11    1    3    3    0    0 -0.25331105187E+02 -0.58915829913E+01  0.14146911436E+02  0.29605924130E+02  0.51100000000E-03 0. -1.
        -11    1    3    3    0    0 -0.15349741768E+02  0.34077720854E+01 -0.31794914069E+01  0.16041715893E+02  0.51100000000E-03 0.  1.
        -12    1    3    3    0    0  0.26559099217E+01  0.22417077319E+01  0.34274166066E+01  0.48812186657E+01  0.00000000000E+00 0.  1.
</event>
<event>
 7    1  0.5479172E-013  0.5052882E+02  0.7816164E-02  0.1300439E+00
        -11   -1    0    0    0    0  0.00000000000E+00  0.00000000000E+00  0.45593999997E+02  0.45594000000E+02  0.51100000000E-03 0.  1.
         11   -1    0    0    0    0 -0.00000000000E+00 -0.00000000000E+00 -0.45593999997E+02  0.45594000000E+02  0.51100000000E-03 0. -1.
    9900012    2    1    2    0    0  0.38500410639E+02  0.38299621881E+01  0.12498762455E+02  0.50528815396E+02  0.29999864877E+02 0.  0.
         12    1    1    2    0    0 -0.38500410639E+02 -0.38299621881E+01 -0.12498762455E+02  0.40659184604E+02  0.00000000000E+00 0. -1.
         11    1    3    3    0    0  0.67786658803E+01  0.29349541574E+01  0.59942226089E+01  0.95128845241E+01  0.51100000000E-03 0. -1.
        -11    1    3    3    0    0  0.21015826482E+02 -0.32205299596E+00  0.16187629300E+02  0.26529380382E+02  0.51100000000E-03 0.  1.
        -12    1    3    3    0    0  0.10705918277E+02  0.12170610266E+01 -0.96830894539E+01  0.14486550489E+02  0.00000000000E+00 0.  1.
</event>
<event>
 7    1  0.5479172E-013  0.5052887E+02  0.7816164E-02  0.1300439E+00
        -11   -1    0    0    0    0  0.00000000000E+00  0.00000000000E+00  0.45593999997E+02  0.45594000000E+02  0.51100000000E-03 0. -1.
         11   -1    0    0    0    0 -0.00000000000E+00 -0.00000000000E+00 -0.45593999997E+02  0.45594000000E+02  0.51100000000E-03 0.  1.
    9900012    2    1    2    0    0 -0.99619512297E+01  0.32977369611E+02 -0.21596701722E+02  0.50528869365E+02  0.30000028921E+02 0.  0.
         12    1    1    2    0    0  0.99619512297E+01 -0.32977369611E+02  0.21596701722E+02  0.40659130635E+02  0.00000000000E+00 0. -1.
         11    1    3    3    0    0 -0.44221936641E+01  0.14045581939E+02 -0.73532943767E+01  0.16459195219E+02  0.51100000000E-03 0. -1.
        -11    1    3    3    0    0 -0.14475985855E+02  0.14960223685E+02 -0.72357814751E+01  0.22039033395E+02  0.51100000000E-03 0.  1.
         12    1    3    3    0    0  0.89362282889E+01  0.39715639871E+01 -0.70076258705E+01  0.12030640751E+02  0.00000000000E+00 0. -1.
</event>
<event>
 7    1  0.5479172E-013  0.5052889E+02  0.7816164E-02  0.1300439E+00
        -11   -1    0    0    0    0  0.00000000000E+00  0.00000000000E+00  0.45593999997E+02  0.45594000000E+02  0.51100000000E-03 0.  1.
         11   -1    0    0    0    0 -0.00000000000E+00 -0.00000000000E+00 -0.45593999997E+02  0.45594000000E+02  0.51100000000E-03 0. -1.
    9900012    2    1    2    0    0 -0.49182889455E+01  0.20992999358E+02  0.34471263147E+02  0.50528885755E+02  0.30000078741E+02 0.  0.
         12    1    1    2    0    0  0.49182889455E+01 -0.20992999358E+02 -0.34471263147E+02  0.40659114245E+02  0.00000000000E+00 0. -1.
         11    1    3    3    0    0  0.35765368676E+01  0.16383400331E+02  0.12199039103E+02  0.20737019498E+02  0.51100000000E-03 0. -1.
        -11    1    3    3    0    0 -0.12357842219E+02  0.42612069043E+01  0.87642405267E+01  0.15738045014E+02  0.51100000000E-03 0.  1.
        -12    1    3    3    0    0  0.38630164057E+01  0.34839212290E+00  0.13507983517E+02  0.14053821243E+02  0.00000000000E+00 0.  1.
</event>
<event>
 7    1  0.5479172E-013  0.5052885E+02  0.7816164E-02  0.1300439E+00
        -11   -1    0    0    0    0  0.00000000000E+00  0.00000000000E+00  0.45593999997E+02  0.45594000000E+02  0.51100000000E-03 0. -1.
         11   -1    0    0    0    0 -0.00000000000E+00 -0.00000000000E+00 -0.45593999997E+02  0.45594000000E+02  0.51100000000E-03 0.  1.
    9900012    2    1    2    0    0 -0.12148298015E+02  0.32939253572E+02 -0.20508319161E+02  0.50528846967E+02  0.29999960841E+02 0.  0.
         12    1    1    2    0    0  0.12148298015E+02 -0.32939253572E+02  0.20508319161E+02  0.40659153033E+02  0.00000000000E+00 0. -1.
         11    1    3    3    0    0 -0.99931736742E+00  0.85529575007E+01 -0.14572787946E+02  0.16926838629E+02  0.51100000000E-03 0. -1.
        -11    1    3    3    0    0 -0.15269964151E+02  0.12486976906E+02 -0.70794336613E+01  0.20957451625E+02  0.51100000000E-03 0.  1.
         12    1    3    3    0    0  0.41209835031E+01  0.11899319166E+02  0.11439024465E+01  0.12644556712E+02  0.00000000000E+00 0. -1.
</event>
<event>
 7    1  0.5479172E-013  0.5052886E+02  0.7816164E-02  0.1300439E+00
        -11   -1    0    0    0    0  0.00000000000E+00  0.00000000000E+00  0.45593999997E+02  0.45594000000E+02  0.51100000000E-03 0.  1.
         11   -1    0    0    0    0 -0.00000000000E+00 -0.00000000000E+00 -0.45593999997E+02  0.45594000000E+02  0.51100000000E-03 0. -1.
    9900012    2    1    2    0    0  0.84409828077E+01  0.34253736305E+01  0.39625525002E+02  0.50528860720E+02  0.30000002645E+02 0.  0.
         12    1    1    2    0    0 -0.84409828077E+01 -0.34253736305E+01 -0.39625525002E+02  0.40659139280E+02  0.00000000000E+00 0. -1.
         11    1    3    3    0    0  0.41442328906E+00 -0.25737154890E+01  0.11847241429E+02  0.12130659002E+02  0.51100000000E-03 0. -1.
        -11    1    3    3    0    0 -0.79272150854E+01  0.16058168438E+01  0.16490581324E+02  0.18367325864E+02  0.51100000000E-03 0.  1.
         12    1    3    3    0    0  0.15953774604E+02  0.43932722757E+01  0.11287702250E+02  0.20030875854E+02  0.00000000000E+00 0. -1.
</event>
<event>
 7    1  0.5479172E-013  0.5052886E+02  0.7816164E-02  0.1300439E+00
        -11   -1    0    0    0    0  0.00000000000E+00  0.00000000000E+00  0.45593999997E+02  0.45594000000E+02  0.51100000000E-03 0.  1.
         11   -1    0    0    0    0 -0.00000000000E+00 -0.00000000000E+00 -0.45593999997E+02  0.45594000000E+02  0.51100000000E-03 0. -1.
    9900012    2    1    2    0    0  0.83239841980E+01  0.16685534730E+02  0.36131285215E+02  0.50528861378E+02  0.30000004646E+02 0.  0.
         12    1    1    2    0    0 -0.83239841980E+01 -0.16685534730E+02 -0.36131285215E+02  0.40659138622E+02  0.00000000000E+00 0. -1.
         11    1    3    3    0    0  0.13117278499E+02  0.23256056380E+01  0.69039202042E+01  0.15004517695E+02  0.51100000000E-03 0. -1.
        -11    1    3    3    0    0  0.45567858143E+01  0.49156326701E+01  0.12250898188E+02  0.13964678592E+02  0.51100000000E-03 0.  1.
         12    1    3    3    0    0 -0.93500801153E+01  0.94442964217E+01  0.16976466823E+02  0.21559665092E+02  0.00000000000E+00 0. -1.
</event>
<event>
 7    1  0.5479172E-013  0.5052886E+02  0.7816164E-02  0.1300439E+00
        -11   -1    0    0    0    0  0.00000000000E+00  0.00000000000E+00  0.45593999997E+02  0.45594000000E+02  0.51100000000E-03 0.  1.
         11   -1    0    0    0    0 -0.00000000000E+00 -0.00000000000E+00 -0.45593999997E+02  0.45594000000E+02  0.51100000000E-03 0. -1.
    9900012    2    1    2    0    0 -0.12650892009E+02 -0.36328202565E+02  0.13167463729E+02  0.50528862389E+02  0.30000007718E+02 0.  0.
         12    1    1    2    0    0  0.12650892009E+02  0.36328202565E+02 -0.13167463729E+02  0.40659137611E+02  0.00000000000E+00 0. -1.
         11    1    3    3    0    0 -0.14313795325E+01 -0.17723470644E+01  0.26658339781E+01  0.35066697225E+01  0.51100000000E-03 0. -1.
        -11    1    3    3    0    0 -0.13215249695E+02 -0.23611567004E+01  0.13479152093E+01  0.13492025835E+02  0.51100000000E-03 0.  1.
         12    1    3    3    0    0  0.19957372184E+01 -0.32194698800E+02  0.91537145414E+01  0.33530166832E+02  0.00000000000E+00 0. -1.
</event>
<event>
 7    1  0.5479172E-013  0.5052884E+02  0.7816164E-02  0.1300439E+00
        -11   -1    0    0    0    0  0.00000000000E+00  0.00000000000E+00  0.45593999997E+02  0.45594000000E+02  0.51100000000E-03 0.  1.
         11   -1    0    0    0    0 -0.00000000000E+00 -0.00000000000E+00 -0.45593999997E+02  0.45594000000E+02  0.51100000000E-03 0. -1.
    9900012    2    1    2    0    0 -0.22184141673E+02 -0.33504149185E+02  0.62050750613E+01  0.50528842226E+02  0.29999946429E+02 0.  0.
         12    1    1    2    0    0  0.22184141673E+02  0.33504149185E+02 -0.62050750613E+01  0.40659157774E+02  0.00000000000E+00 0. -1.
         11    1    3    3    0    0 -0.38551811545E+01 -0.11756723418E+02  0.48934571877E+01  0.13305220433E+02  0.51100000000E-03 0. -1.
        -11    1    3    3    0    0 -0.18348205488E+02 -0.26043933086E+02  0.40711106367E+01  0.32117238943E+02  0.51100000000E-03 0.  1.
         12    1    3    3    0    0  0.19244969152E-01  0.42965073185E+01 -0.27594927631E+01  0.51063828505E+01  0.00000000000E+00 0. -1.
</event>
<event>
 7    1  0.5479172E-013  0.5052886E+02  0.7816164E-02  0.1300439E+00
        -11   -1    0    0    0    0  0.00000000000E+00  0.00000000000E+00  0.45593999997E+02  0.45594000000E+02  0.51100000000E-03 0.  1.
         11   -1    0    0    0    0 -0.00000000000E+00 -0.00000000000E+00 -0.45593999997E+02  0.45594000000E+02  0.51100000000E-03 0. -1.
    9900012    2    1    2    0    0  0.80276859490E+01 -0.36761195366E+02 -0.15405723343E+02  0.50528861567E+02  0.30000005218E+02 0.  0.
         12    1    1    2    0    0 -0.80276859490E+01  0.36761195366E+02  0.15405723343E+02  0.40659138433E+02  0.00000000000E+00 0. -1.
         11    1    3    3    0    0 -0.46784052693E+01 -0.15926808917E+01 -0.74063332137E+01  0.89038126788E+01  0.51100000000E-03 0. -1.
        -11    1    3    3    0    0  0.94713631644E+01 -0.26546096059E+02 -0.13118671673E+02  0.31088606963E+02  0.51100000000E-03 0.  1.
         12    1    3    3    0    0  0.32347280539E+01 -0.86224184154E+01  0.51192815439E+01  0.10536441925E+02  0.00000000000E+00 0. -1.
</event>
<event>
 7    1  0.5479172E-013  0.5052885E+02  0.7816164E-02  0.1300439E+00
        -11   -1    0    0    0    0  0.00000000000E+00  0.00000000000E+00  0.45593999997E+02  0.45594000000E+02  0.51100000000E-03 0.  1.
         11   -1    0    0    0    0 -0.00000000000E+00 -0.00000000000E+00 -0.45593999997E+02  0.45594000000E+02  0.51100000000E-03 0. -1.
    9900012    2    1    2    0    0 -0.35942644353E+02  0.14950018476E+02  0.11738387135E+02  0.50528850132E+02  0.29999970460E+02 0.  0.
         12    1    1    2    0    0  0.35942644353E+02 -0.14950018476E+02 -0.11738387135E+02  0.40659149868E+02  0.00000000000E+00 0. -1.
         11    1    3    3    0    0 -0.17210760360E+02  0.67884988015E+01  0.13434432186E+02  0.22864338096E+02  0.51100000000E-03 0. -1.
        -11    1    3    3    0    0 -0.14353146951E+02  0.98561499820E+01  0.61963472458E+01  0.18481104927E+02  0.51100000000E-03 0.  1.
         12    1    3    3    0    0 -0.43787370416E+01 -0.16946303071E+01 -0.78923922969E+01  0.91834071088E+01  0.00000000000E+00 0. -1.
</event>
<event>
 7    1  0.5479172E-013  0.5052886E+02  0.7816164E-02  0.1300439E+00
        -11   -1    0    0    0    0  0.00000000000E+00  0.00000000000E+00  0.45593999997E+02  0.45594000000E+02  0.51100000000E-03 0. -1.
         11   -1    0    0    0    0 -0.00000000000E+00 -0.00000000000E+00 -0.45593999997E+02  0.45594000000E+02  0.51100000000E-03 0.  1.
    9900012    2    1    2    0    0  0.19006895372E+02  0.10666965852E+01 -0.35927223025E+02  0.50528864894E+02  0.30000015332E+02 0.  0.
         12    1    1    2    0    0 -0.19006895372E+02 -0.10666965852E+01  0.35927223025E+02  0.40659135106E+02  0.00000000000E+00 0. -1.
         11    1    3    3    0    0 -0.42418101777E+01  0.23491579220E+01 -0.12053143300E+02  0.12991911337E+02  0.51100000000E-03 0. -1.
        -11    1    3    3    0    0  0.19879734798E+01  0.61334057006E+01 -0.54930995829E+01  0.84702330152E+01  0.51100000000E-03 0.  1.
        -12    1    3    3    0    0  0.21260732070E+02 -0.74158670373E+01 -0.18380980143E+02  0.29066720542E+02  0.00000000000E+00 0.  1.
</event>
<event>
 7    1  0.5479172E-013  0.5052886E+02  0.7816164E-02  0.1300439E+00
        -11   -1    0    0    0    0  0.00000000000E+00  0.00000000000E+00  0.45593999997E+02  0.45594000000E+02  0.51100000000E-03 0. -1.
         11   -1    0    0    0    0 -0.00000000000E+00 -0.00000000000E+00 -0.45593999997E+02  0.45594000000E+02  0.51100000000E-03 0.  1.
    9900012    2    1    2    0    0 -0.38133891073E+02 -0.12988478630E+02 -0.55019569512E+01  0.50528858890E+02  0.29999997082E+02 0.  0.
         12    1    1    2    0    0  0.38133891073E+02  0.12988478630E+02  0.55019569512E+01  0.40659141110E+02  0.00000000000E+00 0. -1.
         11    1    3    3    0    0 -0.39694027277E+01  0.15153050372E+01  0.30339916205E+01  0.52208632222E+01  0.51100000000E-03 0. -1.
        -11    1    3    3    0    0  0.21360349782E+01  0.27711911281E+01 -0.32229106206E+01  0.47570262587E+01  0.51100000000E-03 0.  1.
         12    1    3    3    0    0 -0.36300523323E+02 -0.17274974796E+02 -0.53130379511E+01  0.40550969409E+02  0.00000000000E+00 0. -1.
</event>
<event>
 7    1  0.5479172E-013  0.5052886E+02  0.7816164E-02  0.1300439E+00
        -11   -1    0    0    0    0  0.00000000000E+00  0.00000000000E+00  0.45593999997E+02  0.45594000000E+02  0.51100000000E-03 0.  1.
         11   -1    0    0    0    0 -0.00000000000E+00 -0.00000000000E+00 -0.45593999997E+02  0.45594000000E+02  0.51100000000E-03 0. -1.
    9900012    2    1    2    0    0  0.30950876433E+02 -0.48095130996E+01  0.25924460839E+02  0.50528857878E+02  0.29999994007E+02 0.  0.
         12    1    1    2    0    0 -0.30950876433E+02  0.48095130996E+01 -0.25924460839E+02  0.40659142122E+02  0.00000000000E+00 0. -1.
         11    1    3    3    0    0  0.94085525718E+01  0.78123253024E+01  0.89748806034E+01  0.15169105782E+02  0.51100000000E-03 0. -1.
        -11    1    3    3    0    0  0.15715387693E+02  0.13525444143E+01  0.10190761648E+02  0.18779095025E+02  0.51100000000E-03 0.  1.
         12    1    3    3    0    0  0.58269361685E+01 -0.13974382816E+02  0.67588185881E+01  0.16580657071E+02  0.00000000000E+00 0. -1.
</event>
<event>
 7    1  0.5479172E-013  0.5052886E+02  0.7816164E-02  0.1300439E+00
        -11   -1    0    0    0    0  0.00000000000E+00  0.00000000000E+00  0.45593999997E+02  0.45594000000E+02  0.51100000000E-03 0.  1.
         11   -1    0    0    0    0 -0.00000000000E+00 -0.00000000000E+00 -0.45593999997E+02  0.45594000000E+02  0.51100000000E-03 0. -1.
    9900012    2    1    2    0    0 -0.95659680917E+01  0.18408342049E+02  0.34968431814E+02  0.50528855567E+02  0.29999986980E+02 0.  0.
         12    1    1    2    0    0  0.95659680917E+01 -0.18408342049E+02 -0.34968431814E+02  0.40659144433E+02  0.00000000000E+00 0. -1.
         11    1    3    3    0    0 -0.13746146668E+00  0.11893350523E+02  0.39835272654E+00  0.11900813732E+02  0.51100000000E-03 0.  1.
        -11    1    3    3    0    0  0.27464364158E+01 -0.12250593039E+00  0.26161277463E+01  0.37950026791E+01  0.51100000000E-03 0. -1.
        -12    1    3    3    0    0 -0.12174943041E+02  0.66374974567E+01  0.31953951341E+02  0.34833039156E+02  0.00000000000E+00 0.  1.
</event>
<event>
 7    1  0.5479172E-013  0.5052885E+02  0.7816164E-02  0.1300439E+00
        -11   -1    0    0    0    0  0.00000000000E+00  0.00000000000E+00  0.45593999997E+02  0.45594000000E+02  0.51100000000E-03 0. -1.
         11   -1    0    0    0    0 -0.00000000000E+00 -0.00000000000E+00 -0.45593999997E+02  0.45594000000E+02  0.51100000000E-03 0.  1.
    9900012    2    1    2    0    0  0.30181358897E+02  0.24730887805E+02 -0.11429586335E+02  0.50528847521E+02  0.29999962525E+02 0.  0.
         12    1    1    2    0    0 -0.30181358897E+02 -0.24730887805E+02  0.11429586335E+02  0.40659152479E+02  0.00000000000E+00 0. -1.
         11    1    3    3    0    0  0.79777668254E+01  0.10882887112E+02  0.15321020266E+01  0.13580476144E+02  0.51100000000E-03 0. -1.
        -11    1    3    3    0    0  0.24212585508E+02  0.11624862309E+02 -0.35755990771E+01  0.27095601667E+02  0.51100000000E-03 0.  1.
         12    1    3    3    0    0 -0.20089934365E+01  0.22231383845E+01 -0.93860892844E+01  0.98527697101E+01  0.00000000000E+00 0. -1.
</event>
<event>
 7    1  0.5479172E-013  0.5052887E+02  0.7816164E-02  0.1300439E+00
        -11   -1    0    0    0    0  0.00000000000E+00  0.00000000000E+00  0.45593999997E+02  0.45594000000E+02  0.51100000000E-03 0. -1.
         11   -1    0    0    0    0 -0.00000000000E+00 -0.00000000000E+00 -0.45593999997E+02  0.45594000000E+02  0.51100000000E-03 0.  1.
    9900012    2    1    2    0    0 -0.66765853742E+00 -0.25085112575E+02 -0.31991501306E+02  0.50528870685E+02  0.30000032935E+02 0.  0.
         12    1    1    2    0    0  0.66765853742E+00  0.25085112575E+02  0.31991501306E+02  0.40659129315E+02  0.00000000000E+00 0. -1.
         11    1    3    3    0    0  0.70812944878E+01 -0.12227087598E+02 -0.59036106549E+01  0.15313360891E+02  0.51100000000E-03 0. -1.
        -11    1    3    3    0    0 -0.32623779189E+01 -0.12519320233E+02 -0.53581128731E+01  0.14003066186E+02  0.51100000000E-03 0.  1.
        -12    1    3    3    0    0 -0.44865751063E+01 -0.33870474319E+00 -0.20729777778E+02  0.21212443608E+02  0.00000000000E+00 0.  1.
</event>
<event>
 7    1  0.5479172E-013  0.5052885E+02  0.7816164E-02  0.1300439E+00
        -11   -1    0    0    0    0  0.00000000000E+00  0.00000000000E+00  0.45593999997E+02  0.45594000000E+02  0.51100000000E-03 0. -1.
         11   -1    0    0    0    0 -0.00000000000E+00 -0.00000000000E+00 -0.45593999997E+02  0.45594000000E+02  0.51100000000E-03 0.  1.
    9900012    2    1    2    0    0 -0.20078288625E+01  0.25969224634E+00 -0.40608716860E+02  0.50528847256E+02  0.29999961721E+02 0.  0.
         12    1    1    2    0    0  0.20078288625E+01 -0.25969224634E+00  0.40608716860E+02  0.40659152744E+02  0.00000000000E+00 0. -1.
         11    1    3    3    0    0 -0.97175607161E-01  0.15485985362E+01 -0.80113249117E+00  0.17462571559E+01  0.51100000000E-03 0. -1.
        -11    1    3    3    0    0 -0.10848992357E+02  0.90914484075E+01 -0.16421873831E+02  0.21680244687E+02  0.51100000000E-03 0.  1.
         12    1    3    3    0    0  0.89383391020E+01 -0.10380354697E+02 -0.23385710538E+02  0.27102345413E+02  0.00000000000E+00 0. -1.
</event>
<event>
 7    1  0.5479172E-013  0.5052885E+02  0.7816164E-02  0.1300439E+00
        -11   -1    0    0    0    0  0.00000000000E+00  0.00000000000E+00  0.45593999997E+02  0.45594000000E+02  0.51100000000E-03 0.  1.
         11   -1    0    0    0    0 -0.00000000000E+00 -0.00000000000E+00 -0.45593999997E+02  0.45594000000E+02  0.51100000000E-03 0. -1.
    9900012    2    1    2    0    0 -0.45424067778E+00  0.39949262045E+02 -0.75509204417E+01  0.50528852542E+02  0.29999977785E+02 0.  0.
         12    1    1    2    0    0  0.45424067778E+00 -0.39949262045E+02  0.75509204417E+01  0.40659147458E+02  0.00000000000E+00 0. -1.
         11    1    3    3    0    0  0.65470558209E+01  0.13725450543E+02 -0.48450773047E+01  0.15960159990E+02  0.51100000000E-03 0. -1.
        -11    1    3    3    0    0 -0.43231406622E+01  0.15594179072E+01  0.66247158572E+01  0.80627656449E+01  0.51100000000E-03 0.  1.
         12    1    3    3    0    0 -0.26781558366E+01  0.24664393594E+02 -0.93305589942E+01  0.26505926907E+02  0.00000000000E+00 0. -1.
</event>
<event>
 7    1  0.5479172E-013  0.5052885E+02  0.7816164E-02  0.1300439E+00
        -11   -1    0    0    0    0  0.00000000000E+00  0.00000000000E+00  0.45593999997E+02  0.45594000000E+02  0.51100000000E-03 0.  1.
         11   -1    0    0    0    0 -0.00000000000E+00 -0.00000000000E+00 -0.45593999997E+02  0.45594000000E+02  0.51100000000E-03 0. -1.
    9900012    2    1    2    0    0  0.36706797942E+01 -0.40174247043E+02 -0.50717633669E+01  0.50528846058E+02  0.29999958078E+02 0.  0.
         12    1    1    2    0    0 -0.36706797942E+01  0.40174247043E+02  0.50717633669E+01  0.40659153942E+02  0.00000000000E+00 0. -1.
         11    1    3    3    0    0  0.19737486874E+00 -0.92580024079E+01  0.95641087221E+01  0.13312465637E+02  0.51100000000E-03 0. -1.
        -11    1    3    3    0    0 -0.10916771019E+01  0.63646840505E+00  0.10888883256E+01  0.16680914160E+01  0.51100000000E-03 0.  1.
         12    1    3    3    0    0  0.45649820274E+01 -0.31552713040E+02 -0.15724760415E+02  0.35548289005E+02  0.00000000000E+00 0. -1.
</event>
<event>
 7    1  0.5479172E-013  0.5052886E+02  0.7816164E-02  0.1300439E+00
        -11   -1    0    0    0    0  0.00000000000E+00  0.00000000000E+00  0.45593999997E+02  0.45594000000E+02  0.51100000000E-03 0.  1.
         11   -1    0    0    0    0 -0.00000000000E+00 -0.00000000000E+00 -0.45593999997E+02  0.45594000000E+02  0.51100000000E-03 0. -1.
    9900012    2    1    2    0    0  0.15760670468E+02 -0.64428547460E+01  0.36922307266E+02  0.50528857305E+02  0.29999992263E+02 0.  0.
         12    1    1    2    0    0 -0.15760670468E+02  0.64428547460E+01 -0.36922307266E+02  0.40659142695E+02  0.00000000000E+00 0. -1.
         11    1    3    3    0    0  0.16499784230E+02  0.76606295048E+01  0.20294775426E+02  0.27254468145E+02  0.51100000000E-03 0.  1.
        -11    1    3    3    0    0  0.44306612430E+00 -0.32891754382E+01 -0.10014362375E+00  0.33203932991E+01  0.51100000000E-03 0. -1.
        -12    1    3    3    0    0 -0.11821798860E+01 -0.10814308813E+02  0.16727675464E+02  0.19953995860E+02  0.00000000000E+00 0.  1.
</event>
<event>
 7    1  0.5479172E-013  0.5052883E+02  0.7816164E-02  0.1300439E+00
        -11   -1    0    0    0    0  0.00000000000E+00  0.00000000000E+00  0.45593999997E+02  0.45594000000E+02  0.51100000000E-03 0.  1.
         11   -1    0    0    0    0 -0.00000000000E+00 -0.00000000000E+00 -0.45593999997E+02  0.45594000000E+02  0.51100000000E-03 0. -1.
    9900012    2    1    2    0    0 -0.25242215561E+02  0.25549565227E+02  0.19058286676E+02  0.50528831037E+02  0.29999912421E+02 0.  0.
         12    1    1    2    0    0  0.25242215561E+02 -0.25549565227E+02 -0.19058286676E+02  0.40659168963E+02  0.00000000000E+00 0. -1.
         11    1    3    3    0    0  0.21835413383E+01  0.74440186825E+01  0.86487365838E+01  0.11618171615E+02  0.51100000000E-03 0. -1.
        -11    1    3    3    0    0 -0.64382867568E+01  0.12949771936E+02  0.94543109314E+01  0.17278082214E+02  0.51100000000E-03 0.  1.
        -12    1    3    3    0    0 -0.20987470143E+02  0.51557746089E+01  0.95523916055E+00  0.21632577208E+02  0.00000000000E+00 0.  1.
</event>
<event>
 7    1  0.5479172E-013  0.5052886E+02  0.7816164E-02  0.1300439E+00
        -11   -1    0    0    0    0  0.00000000000E+00  0.00000000000E+00  0.45593999997E+02  0.45594000000E+02  0.51100000000E-03 0.  1.
         11   -1    0    0    0    0 -0.00000000000E+00 -0.00000000000E+00 -0.45593999997E+02  0.45594000000E+02  0.51100000000E-03 0. -1.
    9900012    2    1    2    0    0 -0.87006582561E+01 -0.13480234468E+02  0.37359708092E+02  0.50528856329E+02  0.29999989296E+02 0.  0.
         12    1    1    2    0    0  0.87006582561E+01  0.13480234468E+02 -0.37359708092E+02  0.40659143671E+02  0.00000000000E+00 0. -1.
         11    1    3    3    0    0  0.17345422175E+01  0.23582918080E+01  0.74165126926E+01  0.79733830797E+01  0.51100000000E-03 0. -1.
        -11    1    3    3    0    0  0.42297467236E+01 -0.70078742783E+01  0.22400101333E+02  0.23848807082E+02  0.51100000000E-03 0.  1.
         12    1    3    3    0    0 -0.14664947197E+02 -0.88306519972E+01  0.75430940664E+01  0.18706666167E+02  0.00000000000E+00 0. -1.
</event>
<event>
 7    1  0.5479172E-013  0.5052886E+02  0.7816164E-02  0.1300439E+00
        -11   -1    0    0    0    0  0.00000000000E+00  0.00000000000E+00  0.45593999997E+02  0.45594000000E+02  0.51100000000E-03 0. -1.
         11   -1    0    0    0    0 -0.00000000000E+00 -0.00000000000E+00 -0.45593999997E+02  0.45594000000E+02  0.51100000000E-03 0.  1.
    9900012    2    1    2    0    0 -0.22782741291E+02  0.84077985104E+01 -0.32610142479E+02  0.50528858727E+02  0.29999996588E+02 0.  0.
         12    1    1    2    0    0  0.22782741291E+02 -0.84077985104E+01  0.32610142479E+02  0.40659141273E+02  0.00000000000E+00 0. -1.
         11    1    3    3    0    0  0.11837142853E+01 -0.24348882464E+01  0.23491868632E+01  0.35844859410E+01  0.51100000000E-03 0.  1.
        -11    1    3    3    0    0  0.22577223442E+01 -0.38083384015E+00 -0.54034577379E+01  0.58685347732E+01  0.51100000000E-03 0. -1.
        -12    1    3    3    0    0 -0.26224177921E+02  0.11223520597E+02 -0.29555871604E+02  0.41075838013E+02  0.00000000000E+00 0.  1.
</event>
<event>
 7    1  0.5479172E-013  0.5052886E+02  0.7816164E-02  0.1300439E+00
        -11   -1    0    0    0    0  0.00000000000E+00  0.00000000000E+00  0.45593999997E+02  0.45594000000E+02  0.51100000000E-03 0.  1.
         11   -1    0    0    0    0 -0.00000000000E+00 -0.00000000000E+00 -0.45593999997E+02  0.45594000000E+02  0.51100000000E-03 0. -1.
    9900012    2    1    2    0    0  0.88400110514E-01 -0.14216096031E+01  0.40634185566E+02  0.50528858038E+02  0.29999994494E+02 0.  0.
         12    1    1    2    0    0 -0.88400110514E-01  0.14216096031E+01 -0.40634185566E+02  0.40659141962E+02  0.00000000000E+00 0. -1.
         11    1    3    3    0    0  0.67402412778E+01 -0.53467179931E+01  0.30127230156E+01  0.91156319589E+01  0.51100000000E-03 0. -1.
        -11    1    3    3    0    0  0.22449117441E+01  0.38521004426E+01  0.23559126442E+01  0.50426809542E+01  0.51100000000E-03 0.  1.
         12    1    3    3    0    0 -0.88967529114E+01  0.73007947441E-01  0.35265549906E+02  0.36370545125E+02  0.00000000000E+00 0. -1.
</event>
<event>
 7    1  0.5479172E-013  0.5052886E+02  0.7816164E-02  0.1300439E+00
        -11   -1    0    0    0    0  0.00000000000E+00  0.00000000000E+00  0.45593999997E+02  0.45594000000E+02  0.51100000000E-03 0.  1.
         11   -1    0    0    0    0 -0.00000000000E+00 -0.00000000000E+00 -0.45593999997E+02  0.45594000000E+02  0.51100000000E-03 0. -1.
    9900012    2    1    2    0    0  0.39510550448E+01  0.10026740565E+02  0.39204832790E+02  0.50528864785E+02  0.30000015001E+02 0.  0.
         12    1    1    2    0    0 -0.39510550448E+01 -0.10026740565E+02 -0.39204832790E+02  0.40659135215E+02  0.00000000000E+00 0. -1.
         11    1    3    3    0    0  0.11079984013E+02  0.42202631025E+01  0.19799677815E+02  0.23078212848E+02  0.51100000000E-03 0. -1.
        -11    1    3    3    0    0 -0.11279389631E+01  0.11171506004E+02  0.12891630260E+02  0.17095874465E+02  0.51100000000E-03 0.  1.
         12    1    3    3    0    0 -0.60009900054E+01 -0.53650285414E+01  0.65135247147E+01  0.10354777472E+02  0.00000000000E+00 0. -1.
</event>
<event>
 7    1  0.5479172E-013  0.5052885E+02  0.7816164E-02  0.1300439E+00
        -11   -1    0    0    0    0  0.00000000000E+00  0.00000000000E+00  0.45593999997E+02  0.45594000000E+02  0.51100000000E-03 0. -1.
         11   -1    0    0    0    0 -0.00000000000E+00 -0.00000000000E+00 -0.45593999997E+02  0.45594000000E+02  0.51100000000E-03 0.  1.
    9900012    2    1    2    0    0  0.14739483651E+02  0.24057009973E+02 -0.29277533820E+02  0.50528854735E+02  0.29999984451E+02 0.  0.
         12    1    1    2    0    0 -0.14739483651E+02 -0.24057009973E+02  0.29277533820E+02  0.40659145265E+02  0.00000000000E+00 0. -1.
         11    1    3    3    0    0 -0.67469995987E+01  0.12210076408E+02 -0.13985485508E+02  0.19753525625E+02  0.51100000000E-03 0. -1.
        -11    1    3    3    0    0  0.70777454468E+01 -0.59802984323E+00 -0.14844382047E+01  0.72564231787E+01  0.51100000000E-03 0.  1.
        -12    1    3    3    0    0  0.14408737802E+02  0.12444963409E+02 -0.13807610107E+02  0.23518905931E+02  0.00000000000E+00 0.  1.
</event>
<event>
 7    1  0.5479172E-013  0.5052886E+02  0.7816164E-02  0.1300439E+00
        -11   -1    0    0    0    0  0.00000000000E+00  0.00000000000E+00  0.45593999997E+02  0.45594000000E+02  0.51100000000E-03 0.  1.
         11   -1    0    0    0    0 -0.00000000000E+00 -0.00000000000E+00 -0.45593999997E+02  0.45594000000E+02  0.51100000000E-03 0. -1.
    9900012    2    1    2    0    0  0.16316686102E+02  0.90651158854E+00  0.37230488341E+02  0.50528864855E+02  0.30000015214E+02 0.  0.
         12    1    1    2    0    0 -0.16316686102E+02 -0.90651158854E+00 -0.37230488341E+02  0.40659135145E+02  0.00000000000E+00 0. -1.
         11    1    3    3    0    0  0.97581555954E-01 -0.24886746225E+01  0.64903002475E+01  0.69517638841E+01  0.51100000000E-03 0.  1.
        -11    1    3    3    0    0  0.12604442273E+01 -0.49579870011E+01 -0.28600327049E+01  0.58608994265E+01  0.51100000000E-03 0. -1.
        -12    1    3    3    0    0  0.14958660319E+02  0.83531732122E+01  0.33600220799E+02  0.37716201545E+02  0.00000000000E+00 0.  1.
</event>
<event>
 7    1  0.5479172E-013  0.5052886E+02  0.7816164E-02  0.1300439E+00
        -11   -1    0    0    0    0  0.00000000000E+00  0.00000000000E+00  0.45593999997E+02  0.45594000000E+02  0.51100000000E-03 0.  1.
         11   -1    0    0    0    0 -0.00000000000E+00 -0.00000000000E+00 -0.45593999997E+02  0.45594000000E+02  0.51100000000E-03 0. -1.
    9900012    2    1    2    0    0 -0.20544991660E+02 -0.12375672854E+02  0.32831559518E+02  0.50528864971E+02  0.30000015566E+02 0.  0.
         12    1    1    2    0    0  0.20544991660E+02  0.12375672854E+02 -0.32831559518E+02  0.40659135029E+02  0.00000000000E+00 0. -1.
         11    1    3    3    0    0 -0.11706690965E+00 -0.22060741899E+01  0.56226755507E+01  0.60411049157E+01  0.51100000000E-03 0. -1.
        -11    1    3    3    0    0 -0.17923226502E+02 -0.18899221088E+02  0.18931436954E+02  0.32199719119E+02  0.51100000000E-03 0.  1.
        -12    1    3    3    0    0 -0.25046982487E+01  0.87296224239E+01  0.82774470138E+01  0.12288040936E+02  0.00000000000E+00 0.  1.
</event>
<event>
 7    1  0.5479172E-013  0.5052886E+02  0.7816164E-02  0.1300439E+00
        -11   -1    0    0    0    0  0.00000000000E+00  0.00000000000E+00  0.45593999997E+02  0.45594000000E+02  0.51100000000E-03 0. -1.
         11   -1    0    0    0    0 -0.00000000000E+00 -0.00000000000E+00 -0.45593999997E+02  0.45594000000E+02  0.51100000000E-03 0.  1.
    9900012    2    1    2    0    0 -0.29436541133E+02  0.25177730965E+02  0.12358707220E+02  0.50528859152E+02  0.29999997877E+02 0.  0.
         12    1    1    2    0    0  0.29436541133E+02 -0.25177730965E+02 -0.12358707220E+02  0.40659140848E+02  0.00000000000E+00 0. -1.
         11    1    3    3    0    0 -0.26562597521E+01  0.23780290634E+01  0.11016199781E+02  0.11578747599E+02  0.51100000000E-03 0. -1.
        -11    1    3    3    0    0 -0.20766581490E+02  0.12963453108E+02  0.78536813832E+01  0.25709576714E+02  0.51100000000E-03 0.  1.
        -12    1    3    3    0    0 -0.60136998902E+01  0.98362487928E+01 -0.65111739436E+01  0.13240534838E+02  0.00000000000E+00 0.  1.
</event>
<event>
 7    1  0.5479172E-013  0.5052887E+02  0.7816164E-02  0.1300439E+00
        -11   -1    0    0    0    0  0.00000000000E+00  0.00000000000E+00  0.45593999997E+02  0.45594000000E+02  0.51100000000E-03 0.  1.
         11   -1    0    0    0    0 -0.00000000000E+00 -0.00000000000E+00 -0.45593999997E+02  0.45594000000E+02  0.51100000000E-03 0. -1.
    9900012    2    1    2    0    0  0.40215887987E+02  0.33997790261E+01  0.49283815307E+01  0.50528867096E+02  0.30000022026E+02 0.  0.
         12    1    1    2    0    0 -0.40215887987E+02 -0.33997790261E+01 -0.49283815307E+01  0.40659132904E+02  0.00000000000E+00 0. -1.
         11    1    3    3    0    0  0.14745299491E+02 -0.80988463056E+00 -0.79546662583E+01  0.16773684322E+02  0.51100000000E-03 0. -1.
        -11    1    3    3    0    0  0.19291234951E+02 -0.51128779651E+01  0.92377968468E+01  0.21991592890E+02  0.51100000000E-03 0.  1.
        -12    1    3    3    0    0  0.61793535448E+01  0.93225416218E+01  0.36452509422E+01  0.11763589884E+02  0.00000000000E+00 0.  1.
</event>
<event>
 7    1  0.5479172E-013  0.5052886E+02  0.7816164E-02  0.1300439E+00
        -11   -1    0    0    0    0  0.00000000000E+00  0.00000000000E+00  0.45593999997E+02  0.45594000000E+02  0.51100000000E-03 0.  1.
         11   -1    0    0    0    0 -0.00000000000E+00 -0.00000000000E+00 -0.45593999997E+02  0.45594000000E+02  0.51100000000E-03 0. -1.
    9900012    2    1    2    0    0  0.58809995537E+01  0.35160799288E+02  0.19552444970E+02  0.50528855067E+02  0.29999985462E+02 0.  0.
         12    1    1    2    0    0 -0.58809995537E+01 -0.35160799288E+02 -0.19552444970E+02  0.40659144933E+02  0.00000000000E+00 0. -1.
         11    1    3    3    0    0 -0.21338689746E+01  0.14646626981E+02 -0.15239895114E+01  0.14879503454E+02  0.51100000000E-03 0. -1.
        -11    1    3    3    0    0 -0.51374419206E+01  0.10847329588E+02  0.12002504021E+02  0.16974038168E+02  0.51100000000E-03 0.  1.
        -12    1    3    3    0    0  0.13152310449E+02  0.96668427186E+01  0.90739304604E+01  0.18675313446E+02  0.00000000000E+00 0.  1.
</event>
<event>
 7    1  0.5479172E-013  0.5052898E+02  0.7816164E-02  0.1300438E+00
        -11   -1    0    0    0    0  0.00000000000E+00  0.00000000000E+00  0.45593999997E+02  0.45594000000E+02  0.51100000000E-03 0.  1.
         11   -1    0    0    0    0 -0.00000000000E+00 -0.00000000000E+00 -0.45593999997E+02  0.45594000000E+02  0.51100000000E-03 0. -1.
    9900012    2    1    2    0    0 -0.36231874185E+02 -0.72059630088E+01 -0.16984744801E+02  0.50528976822E+02  0.30000355546E+02 0.  0.
         12    1    1    2    0    0  0.36231874185E+02  0.72059630088E+01  0.16984744801E+02  0.40659023178E+02  0.00000000000E+00 0. -1.
         11    1    3    3    0    0 -0.17546938112E+00  0.14514223831E+01 -0.27196019505E+01  0.30876611647E+01  0.51100000000E-03 0. -1.
        -11    1    3    3    0    0 -0.22833378065E+01 -0.20691042250E+01  0.65409308273E+01  0.72303941926E+01  0.51100000000E-03 0.  1.
         12    1    3    3    0    0 -0.33773066997E+02 -0.65882811668E+01 -0.20806073678E+02  0.40210921465E+02  0.00000000000E+00 0. -1.
</event>
<event>
 7    1  0.5479172E-013  0.5052886E+02  0.7816164E-02  0.1300439E+00
        -11   -1    0    0    0    0  0.00000000000E+00  0.00000000000E+00  0.45593999997E+02  0.45594000000E+02  0.51100000000E-03 0. -1.
         11   -1    0    0    0    0 -0.00000000000E+00 -0.00000000000E+00 -0.45593999997E+02  0.45594000000E+02  0.51100000000E-03 0.  1.
    9900012    2    1    2    0    0  0.28270017513E+02 -0.27406226282E+02  0.10142498670E+02  0.50528863161E+02  0.30000010065E+02 0.  0.
         12    1    1    2    0    0 -0.28270017513E+02  0.27406226282E+02 -0.10142498670E+02  0.40659136839E+02  0.00000000000E+00 0. -1.
         11    1    3    3    0    0  0.98871421026E+01 -0.34754735471E+01  0.45538072808E+01  0.11426795541E+02  0.51100000000E-03 0.  1.
        -11    1    3    3    0    0  0.20299792773E+02 -0.23676136309E+02  0.11223051698E+02  0.33145103814E+02  0.51100000000E-03 0. -1.
        -12    1    3    3    0    0 -0.19169173635E+01 -0.25461642654E+00 -0.56343603081E+01  0.59569638059E+01  0.00000000000E+00 0.  1.
</event>
<event>
 7    1  0.5479172E-013  0.5052888E+02  0.7816164E-02  0.1300439E+00
        -11   -1    0    0    0    0  0.00000000000E+00  0.00000000000E+00  0.45593999997E+02  0.45594000000E+02  0.51100000000E-03 0.  1.
         11   -1    0    0    0    0 -0.00000000000E+00 -0.00000000000E+00 -0.45593999997E+02  0.45594000000E+02  0.51100000000E-03 0. -1.
    9900012    2    1    2    0    0  0.26112847240E+02  0.15275335666E+02  0.27165185708E+02  0.50528880663E+02  0.30000063263E+02 0.  0.
         12    1    1    2    0    0 -0.26112847240E+02 -0.15275335666E+02 -0.27165185708E+02  0.40659119337E+02  0.00000000000E+00 0. -1.
         11    1    3    3    0    0  0.20433713812E+01  0.45102384949E+01 -0.50997175853E+01  0.71080755197E+01  0.51100000000E-03 0. -1.
        -11    1    3    3    0    0  0.18390403968E+01  0.47780911880E+01  0.22480153670E+01  0.55915828111E+01  0.51100000000E-03 0.  1.
         12    1    3    3    0    0  0.22230435462E+02  0.59870059831E+01  0.30016887926E+02  0.37829222332E+02  0.00000000000E+00 0. -1.
</event>
<event>
 7    1  0.5479172E-013  0.5052885E+02  0.7816164E-02  0.1300439E+00
        -11   -1    0    0    0    0  0.00000000000E+00  0.00000000000E+00  0.45593999997E+02  0.45594000000E+02  0.51100000000E-03 0. -1.
         11   -1    0    0    0    0 -0.00000000000E+00 -0.00000000000E+00 -0.45593999997E+02  0.45594000000E+02  0.51100000000E-03 0.  1.
    9900012    2    1    2    0    0  0.21478823320E+02  0.15618253911E+02 -0.30787928324E+02  0.50528852973E+02  0.29999979097E+02 0.  0.
         12    1    1    2    0    0 -0.21478823320E+02 -0.15618253911E+02  0.30787928324E+02  0.40659147027E+02  0.00000000000E+00 0. -1.
         11    1    3    3    0    0  0.52139659079E+01 -0.20102264496E+01 -0.60486123815E+01  0.82348140762E+01  0.51100000000E-03 0. -1.
        -11    1    3    3    0    0 -0.56591585266E+01  0.60064709641E+00 -0.10217244998E+01  0.57819350895E+01  0.51100000000E-03 0.  1.
        -12    1    3    3    0    0  0.21924015939E+02  0.17027833264E+02 -0.23717591443E+02  0.36512103807E+02  0.00000000000E+00 0.  1.
</event>
<event>
 7    1  0.5479172E-013  0.5052886E+02  0.7816164E-02  0.1300439E+00
        -11   -1    0    0    0    0  0.00000000000E+00  0.00000000000E+00  0.45593999997E+02  0.45594000000E+02  0.51100000000E-03 0.  1.
         11   -1    0    0    0    0 -0.00000000000E+00 -0.00000000000E+00 -0.45593999997E+02  0.45594000000E+02  0.51100000000E-03 0. -1.
    9900012    2    1    2    0    0 -0.56565938594E+01 -0.34989583955E+02  0.19922284423E+02  0.50528862576E+02  0.30000008285E+02 0.  0.
         12    1    1    2    0    0  0.56565938594E+01  0.34989583955E+02 -0.19922284423E+02  0.40659137424E+02  0.00000000000E+00 0. -1.
         11    1    3    3    0    0  0.56760173901E+01  0.48046448962E+00  0.44495466458E+01  0.72281730162E+01  0.51100000000E-03 0. -1.
        -11    1    3    3    0    0 -0.39778945579E+01 -0.81299039088E+01  0.11617929234E+02  0.14727364415E+02  0.51100000000E-03 0.  1.
        -12    1    3    3    0    0 -0.73547166917E+01 -0.27340144536E+02  0.38548085433E+01  0.28573325144E+02  0.00000000000E+00 0.  1.
</event>
<event>
 7    1  0.5479172E-013  0.5052885E+02  0.7816164E-02  0.1300439E+00
        -11   -1    0    0    0    0  0.00000000000E+00  0.00000000000E+00  0.45593999997E+02  0.45594000000E+02  0.51100000000E-03 0. -1.
         11   -1    0    0    0    0 -0.00000000000E+00 -0.00000000000E+00 -0.45593999997E+02  0.45594000000E+02  0.51100000000E-03 0.  1.
    9900012    2    1    2    0    0 -0.36968955824E+02 -0.13286022644E+02  0.10485454432E+02  0.50528845471E+02  0.29999956294E+02 0.  0.
         12    1    1    2    0    0  0.36968955824E+02  0.13286022644E+02 -0.10485454432E+02  0.40659154529E+02  0.00000000000E+00 0. -1.
         11    1    3    3    0    0 -0.13229021304E+02 -0.43692302534E+01 -0.23583431251E+01  0.14130072902E+02  0.51100000000E-03 0. -1.
        -11    1    3    3    0    0 -0.17279604669E+02 -0.92342193502E+01 -0.24964637153E+01  0.19750642417E+02  0.51100000000E-03 0.  1.
         12    1    3    3    0    0 -0.64603298501E+01  0.31742696010E+00  0.15340261272E+02  0.16648130152E+02  0.00000000000E+00 0. -1.
</event>
<event>
 7    1  0.5479172E-013  0.5052886E+02  0.7816164E-02  0.1300439E+00
        -11   -1    0    0    0    0  0.00000000000E+00  0.00000000000E+00  0.45593999997E+02  0.45594000000E+02  0.51100000000E-03 0.  1.
         11   -1    0    0    0    0 -0.00000000000E+00 -0.00000000000E+00 -0.45593999997E+02  0.45594000000E+02  0.51100000000E-03 0. -1.
    9900012    2    1    2    0    0 -0.24055678797E+02 -0.31604099326E+02  0.86989191373E+01  0.50528856246E+02  0.29999989046E+02 0.  0.
         12    1    1    2    0    0  0.24055678797E+02  0.31604099326E+02 -0.86989191373E+01  0.40659143754E+02  0.00000000000E+00 0. -1.
         11    1    3    3    0    0 -0.16168995015E+02 -0.95074433437E+01  0.68671577555E+01  0.19974627271E+02  0.51100000000E-03 0. -1.
        -11    1    3    3    0    0 -0.10481704764E+02 -0.14818035244E+02 -0.64169323204E+01  0.19251423945E+02  0.51100000000E-03 0.  1.
        -12    1    3    3    0    0  0.25950209815E+01 -0.72786207390E+01  0.82486937022E+01  0.11302805030E+02  0.00000000000E+00 0.  1.
</event>
<event>
 7    1  0.5479172E-013  0.5052886E+02  0.7816164E-02  0.1300439E+00
        -11   -1    0    0    0    0  0.00000000000E+00  0.00000000000E+00  0.45593999997E+02  0.45594000000E+02  0.51100000000E-03 0.  1.
         11   -1    0    0    0    0 -0.00000000000E+00 -0.00000000000E+00 -0.45593999997E+02  0.45594000000E+02  0.51100000000E-03 0. -1.
    9900012    2    1    2    0    0  0.11614194976E+02  0.14666362325E+02  0.36099498544E+02  0.50528861988E+02  0.30000006497E+02 0.  0.
         12    1    1    2    0    0 -0.11614194976E+02 -0.14666362325E+02 -0.36099498544E+02  0.40659138012E+02  0.00000000000E+00 0. -1.
         11    1    3    3    0    0  0.36518844156E+01  0.22164041268E+01  0.19387228690E+02  0.19852288119E+02  0.51100000000E-03 0. -1.
        -11    1    3    3    0    0  0.35911889896E+01  0.63162047167E+01  0.20852269389E+02  0.22081852714E+02  0.51100000000E-03 0.  1.
         12    1    3    3    0    0  0.43711215710E+01  0.61337534819E+01 -0.41399995347E+01  0.85947211538E+01  0.00000000000E+00 0. -1.
</event>
<event>
 7    1  0.5479172E-013  0.5052886E+02  0.7816164E-02  0.1300439E+00
        -11   -1    0    0    0    0  0.00000000000E+00  0.00000000000E+00  0.45593999997E+02  0.45594000000E+02  0.51100000000E-03 0.  1.
         11   -1    0    0    0    0 -0.00000000000E+00 -0.00000000000E+00 -0.45593999997E+02  0.45594000000E+02  0.51100000000E-03 0. -1.
    9900012    2    1    2    0    0  0.14091633049E+01 -0.27996751884E+02  0.29451009512E+02  0.50528858118E+02  0.29999994735E+02 0.  0.
         12    1    1    2    0    0 -0.14091633049E+01  0.27996751884E+02 -0.29451009512E+02  0.40659141882E+02  0.00000000000E+00 0. -1.
         11    1    3    3    0    0 -0.82220585056E+01 -0.13895936310E+02  0.27608961628E+02  0.31983652925E+02  0.51100000000E-03 0. -1.
        -11    1    3    3    0    0  0.95958598430E+00  0.18988260362E+00  0.15426251039E+01  0.18266234250E+01  0.51100000000E-03 0.  1.
         12    1    3    3    0    0  0.86716358261E+01 -0.14290698178E+02  0.29942278018E+00  0.16718581767E+02  0.00000000000E+00 0. -1.
</event>
<event>
 7    1  0.5479172E-013  0.5052886E+02  0.7816164E-02  0.1300439E+00
        -11   -1    0    0    0    0  0.00000000000E+00  0.00000000000E+00  0.45593999997E+02  0.45594000000E+02  0.51100000000E-03 0. -1.
         11   -1    0    0    0    0 -0.00000000000E+00 -0.00000000000E+00 -0.45593999997E+02  0.45594000000E+02  0.51100000000E-03 0.  1.
    9900012    2    1    2    0    0 -0.41247191513E+01  0.26991424189E+02 -0.30126661387E+02  0.50528855714E+02  0.29999987427E+02 0.  0.
         12    1    1    2    0    0  0.41247191513E+01 -0.26991424189E+02  0.30126661387E+02  0.40659144286E+02  0.00000000000E+00 0. -1.
         11    1    3    3    0    0 -0.79113870242E+01  0.17904433834E+02 -0.14119292572E+02  0.24135310617E+02  0.51100000000E-03 0. -1.
        -11    1    3    3    0    0  0.74296848303E+01  0.12737397195E+02 -0.77512251732E+01  0.16659021458E+02  0.51100000000E-03 0.  1.
        -12    1    3    3    0    0 -0.36430169575E+01 -0.36504068407E+01 -0.82561436412E+01  0.97345236391E+01  0.00000000000E+00 0.  1.
</event>
<event>
 7    1  0.5479172E-013  0.5052886E+02  0.7816164E-02  0.1300439E+00
        -11   -1    0    0    0    0  0.00000000000E+00  0.00000000000E+00  0.45593999997E+02  0.45594000000E+02  0.51100000000E-03 0. -1.
         11   -1    0    0    0    0 -0.00000000000E+00 -0.00000000000E+00 -0.45593999997E+02  0.45594000000E+02  0.51100000000E-03 0.  1.
    9900012    2    1    2    0    0 -0.22508976235E+02  0.14653600495E+02 -0.30525127792E+02  0.50528862709E+02  0.30000008689E+02 0.  0.
         12    1    1    2    0    0  0.22508976235E+02 -0.14653600495E+02  0.30525127792E+02  0.40659137291E+02  0.00000000000E+00 0. -1.
         11    1    3    3    0    0  0.29713878044E+01  0.43211832537E+01 -0.12607895180E+01  0.53936407617E+01  0.51100000000E-03 0. -1.
        -11    1    3    3    0    0 -0.19824289630E+01  0.10377580121E+02 -0.11927028344E+02  0.15933555760E+02  0.51100000000E-03 0.  1.
        -12    1    3    3    0    0 -0.23497935076E+02 -0.45162880108E-01 -0.17337309930E+02  0.29201666187E+02  0.00000000000E+00 0.  1.
</event>
<event>
 7    1  0.5479172E-013  0.5052885E+02  0.7816164E-02  0.1300439E+00
        -11   -1    0    0    0    0  0.00000000000E+00  0.00000000000E+00  0.45593999997E+02  0.45594000000E+02  0.51100000000E-03 0.  1.
         11   -1    0    0    0    0 -0.00000000000E+00 -0.00000000000E+00 -0.45593999997E+02  0.45594000000E+02  0.51100000000E-03 0. -1.
    9900012    2    1    2    0    0  0.79019293492E+01  0.30615468908E+02  0.25562056679E+02  0.50528853851E+02  0.29999981766E+02 0.  0.
         12    1    1    2    0    0 -0.79019293492E+01 -0.30615468908E+02 -0.25562056679E+02  0.40659146149E+02  0.00000000000E+00 0. -1.
         11    1    3    3    0    0 -0.30196844098E+01  0.10896439268E+02  0.10765444769E+02  0.15612356772E+02  0.51100000000E-03 0. -1.
        -11    1    3    3    0    0  0.55891108214E+00  0.16732169442E+02  0.17054169718E+02  0.23898171078E+02  0.51100000000E-03 0.  1.
        -12    1    3    3    0    0  0.10362702677E+02  0.29868601981E+01 -0.22575578075E+01  0.11018326001E+02  0.00000000000E+00 0.  1.
</event>
<event>
 7    1  0.5479172E-013  0.5052888E+02  0.7816164E-02  0.1300439E+00
        -11   -1    0    0    0    0  0.00000000000E+00  0.00000000000E+00  0.45593999997E+02  0.45594000000E+02  0.51100000000E-03 0. -1.
         11   -1    0    0    0    0 -0.00000000000E+00 -0.00000000000E+00 -0.45593999997E+02  0.45594000000E+02  0.51100000000E-03 0.  1.
    9900012    2    1    2    0    0  0.37630015602E+01 -0.43902457492E+01 -0.40245867427E+02  0.50528876997E+02  0.30000052119E+02 0.  0.
         12    1    1    2    0    0 -0.37630015602E+01  0.43902457492E+01  0.40245867427E+02  0.40659123003E+02  0.00000000000E+00 0. -1.
         11    1    3    3    0    0  0.53585087314E+01  0.98266574396E+01 -0.28746627142E+02  0.30848750129E+02  0.51100000000E-03 0. -1.
        -11    1    3    3    0    0  0.10843119751E+01 -0.58777975550E+01 -0.85616117524E+01  0.10441524439E+02  0.51100000000E-03 0.  1.
        -12    1    3    3    0    0 -0.26798191463E+01 -0.83391056339E+01 -0.29376285325E+01  0.92386024281E+01  0.00000000000E+00 0.  1.
</event>
<event>
 7    1  0.5479172E-013  0.5052886E+02  0.7816164E-02  0.1300439E+00
        -11   -1    0    0    0    0  0.00000000000E+00  0.00000000000E+00  0.45593999997E+02  0.45594000000E+02  0.51100000000E-03 0. -1.
         11   -1    0    0    0    0 -0.00000000000E+00 -0.00000000000E+00 -0.45593999997E+02  0.45594000000E+02  0.51100000000E-03 0.  1.
    9900012    2    1    2    0    0  0.32380621404E+02  0.18265947186E+02 -0.16462570829E+02  0.50528859485E+02  0.29999998891E+02 0.  0.
         12    1    1    2    0    0 -0.32380621404E+02 -0.18265947186E+02  0.16462570829E+02  0.40659140515E+02  0.00000000000E+00 0. -1.
         11    1    3    3    0    0  0.10993748708E+02  0.46944977744E+01 -0.43832898930E+01  0.12732401602E+02  0.51100000000E-03 0. -1.
        -11    1    3    3    0    0  0.22647813542E+02  0.18900794311E+02 -0.13012373297E+02  0.32241050586E+02  0.51100000000E-03 0.  1.
         12    1    3    3    0    0 -0.12609408456E+01 -0.53293449000E+01  0.93309236104E+00  0.55554072968E+01  0.00000000000E+00 0. -1.
</event>
<event>
 7    1  0.5479172E-013  0.5052887E+02  0.7816164E-02  0.1300439E+00
        -11   -1    0    0    0    0  0.00000000000E+00  0.00000000000E+00  0.45593999997E+02  0.45594000000E+02  0.51100000000E-03 0.  1.
         11   -1    0    0    0    0 -0.00000000000E+00 -0.00000000000E+00 -0.45593999997E+02  0.45594000000E+02  0.51100000000E-03 0. -1.
    9900012    2    1    2    0    0 -0.28156119671E+02 -0.44218019664E+01  0.28997328497E+02  0.50528874732E+02  0.30000045237E+02 0.  0.
         12    1    1    2    0    0  0.28156119671E+02  0.44218019664E+01 -0.28997328497E+02  0.40659125268E+02  0.00000000000E+00 0. -1.
         11    1    3    3    0    0 -0.10634966540E+01 -0.43377395787E+01  0.12077245443E+02  0.12876601553E+02  0.51100000000E-03 0. -1.
        -11    1    3    3    0    0 -0.90026333641E+01 -0.36512944433E+01  0.16573170236E+02  0.19210656692E+02  0.51100000000E-03 0.  1.
         12    1    3    3    0    0 -0.18089989653E+02  0.35672320557E+01  0.34691281779E+00  0.18441616488E+02  0.00000000000E+00 0. -1.
</event>
<event>
 7    1  0.5479172E-013  0.5052886E+02  0.7816164E-02  0.1300439E+00
        -11   -1    0    0    0    0  0.00000000000E+00  0.00000000000E+00  0.45593999997E+02  0.45594000000E+02  0.51100000000E-03 0.  1.
         11   -1    0    0    0    0 -0.00000000000E+00 -0.00000000000E+00 -0.45593999997E+02  0.45594000000E+02  0.51100000000E-03 0. -1.
    9900012    2    1    2    0    0 -0.28069301442E+02 -0.17777025910E+02  0.23436240038E+02  0.50528859813E+02  0.29999999887E+02 0.  0.
         12    1    1    2    0    0  0.28069301442E+02  0.17777025910E+02 -0.23436240038E+02  0.40659140187E+02  0.00000000000E+00 0. -1.
         11    1    3    3    0    0 -0.40943789741E+01 -0.76065432231E+01 -0.15407540939E+01  0.87748140964E+01  0.51100000000E-03 0. -1.
        -11    1    3    3    0    0 -0.64057591066E+01  0.21824228330E+01 -0.21991950429E+01  0.71156994212E+01  0.51100000000E-03 0.  1.
        -12    1    3    3    0    0 -0.17569163361E+02 -0.12352905520E+02  0.27176189175E+02  0.34638346295E+02  0.00000000000E+00 0.  1.
</event>
<event>
 7    1  0.5479172E-013  0.5052885E+02  0.7816164E-02  0.1300439E+00
        -11   -1    0    0    0    0  0.00000000000E+00  0.00000000000E+00  0.45593999997E+02  0.45594000000E+02  0.51100000000E-03 0.  1.
         11   -1    0    0    0    0 -0.00000000000E+00 -0.00000000000E+00 -0.45593999997E+02  0.45594000000E+02  0.51100000000E-03 0. -1.
    9900012    2    1    2    0    0  0.28894321544E+02 -0.14674515550E+02  0.24554895651E+02  0.50528854355E+02  0.29999983298E+02 0.  0.
         12    1    1    2    0    0 -0.28894321544E+02  0.14674515550E+02 -0.24554895651E+02  0.40659145645E+02  0.00000000000E+00 0. -1.
         11    1    3    3    0    0  0.18820128133E+02 -0.47521883287E+01  0.11087260183E+01  0.19442473878E+02  0.51100000000E-03 0. -1.
        -11    1    3    3    0    0  0.71849555651E+01 -0.78944595336E+01  0.41224899913E+01  0.11442945503E+02  0.51100000000E-03 0.  1.
        -12    1    3    3    0    0  0.28892378460E+01 -0.20278676875E+01  0.19323679642E+02  0.19643434974E+02  0.00000000000E+00 0.  1.
</event>
<event>
 7    1  0.5479172E-013  0.5052886E+02  0.7816164E-02  0.1300439E+00
        -11   -1    0    0    0    0  0.00000000000E+00  0.00000000000E+00  0.45593999997E+02  0.45594000000E+02  0.51100000000E-03 0.  1.
         11   -1    0    0    0    0 -0.00000000000E+00 -0.00000000000E+00 -0.45593999997E+02  0.45594000000E+02  0.51100000000E-03 0. -1.
    9900012    2    1    2    0    0  0.12143559040E+02 -0.10767156093E+02  0.37279590796E+02  0.50528861219E+02  0.30000004161E+02 0.  0.
         12    1    1    2    0    0 -0.12143559040E+02  0.10767156093E+02 -0.37279590796E+02  0.40659138781E+02  0.00000000000E+00 0. -1.
         11    1    3    3    0    0  0.51135588983E+01 -0.11628343847E+02  0.11631357209E+02  0.17223685321E+02  0.51100000000E-03 0.  1.
        -11    1    3    3    0    0  0.87787789331E+01 -0.59038118102E+01  0.53848743207E+01  0.11870923517E+02  0.51100000000E-03 0. -1.
         12    1    3    3    0    0 -0.17487787912E+01  0.67649995643E+01  0.20263359266E+02  0.21434252381E+02  0.00000000000E+00 0. -1.
</event>
<event>
 7    1  0.5479172E-013  0.5052886E+02  0.7816164E-02  0.1300439E+00
        -11   -1    0    0    0    0  0.00000000000E+00  0.00000000000E+00  0.45593999997E+02  0.45594000000E+02  0.51100000000E-03 0.  1.
         11   -1    0    0    0    0 -0.00000000000E+00 -0.00000000000E+00 -0.45593999997E+02  0.45594000000E+02  0.51100000000E-03 0. -1.
    9900012    2    1    2    0    0  0.21887432240E+02  0.75326045724E+01  0.33427024553E+02  0.50528858443E+02  0.29999995722E+02 0.  0.
         12    1    1    2    0    0 -0.21887432240E+02 -0.75326045724E+01 -0.33427024553E+02  0.40659141557E+02  0.00000000000E+00 0. -1.
         11    1    3    3    0    0  0.13864661778E+02  0.13891712361E+02  0.17469566234E+02  0.26275354673E+02  0.51100000000E-03 0. -1.
        -11    1    3    3    0    0  0.93872286880E+01  0.21075192735E+01  0.73918586699E+01  0.12132653246E+02  0.51100000000E-03 0.  1.
         12    1    3    3    0    0 -0.13644582266E+01 -0.84666270618E+01  0.85655996494E+01  0.12120850523E+02  0.00000000000E+00 0. -1.
</event>
<event>
 7    1  0.5479172E-013  0.5052886E+02  0.7816164E-02  0.1300439E+00
        -11   -1    0    0    0    0  0.00000000000E+00  0.00000000000E+00  0.45593999997E+02  0.45594000000E+02  0.51100000000E-03 0.  1.
         11   -1    0    0    0    0 -0.00000000000E+00 -0.00000000000E+00 -0.45593999997E+02  0.45594000000E+02  0.51100000000E-03 0. -1.
    9900012    2    1    2    0    0 -0.22088053822E+02 -0.33181368301E+02 -0.80174954725E+01  0.50528861327E+02  0.30000004490E+02 0.  0.
         12    1    1    2    0    0  0.22088053822E+02  0.33181368301E+02  0.80174954725E+01  0.40659138673E+02  0.00000000000E+00 0. -1.
         11    1    3    3    0    0 -0.84306541601E+00 -0.99403603614E+01 -0.22967191411E+00  0.99786909392E+01  0.51100000000E-03 0. -1.
        -11    1    3    3    0    0  0.40630902312E+01 -0.89435633972E+01  0.17087594321E+01  0.99707516028E+01  0.51100000000E-03 0.  1.
         12    1    3    3    0    0 -0.25308078637E+02 -0.14297444542E+02 -0.94965829905E+01  0.30579418785E+02  0.00000000000E+00 0. -1.
</event>
<event>
 7    1  0.5479172E-013  0.5052886E+02  0.7816164E-02  0.1300439E+00
        -11   -1    0    0    0    0  0.00000000000E+00  0.00000000000E+00  0.45593999997E+02  0.45594000000E+02  0.51100000000E-03 0.  1.
         11   -1    0    0    0    0 -0.00000000000E+00 -0.00000000000E+00 -0.45593999997E+02  0.45594000000E+02  0.51100000000E-03 0. -1.
    9900012    2    1    2    0    0 -0.26199250888E+02  0.21301948386E+02  0.22649323931E+02  0.50528860478E+02  0.30000001910E+02 0.  0.
         12    1    1    2    0    0  0.26199250888E+02 -0.21301948386E+02 -0.22649323931E+02  0.40659139522E+02  0.00000000000E+00 0. -1.
         11    1    3    3    0    0 -0.18466780888E+02  0.73684400186E+01  0.18712258330E+02  0.27303196090E+02  0.51100000000E-03 0. -1.
        -11    1    3    3    0    0 -0.88489530746E+01  0.10384932637E+02  0.94344106191E+01  0.16587914287E+02  0.51100000000E-03 0.  1.
         12    1    3    3    0    0  0.11164830743E+01  0.35485757294E+01 -0.54973450179E+01  0.66377501014E+01  0.00000000000E+00 0. -1.
</event>
<event>
 7    1  0.5479172E-013  0.5052886E+02  0.7816164E-02  0.1300439E+00
        -11   -1    0    0    0    0  0.00000000000E+00  0.00000000000E+00  0.45593999997E+02  0.45594000000E+02  0.51100000000E-03 0.  1.
         11   -1    0    0    0    0 -0.00000000000E+00 -0.00000000000E+00 -0.45593999997E+02  0.45594000000E+02  0.51100000000E-03 0. -1.
    9900012    2    1    2    0    0 -0.14020290787E+02 -0.33284238760E+02  0.18675020388E+02  0.50528862158E+02  0.30000007014E+02 0.  0.
         12    1    1    2    0    0  0.14020290787E+02  0.33284238760E+02 -0.18675020388E+02  0.40659137842E+02  0.00000000000E+00 0. -1.
         11    1    3    3    0    0 -0.39378017917E+01 -0.22303189163E+02  0.69816120797E+01  0.23699819351E+02  0.51100000000E-03 0. -1.
        -11    1    3    3    0    0 -0.17519110441E+01  0.30053785527E+01  0.98492382469E+01  0.10445524729E+02  0.51100000000E-03 0.  1.
         12    1    3    3    0    0 -0.83305779507E+01 -0.13986428150E+02  0.18441700617E+01  0.16383518078E+02  0.00000000000E+00 0. -1.
</event>
<event>
 7    1  0.5479172E-013  0.5052895E+02  0.7816164E-02  0.1300438E+00
        -11   -1    0    0    0    0  0.00000000000E+00  0.00000000000E+00  0.45593999997E+02  0.45594000000E+02  0.51100000000E-03 0.  1.
         11   -1    0    0    0    0 -0.00000000000E+00 -0.00000000000E+00 -0.45593999997E+02  0.45594000000E+02  0.51100000000E-03 0. -1.
    9900012    2    1    2    0    0  0.60009710502E+01  0.16083446378E+02  0.36857422127E+02  0.50528948526E+02  0.30000269538E+02 0.  0.
         12    1    1    2    0    0 -0.60009710502E+01 -0.16083446378E+02 -0.36857422127E+02  0.40659051474E+02  0.00000000000E+00 0. -1.
         11    1    3    3    0    0  0.34262336810E+01  0.94704773204E+01  0.12002583764E+02  0.15668153535E+02  0.51100000000E-03 0. -1.
        -11    1    3    3    0    0  0.72817824619E+01  0.12210180831E+02  0.76011033304E+01  0.16121093134E+02  0.51100000000E-03 0.  1.
         12    1    3    3    0    0 -0.47070450927E+01 -0.55972117727E+01  0.17253735032E+02  0.18739701857E+02  0.00000000000E+00 0. -1.
</event>
<event>
 7    1  0.5479172E-013  0.5052885E+02  0.7816164E-02  0.1300439E+00
        -11   -1    0    0    0    0  0.00000000000E+00  0.00000000000E+00  0.45593999997E+02  0.45594000000E+02  0.51100000000E-03 0.  1.
         11   -1    0    0    0    0 -0.00000000000E+00 -0.00000000000E+00 -0.45593999997E+02  0.45594000000E+02  0.51100000000E-03 0. -1.
    9900012    2    1    2    0    0 -0.37572651167E+02  0.43166379913E+01  0.14927448517E+02  0.50528853446E+02  0.29999980536E+02 0.  0.
         12    1    1    2    0    0  0.37572651167E+02 -0.43166379913E+01 -0.14927448517E+02  0.40659146554E+02  0.00000000000E+00 0. -1.
         11    1    3    3    0    0 -0.40440172488E+01 -0.44739146219E+01  0.11279135566E+02  0.12790187134E+02  0.51100000000E-03 0. -1.
        -11    1    3    3    0    0 -0.29190190732E+01 -0.29235332749E+01  0.27289802725E+01  0.49512677920E+01  0.51100000000E-03 0.  1.
         12    1    3    3    0    0 -0.30609614845E+02  0.11714085888E+02  0.91933267836E+00  0.32787398520E+02  0.00000000000E+00 0. -1.
</event>
<event>
 7    1  0.5479172E-013  0.5052874E+02  0.7816164E-02  0.1300439E+00
        -11   -1    0    0    0    0  0.00000000000E+00  0.00000000000E+00  0.45593999997E+02  0.45594000000E+02  0.51100000000E-03 0.  1.
         11   -1    0    0    0    0 -0.00000000000E+00 -0.00000000000E+00 -0.45593999997E+02  0.45594000000E+02  0.51100000000E-03 0. -1.
    9900012    2    1    2    0    0  0.27143431904E+02 -0.22491145516E+02  0.20262226127E+02  0.50528741156E+02  0.29999639215E+02 0.  0.
         12    1    1    2    0    0 -0.27143431904E+02  0.22491145516E+02 -0.20262226127E+02  0.40659258844E+02  0.00000000000E+00 0. -1.
         11    1    3    3    0    0  0.17076569722E+02 -0.24073766993E+02  0.10788958418E+02  0.31425421472E+02  0.51100000000E-03 0. -1.
        -11    1    3    3    0    0  0.65016080527E+01 -0.49798196965E+01  0.80828664761E+01  0.11506617323E+02  0.51100000000E-03 0.  1.
         12    1    3    3    0    0  0.35652541298E+01  0.65624411738E+01  0.13904012332E+01  0.75967023608E+01  0.00000000000E+00 0. -1.
</event>
<event>
 7    1  0.5479172E-013  0.5052886E+02  0.7816164E-02  0.1300439E+00
        -11   -1    0    0    0    0  0.00000000000E+00  0.00000000000E+00  0.45593999997E+02  0.45594000000E+02  0.51100000000E-03 0.  1.
         11   -1    0    0    0    0 -0.00000000000E+00 -0.00000000000E+00 -0.45593999997E+02  0.45594000000E+02  0.51100000000E-03 0. -1.
    9900012    2    1    2    0    0 -0.25665254808E+02 -0.38211565214E+01  0.31302704071E+02  0.50528858056E+02  0.29999994546E+02 0.  0.
         12    1    1    2    0    0  0.25665254808E+02  0.38211565214E+01 -0.31302704071E+02  0.40659141944E+02  0.00000000000E+00 0. -1.
         11    1    3    3    0    0 -0.63262443643E+01 -0.72369019145E+01  0.76451549998E+01  0.12281795972E+02  0.51100000000E-03 0. -1.
        -11    1    3    3    0    0 -0.23559138208E+01 -0.43827344438E+01 -0.29106441642E+01  0.57645937279E+01  0.51100000000E-03 0.  1.
        -12    1    3    3    0    0 -0.16983096623E+02  0.77984798369E+01  0.26568193235E+02  0.32482468355E+02  0.00000000000E+00 0.  1.
</event>
<event>
 7    1  0.5479172E-013  0.5052887E+02  0.7816164E-02  0.1300439E+00
        -11   -1    0    0    0    0  0.00000000000E+00  0.00000000000E+00  0.45593999997E+02  0.45594000000E+02  0.51100000000E-03 0. -1.
         11   -1    0    0    0    0 -0.00000000000E+00 -0.00000000000E+00 -0.45593999997E+02  0.45594000000E+02  0.51100000000E-03 0.  1.
    9900012    2    1    2    0    0 -0.82386546282E+01 -0.38416997116E+02 -0.10460595841E+02  0.50528866182E+02  0.30000019246E+02 0.  0.
         12    1    1    2    0    0  0.82386546282E+01  0.38416997116E+02  0.10460595841E+02  0.40659133818E+02  0.00000000000E+00 0. -1.
         11    1    3    3    0    0 -0.49535511810E+01 -0.12418237405E+02  0.51579801674E+01  0.14330214556E+02  0.51100000000E-03 0. -1.
        -11    1    3    3    0    0  0.68862202004E+01 -0.12289921780E+02 -0.17323826036E+01  0.14193778769E+02  0.51100000000E-03 0.  1.
        -12    1    3    3    0    0 -0.10171323648E+02 -0.13708837932E+02 -0.13886193405E+02  0.22004872857E+02  0.00000000000E+00 0.  1.
</event>
<event>
 7    1  0.5479172E-013  0.5052886E+02  0.7816164E-02  0.1300439E+00
        -11   -1    0    0    0    0  0.00000000000E+00  0.00000000000E+00  0.45593999997E+02  0.45594000000E+02  0.51100000000E-03 0. -1.
         11   -1    0    0    0    0 -0.00000000000E+00 -0.00000000000E+00 -0.45593999997E+02  0.45594000000E+02  0.51100000000E-03 0.  1.
    9900012    2    1    2    0    0  0.23761463329E+02  0.25907048008E+02 -0.20429959384E+02  0.50528861833E+02  0.30000006028E+02 0.  0.
         12    1    1    2    0    0 -0.23761463329E+02 -0.25907048008E+02  0.20429959384E+02  0.40659138167E+02  0.00000000000E+00 0. -1.
         11    1    3    3    0    0  0.79754394903E+01  0.10066798404E+02 -0.13706541053E+02  0.18783432409E+02  0.51100000000E-03 0. -1.
        -11    1    3    3    0    0 -0.14584605606E+01  0.15764045294E+01 -0.89981631091E+01  0.92508971482E+01  0.51100000000E-03 0.  1.
         12    1    3    3    0    0  0.17244484399E+02  0.14263845075E+02  0.22747447778E+01  0.22494532276E+02  0.00000000000E+00 0. -1.
</event>
<event>
 7    1  0.5479172E-013  0.5052893E+02  0.7816164E-02  0.1300439E+00
        -11   -1    0    0    0    0  0.00000000000E+00  0.00000000000E+00  0.45593999997E+02  0.45594000000E+02  0.51100000000E-03 0.  1.
         11   -1    0    0    0    0 -0.00000000000E+00 -0.00000000000E+00 -0.45593999997E+02  0.45594000000E+02  0.51100000000E-03 0. -1.
    9900012    2    1    2    0    0  0.40032327844E+02 -0.37827178867E+01  0.60219237931E+01  0.50528932212E+02  0.30000219951E+02 0.  0.
         12    1    1    2    0    0 -0.40032327844E+02  0.37827178867E+01 -0.60219237931E+01  0.40659067788E+02  0.00000000000E+00 0. -1.
         11    1    3    3    0    0  0.64368584299E+01 -0.60509259445E+01  0.10257668129E+01  0.88937646161E+01  0.51100000000E-03 0.  1.
        -11    1    3    3    0    0  0.25901729363E+02  0.60665720489E+01 -0.64080779020E+01  0.27363595215E+02  0.51100000000E-03 0. -1.
         12    1    3    3    0    0  0.76937400507E+01 -0.37983639911E+01  0.11404234882E+02  0.14271572381E+02  0.00000000000E+00 0. -1.
</event>
<event>
 7    1  0.5479172E-013  0.5052886E+02  0.7816164E-02  0.1300439E+00
        -11   -1    0    0    0    0  0.00000000000E+00  0.00000000000E+00  0.45593999997E+02  0.45594000000E+02  0.51100000000E-03 0.  1.
         11   -1    0    0    0    0 -0.00000000000E+00 -0.00000000000E+00 -0.45593999997E+02  0.45594000000E+02  0.51100000000E-03 0. -1.
    9900012    2    1    2    0    0  0.25596829411E+02  0.96108323380E+01  0.30093189519E+02  0.50528857983E+02  0.29999994325E+02 0.  0.
         12    1    1    2    0    0 -0.25596829411E+02 -0.96108323380E+01 -0.30093189519E+02  0.40659142017E+02  0.00000000000E+00 0. -1.
         11    1    3    3    0    0  0.19396052331E+02 -0.42980270823E+01  0.15352245876E+02  0.25107196907E+02  0.51100000000E-03 0. -1.
        -11    1    3    3    0    0  0.53540608104E+01 -0.32696288552E+00  0.80392580288E+01  0.96644990458E+01  0.51100000000E-03 0.  1.
        -12    1    3    3    0    0  0.84671626934E+00  0.14235822306E+02  0.67016856144E+01  0.15757162030E+02  0.00000000000E+00 0.  1.
</event>
<event>
 7    1  0.5479172E-013  0.5052883E+02  0.7816164E-02  0.1300439E+00
        -11   -1    0    0    0    0  0.00000000000E+00  0.00000000000E+00  0.45593999997E+02  0.45594000000E+02  0.51100000000E-03 0. -1.
         11   -1    0    0    0    0 -0.00000000000E+00 -0.00000000000E+00 -0.45593999997E+02  0.45594000000E+02  0.51100000000E-03 0.  1.
    9900012    2    1    2    0    0 -0.40597109411E+02 -0.19888484611E+01  0.10426227413E+01  0.50528832855E+02  0.29999917947E+02 0.  0.
         12    1    1    2    0    0  0.40597109411E+02  0.19888484611E+01 -0.10426227413E+01  0.40659167145E+02  0.00000000000E+00 0. -1.
         11    1    3    3    0    0 -0.42437843374E+01  0.68694932302E+01  0.20954878303E+01  0.83421047854E+01  0.51100000000E-03 0. -1.
        -11    1    3    3    0    0 -0.17133744996E+02  0.42757324414E+01  0.45651727028E+01  0.18239734307E+02  0.51100000000E-03 0.  1.
         12    1    3    3    0    0 -0.19219580077E+02 -0.13134074133E+02 -0.56180377919E+01  0.23946993763E+02  0.00000000000E+00 0. -1.
</event>
<event>
 7    1  0.5479172E-013  0.5052886E+02  0.7816164E-02  0.1300439E+00
        -11   -1    0    0    0    0  0.00000000000E+00  0.00000000000E+00  0.45593999997E+02  0.45594000000E+02  0.51100000000E-03 0. -1.
         11   -1    0    0    0    0 -0.00000000000E+00 -0.00000000000E+00 -0.45593999997E+02  0.45594000000E+02  0.51100000000E-03 0.  1.
    9900012    2    1    2    0    0  0.38062298393E+02  0.80032577667E+01 -0.11848008261E+02  0.50528855966E+02  0.29999988194E+02 0.  0.
         12    1    1    2    0    0 -0.38062298393E+02 -0.80032577667E+01  0.11848008261E+02  0.40659144034E+02  0.00000000000E+00 0. -1.
         11    1    3    3    0    0  0.19869326844E+02 -0.81053281470E+01 -0.52503177864E+01  0.22091906453E+02  0.51100000000E-03 0. -1.
        -11    1    3    3    0    0  0.17226260783E+02  0.90021036878E+01 -0.12238640843E+01  0.19475106544E+02  0.51100000000E-03 0.  1.
        -12    1    3    3    0    0  0.96671076673E+00  0.71064822258E+01 -0.53738263901E+01  0.89618429691E+01  0.00000000000E+00 0.  1.
</event>
<event>
 7    1  0.5479172E-013  0.5052886E+02  0.7816164E-02  0.1300439E+00
        -11   -1    0    0    0    0  0.00000000000E+00  0.00000000000E+00  0.45593999997E+02  0.45594000000E+02  0.51100000000E-03 0.  1.
         11   -1    0    0    0    0 -0.00000000000E+00 -0.00000000000E+00 -0.45593999997E+02  0.45594000000E+02  0.51100000000E-03 0. -1.
    9900012    2    1    2    0    0  0.32158052181E+02 -0.17494241301E+02  0.17691149064E+02  0.50528861372E+02  0.30000004626E+02 0.  0.
         12    1    1    2    0    0 -0.32158052181E+02  0.17494241301E+02 -0.17691149064E+02  0.40659138628E+02  0.00000000000E+00 0. -1.
         11    1    3    3    0    0  0.16909761531E+02 -0.10017583540E+02  0.36451231420E+01  0.19989470678E+02  0.51100000000E-03 0.  1.
        -11    1    3    3    0    0  0.19123161613E+02 -0.35512027724E+01  0.52315765833E+01  0.20141393820E+02  0.51100000000E-03 0. -1.
        -12    1    3    3    0    0 -0.38748709628E+01 -0.39254549883E+01  0.88144493387E+01  0.10397996874E+02  0.00000000000E+00 0.  1.
</event>
<event>
 7    1  0.5479172E-013  0.5052885E+02  0.7816164E-02  0.1300439E+00
        -11   -1    0    0    0    0  0.00000000000E+00  0.00000000000E+00  0.45593999997E+02  0.45594000000E+02  0.51100000000E-03 0.  1.
         11   -1    0    0    0    0 -0.00000000000E+00 -0.00000000000E+00 -0.45593999997E+02  0.45594000000E+02  0.51100000000E-03 0. -1.
    9900012    2    1    2    0    0 -0.24916620743E+02  0.11099976598E+02  0.30151597673E+02  0.50528852051E+02  0.29999976294E+02 0.  0.
         12    1    1    2    0    0  0.24916620743E+02 -0.11099976598E+02 -0.30151597673E+02  0.40659147949E+02  0.00000000000E+00 0. -1.
         11    1    3    3    0    0  0.14517623429E+01  0.25080843817E+01  0.18181228899E+02  0.18410735611E+02  0.51100000000E-03 0. -1.
        -11    1    3    3    0    0 -0.36420649199E+01  0.34641752205E+01  0.64466665597E+01  0.81746349663E+01  0.51100000000E-03 0.  1.
        -12    1    3    3    0    0 -0.22726318166E+02  0.51277169958E+01  0.55237022139E+01  0.23943481474E+02  0.00000000000E+00 0.  1.
</event>
<event>
 7    1  0.5479172E-013  0.5052886E+02  0.7816164E-02  0.1300439E+00
        -11   -1    0    0    0    0  0.00000000000E+00  0.00000000000E+00  0.45593999997E+02  0.45594000000E+02  0.51100000000E-03 0.  1.
         11   -1    0    0    0    0 -0.00000000000E+00 -0.00000000000E+00 -0.45593999997E+02  0.45594000000E+02  0.51100000000E-03 0. -1.
    9900012    2    1    2    0    0 -0.87611205774E+01 -0.12781100402E+02  0.37590581011E+02  0.50528861519E+02  0.30000005074E+02 0.  0.
         12    1    1    2    0    0  0.87611205774E+01  0.12781100402E+02 -0.37590581011E+02  0.40659138481E+02  0.00000000000E+00 0. -1.
         11    1    3    3    0    0  0.45983539690E+01 -0.54751599965E+01  0.20943909583E-01  0.71500122461E+01  0.51100000000E-03 0. -1.
        -11    1    3    3    0    0 -0.11085855542E+01  0.42457026344E+01  0.11862292981E+02  0.12647883136E+02  0.51100000000E-03 0.  1.
        -12    1    3    3    0    0 -0.12250888992E+02 -0.11551643040E+02  0.25707344120E+02  0.30730966137E+02  0.00000000000E+00 0.  1.
</event>
<event>
 7    1  0.5479172E-013  0.5052886E+02  0.7816164E-02  0.1300439E+00
        -11   -1    0    0    0    0  0.00000000000E+00  0.00000000000E+00  0.45593999997E+02  0.45594000000E+02  0.51100000000E-03 0.  1.
         11   -1    0    0    0    0 -0.00000000000E+00 -0.00000000000E+00 -0.45593999997E+02  0.45594000000E+02  0.51100000000E-03 0. -1.
    9900012    2    1    2    0    0 -0.21487337630E+01 -0.12898600577E+02  0.38499026350E+02  0.50528856090E+02  0.29999988571E+02 0.  0.
         12    1    1    2    0    0  0.21487337630E+01  0.12898600577E+02 -0.38499026350E+02  0.40659143910E+02  0.00000000000E+00 0. -1.
         11    1    3    3    0    0 -0.11307512417E+02 -0.13290868181E+02  0.11774778587E+02  0.21051185836E+02  0.51100000000E-03 0. -1.
        -11    1    3    3    0    0 -0.14665799710E+01  0.10078054889E+01  0.43965538781E+01  0.47430174972E+01  0.51100000000E-03 0.  1.
         12    1    3    3    0    0  0.10625358625E+02 -0.61553788447E+00  0.22327693885E+02  0.24734652757E+02  0.00000000000E+00 0. -1.
</event>
<event>
 7    1  0.5479172E-013  0.5052886E+02  0.7816164E-02  0.1300439E+00
        -11   -1    0    0    0    0  0.00000000000E+00  0.00000000000E+00  0.45593999997E+02  0.45594000000E+02  0.51100000000E-03 0.  1.
         11   -1    0    0    0    0 -0.00000000000E+00 -0.00000000000E+00 -0.45593999997E+02  0.45594000000E+02  0.51100000000E-03 0. -1.
    9900012    2    1    2    0    0  0.15822959285E+02 -0.35480576766E+02  0.11996996886E+02  0.50528864465E+02  0.30000014028E+02 0.  0.
         12    1    1    2    0    0 -0.15822959285E+02  0.35480576766E+02 -0.11996996886E+02  0.40659135535E+02  0.00000000000E+00 0. -1.
         11    1    3    3    0    0  0.16302095855E+02 -0.15933236962E+02 -0.82208374344E+00  0.22810133522E+02  0.51100000000E-03 0.  1.
        -11    1    3    3    0    0  0.33475533012E+00 -0.49644633454E+00 -0.29281260511E+01  0.29887192117E+01  0.51100000000E-03 0. -1.
        -12    1    3    3    0    0 -0.81389189985E+00 -0.19050893469E+02  0.15747206680E+02  0.24730011731E+02  0.00000000000E+00 0.  1.
</event>
<event>
 7    1  0.5479172E-013  0.5052886E+02  0.7816164E-02  0.1300439E+00
        -11   -1    0    0    0    0  0.00000000000E+00  0.00000000000E+00  0.45593999997E+02  0.45594000000E+02  0.51100000000E-03 0. -1.
         11   -1    0    0    0    0 -0.00000000000E+00 -0.00000000000E+00 -0.45593999997E+02  0.45594000000E+02  0.51100000000E-03 0.  1.
    9900012    2    1    2    0    0 -0.23630940517E+02  0.11180796092E+02 -0.31140558298E+02  0.50528856846E+02  0.29999990868E+02 0.  0.
         12    1    1    2    0    0  0.23630940517E+02 -0.11180796092E+02  0.31140558298E+02  0.40659143154E+02  0.00000000000E+00 0. -1.
         11    1    3    3    0    0 -0.99655654467E+01  0.66698914090E+01 -0.18147711643E+02  0.21751767382E+02  0.51100000000E-03 0.  1.
        -11    1    3    3    0    0 -0.17922861826E+02  0.81923907088E+01 -0.80531953035E+01  0.21288452184E+02  0.51100000000E-03 0. -1.
         12    1    3    3    0    0  0.42574867556E+01 -0.36814860261E+01 -0.49396513513E+01  0.74886372797E+01  0.00000000000E+00 0. -1.
</event>
<event>
 7    1  0.5479172E-013  0.5052886E+02  0.7816164E-02  0.1300439E+00
        -11   -1    0    0    0    0  0.00000000000E+00  0.00000000000E+00  0.45593999997E+02  0.45594000000E+02  0.51100000000E-03 0.  1.
         11   -1    0    0    0    0 -0.00000000000E+00 -0.00000000000E+00 -0.45593999997E+02  0.45594000000E+02  0.51100000000E-03 0. -1.
    9900012    2    1    2    0    0  0.31259927561E+02 -0.18064489808E+02  0.18699102253E+02  0.50528864640E+02  0.30000014560E+02 0.  0.
         12    1    1    2    0    0 -0.31259927561E+02  0.18064489808E+02 -0.18699102253E+02  0.40659135360E+02  0.00000000000E+00 0. -1.
         11    1    3    3    0    0 -0.68897863076E+00 -0.12807220822E+02  0.83925338714E+01  0.15327564118E+02  0.51100000000E-03 0. -1.
        -11    1    3    3    0    0  0.14772266858E+01  0.92411652536E+00  0.26643621140E+01  0.31835539526E+01  0.51100000000E-03 0.  1.
        -12    1    3    3    0    0  0.30471679506E+02 -0.61813855112E+01  0.76422062671E+01  0.32017746570E+02  0.00000000000E+00 0.  1.
</event>
<event>
 7    1  0.5479172E-013  0.5052886E+02  0.7816164E-02  0.1300439E+00
        -11   -1    0    0    0    0  0.00000000000E+00  0.00000000000E+00  0.45593999997E+02  0.45594000000E+02  0.51100000000E-03 0.  1.
         11   -1    0    0    0    0 -0.00000000000E+00 -0.00000000000E+00 -0.45593999997E+02  0.45594000000E+02  0.51100000000E-03 0. -1.
    9900012    2    1    2    0    0 -0.42889902665E+00  0.18251278675E+02  0.36330052000E+02  0.50528858273E+02  0.29999995206E+02 0.  0.
         12    1    1    2    0    0  0.42889902665E+00 -0.18251278675E+02 -0.36330052000E+02  0.40659141727E+02  0.00000000000E+00 0. -1.
         11    1    3    3    0    0 -0.94759245508E+01  0.42737703858E+01  0.41581179782E+01  0.11195901249E+02  0.51100000000E-03 0. -1.
        -11    1    3    3    0    0  0.21591665704E+01  0.87616981392E+01  0.40085237925E+01  0.98740882018E+01  0.51100000000E-03 0.  1.
        -12    1    3    3    0    0  0.68878589537E+01  0.52158101503E+01  0.28163410230E+02  0.29458868822E+02  0.00000000000E+00 0.  1.
</event>
<event>
 7    1  0.5479172E-013  0.5052887E+02  0.7816164E-02  0.1300439E+00
        -11   -1    0    0    0    0  0.00000000000E+00  0.00000000000E+00  0.45593999997E+02  0.45594000000E+02  0.51100000000E-03 0. -1.
         11   -1    0    0    0    0 -0.00000000000E+00 -0.00000000000E+00 -0.45593999997E+02  0.45594000000E+02  0.51100000000E-03 0.  1.
    9900012    2    1    2    0    0  0.81250713306E+00  0.34334324878E+02 -0.21763707353E+02  0.50528868302E+02  0.30000025692E+02 0.  0.
         12    1    1    2    0    0 -0.81250713306E+00 -0.34334324878E+02  0.21763707353E+02  0.40659131698E+02  0.00000000000E+00 0. -1.
         11    1    3    3    0    0  0.87833925027E+01  0.24107147469E+01 -0.45691703025E+01  0.10190036652E+02  0.51100000000E-03 0. -1.
        -11    1    3    3    0    0 -0.43633671237E+01  0.56848917117E+01 -0.11016447874E+02  0.13142263521E+02  0.51100000000E-03 0.  1.
        -12    1    3    3    0    0 -0.36075182460E+01  0.26238718419E+02 -0.61780891764E+01  0.27196568130E+02  0.00000000000E+00 0.  1.
</event>
<event>
 7    1  0.5479172E-013  0.5052886E+02  0.7816164E-02  0.1300439E+00
        -11   -1    0    0    0    0  0.00000000000E+00  0.00000000000E+00  0.45593999997E+02  0.45594000000E+02  0.51100000000E-03 0.  1.
         11   -1    0    0    0    0 -0.00000000000E+00 -0.00000000000E+00 -0.45593999997E+02  0.45594000000E+02  0.51100000000E-03 0. -1.
    9900012    2    1    2    0    0  0.22812641621E+02 -0.28112735207E+02  0.18504685064E+02  0.50528857512E+02  0.29999992894E+02 0.  0.
         12    1    1    2    0    0 -0.22812641621E+02  0.28112735207E+02 -0.18504685064E+02  0.40659142488E+02  0.00000000000E+00 0. -1.
         11    1    3    3    0    0  0.80690357153E+01 -0.12046271407E+02  0.45684726114E+01  0.15201741165E+02  0.51100000000E-03 0. -1.
        -11    1    3    3    0    0  0.15270257738E+02 -0.15662895116E+02  0.19752456139E+02  0.29473150130E+02  0.51100000000E-03 0.  1.
         12    1    3    3    0    0 -0.52665183283E+00 -0.40356868372E+00 -0.58162436871E+01  0.58539662164E+01  0.00000000000E+00 0. -1.
</event>
<event>
 7    1  0.5479172E-013  0.5052886E+02  0.7816164E-02  0.1300439E+00
        -11   -1    0    0    0    0  0.00000000000E+00  0.00000000000E+00  0.45593999997E+02  0.45594000000E+02  0.51100000000E-03 0.  1.
         11   -1    0    0    0    0 -0.00000000000E+00 -0.00000000000E+00 -0.45593999997E+02  0.45594000000E+02  0.51100000000E-03 0. -1.
    9900012    2    1    2    0    0 -0.22040351699E+01  0.56867476844E+01  0.40199118240E+02  0.50528856163E+02  0.29999988794E+02 0.  0.
         12    1    1    2    0    0  0.22040351699E+01 -0.56867476844E+01 -0.40199118240E+02  0.40659143837E+02  0.00000000000E+00 0. -1.
         11    1    3    3    0    0 -0.68378778584E+01  0.97273969545E+01  0.27414111189E+02  0.29881638470E+02  0.51100000000E-03 0. -1.
        -11    1    3    3    0    0 -0.25402723997E+01 -0.17855870540E+01  0.12754448791E+02  0.13126967251E+02  0.51100000000E-03 0.  1.
         12    1    3    3    0    0  0.71741150881E+01 -0.22550622160E+01  0.30558259739E-01  0.75202504415E+01  0.00000000000E+00 0. -1.
</event>
<event>
 7    1  0.5479172E-013  0.5052886E+02  0.7816164E-02  0.1300439E+00
        -11   -1    0    0    0    0  0.00000000000E+00  0.00000000000E+00  0.45593999997E+02  0.45594000000E+02  0.51100000000E-03 0.  1.
         11   -1    0    0    0    0 -0.00000000000E+00 -0.00000000000E+00 -0.45593999997E+02  0.45594000000E+02  0.51100000000E-03 0. -1.
    9900012    2    1    2    0    0  0.12613297224E+02  0.19735670487E+02  0.33235133223E+02  0.50528855435E+02  0.29999986580E+02 0.  0.
         12    1    1    2    0    0 -0.12613297224E+02 -0.19735670487E+02 -0.33235133223E+02  0.40659144565E+02  0.00000000000E+00 0. -1.
         11    1    3    3    0    0  0.24660946393E+01  0.92978854982E+01  0.13149828422E+02  0.16292645129E+02  0.51100000000E-03 0. -1.
        -11    1    3    3    0    0  0.17391570023E+01  0.16764103408E+02  0.96709261170E+01  0.19431588776E+02  0.51100000000E-03 0.  1.
         12    1    3    3    0    0  0.84080455819E+01 -0.63263184196E+01  0.10414378685E+02  0.14804621530E+02  0.00000000000E+00 0. -1.
</event>
<event>
 7    1  0.5479172E-013  0.5052886E+02  0.7816164E-02  0.1300439E+00
        -11   -1    0    0    0    0  0.00000000000E+00  0.00000000000E+00  0.45593999997E+02  0.45594000000E+02  0.51100000000E-03 0.  1.
         11   -1    0    0    0    0 -0.00000000000E+00 -0.00000000000E+00 -0.45593999997E+02  0.45594000000E+02  0.51100000000E-03 0. -1.
    9900012    2    1    2    0    0 -0.21716812853E+01 -0.40294473110E+02 -0.49804509679E+01  0.50528860133E+02  0.30000000861E+02 0.  0.
         12    1    1    2    0    0  0.21716812853E+01  0.40294473110E+02  0.49804509679E+01  0.40659139867E+02  0.00000000000E+00 0. -1.
         11    1    3    3    0    0  0.22917685997E+01 -0.11040197463E+02 -0.15388033189E+01  0.11380073780E+02  0.51100000000E-03 0. -1.
        -11    1    3    3    0    0 -0.64829649287E+01 -0.33578293323E+02 -0.25455347869E+01  0.34293007514E+02  0.51100000000E-03 0.  1.
         12    1    3    3    0    0  0.20195150437E+01  0.43240176754E+01 -0.89611286200E+00  0.48557788387E+01  0.00000000000E+00 0. -1.
</event>
<event>
 7    1  0.5479172E-013  0.5052884E+02  0.7816164E-02  0.1300439E+00
        -11   -1    0    0    0    0  0.00000000000E+00  0.00000000000E+00  0.45593999997E+02  0.45594000000E+02  0.51100000000E-03 0. -1.
         11   -1    0    0    0    0 -0.00000000000E+00 -0.00000000000E+00 -0.45593999997E+02  0.45594000000E+02  0.51100000000E-03 0.  1.
    9900012    2    1    2    0    0  0.77185003361E+01 -0.37941603568E+02 -0.12410747669E+02  0.50528841296E+02  0.29999943604E+02 0.  0.
         12    1    1    2    0    0 -0.77185003361E+01  0.37941603568E+02  0.12410747669E+02  0.40659158704E+02  0.00000000000E+00 0. -1.
         11    1    3    3    0    0  0.10810815623E+02 -0.22953436240E+02 -0.14491565088E+02  0.29218819768E+02  0.51100000000E-03 0. -1.
        -11    1    3    3    0    0  0.47246939973E+01 -0.62512136050E+01 -0.31847623401E+01  0.84583164003E+01  0.51100000000E-03 0.  1.
         12    1    3    3    0    0 -0.78170092839E+01 -0.87369537235E+01  0.52655797588E+01  0.12851705128E+02  0.00000000000E+00 0. -1.
</event>
<event>
 7    1  0.5479172E-013  0.5052885E+02  0.7816164E-02  0.1300439E+00
        -11   -1    0    0    0    0  0.00000000000E+00  0.00000000000E+00  0.45593999997E+02  0.45594000000E+02  0.51100000000E-03 0. -1.
         11   -1    0    0    0    0 -0.00000000000E+00 -0.00000000000E+00 -0.45593999997E+02  0.45594000000E+02  0.51100000000E-03 0.  1.
    9900012    2    1    2    0    0  0.25411450855E+01 -0.21624697798E+01 -0.40522005311E+02  0.50528848406E+02  0.29999965216E+02 0.  0.
         12    1    1    2    0    0 -0.25411450855E+01  0.21624697798E+01  0.40522005311E+02  0.40659151594E+02  0.00000000000E+00 0. -1.
         11    1    3    3    0    0  0.10973675726E+01 -0.76992331857E+01 -0.81159928080E+01  0.11240629287E+02  0.51100000000E-03 0. -1.
        -11    1    3    3    0    0 -0.43860019697E+01 -0.65025008790E+01 -0.67226438081E+01  0.10330221246E+02  0.51100000000E-03 0.  1.
        -12    1    3    3    0    0  0.58297794826E+01  0.12039264285E+02 -0.25683368695E+02  0.28957997874E+02  0.00000000000E+00 0.  1.
</event>
<event>
 7    1  0.5479172E-013  0.5052886E+02  0.7816164E-02  0.1300439E+00
        -11   -1    0    0    0    0  0.00000000000E+00  0.00000000000E+00  0.45593999997E+02  0.45594000000E+02  0.51100000000E-03 0.  1.
         11   -1    0    0    0    0 -0.00000000000E+00 -0.00000000000E+00 -0.45593999997E+02  0.45594000000E+02  0.51100000000E-03 0. -1.
    9900012    2    1    2    0    0  0.32139427194E+01  0.35982616479E+02  0.18657105760E+02  0.50528859431E+02  0.29999998726E+02 0.  0.
         12    1    1    2    0    0 -0.32139427194E+01 -0.35982616479E+02 -0.18657105760E+02  0.40659140569E+02  0.00000000000E+00 0. -1.
         11    1    3    3    0    0  0.69455577461E+00  0.59963589120E+01 -0.28773177164E+01  0.66871283394E+01  0.51100000000E-03 0. -1.
        -11    1    3    3    0    0  0.62133122176E+01  0.23553233077E+00 -0.10524017033E+01  0.63062091464E+01  0.51100000000E-03 0.  1.
         12    1    3    3    0    0 -0.36939252728E+01  0.29750725236E+02  0.22586825180E+02  0.37535521945E+02  0.00000000000E+00 0. -1.
</event>
<event>
 7    1  0.5479172E-013  0.5052886E+02  0.7816164E-02  0.1300439E+00
        -11   -1    0    0    0    0  0.00000000000E+00  0.00000000000E+00  0.45593999997E+02  0.45594000000E+02  0.51100000000E-03 0.  1.
         11   -1    0    0    0    0 -0.00000000000E+00 -0.00000000000E+00 -0.45593999997E+02  0.45594000000E+02  0.51100000000E-03 0. -1.
    9900012    2    1    2    0    0 -0.33258721293E+01  0.23632894815E+02  0.32917930602E+02  0.50528864521E+02  0.30000014198E+02 0.  0.
         12    1    1    2    0    0  0.33258721293E+01 -0.23632894815E+02 -0.32917930602E+02  0.40659135479E+02  0.00000000000E+00 0. -1.
         11    1    3    3    0    0  0.89721669410E+01  0.85776823264E+01  0.22780143320E+02  0.25942462174E+02  0.51100000000E-03 0. -1.
        -11    1    3    3    0    0 -0.20159060815E+01  0.41425883599E+01  0.82836666345E+01  0.94786100680E+01  0.51100000000E-03 0.  1.
         12    1    3    3    0    0 -0.10282132989E+02  0.10912624129E+02  0.18541206479E+01  0.15107792279E+02  0.00000000000E+00 0. -1.
</event>
<event>
 7    1  0.5479172E-013  0.5052885E+02  0.7816164E-02  0.1300439E+00
        -11   -1    0    0    0    0  0.00000000000E+00  0.00000000000E+00  0.45593999997E+02  0.45594000000E+02  0.51100000000E-03 0.  1.
         11   -1    0    0    0    0 -0.00000000000E+00 -0.00000000000E+00 -0.45593999997E+02  0.45594000000E+02  0.51100000000E-03 0. -1.
    9900012    2    1    2    0    0  0.40424974976E+02 -0.41277548456E+01  0.13962105223E+01  0.50528851390E+02  0.29999974285E+02 0.  0.
         12    1    1    2    0    0 -0.40424974976E+02  0.41277548456E+01 -0.13962105223E+01  0.40659148610E+02  0.00000000000E+00 0. -1.
         11    1    3    3    0    0  0.28137264236E+01 -0.25549615341E+01  0.77560456632E+01  0.86371945340E+01  0.51100000000E-03 0. -1.
        -11    1    3    3    0    0  0.21844227699E+02 -0.93358771592E+01 -0.24000158605E+01  0.23876535815E+02  0.51100000000E-03 0.  1.
         12    1    3    3    0    0  0.15767020853E+02  0.77630838478E+01 -0.39598192804E+01  0.18015121041E+02  0.00000000000E+00 0. -1.
</event>
<event>
 7    1  0.5479172E-013  0.5052886E+02  0.7816164E-02  0.1300439E+00
        -11   -1    0    0    0    0  0.00000000000E+00  0.00000000000E+00  0.45593999997E+02  0.45594000000E+02  0.51100000000E-03 0. -1.
         11   -1    0    0    0    0 -0.00000000000E+00 -0.00000000000E+00 -0.45593999997E+02  0.45594000000E+02  0.51100000000E-03 0.  1.
    9900012    2    1    2    0    0  0.13192566858E+02 -0.15049063225E+02 -0.35392761698E+02  0.50528859516E+02  0.29999998986E+02 0.  0.
         12    1    1    2    0    0 -0.13192566858E+02  0.15049063225E+02  0.35392761698E+02  0.40659140484E+02  0.00000000000E+00 0. -1.
         11    1    3    3    0    0 -0.40974779431E+01 -0.56610662350E+01 -0.47656488305E+01  0.84586290525E+01  0.51100000000E-03 0. -1.
        -11    1    3    3    0    0  0.84392560389E+01 -0.66281987912E+01 -0.30986658508E+02  0.32792179974E+02  0.51100000000E-03 0.  1.
        -12    1    3    3    0    0  0.88507887625E+01 -0.27597981986E+01  0.35954564093E+00  0.92780504894E+01  0.00000000000E+00 0.  1.
</event>
<event>
 7    1  0.5479172E-013  0.5052887E+02  0.7816164E-02  0.1300439E+00
        -11   -1    0    0    0    0  0.00000000000E+00  0.00000000000E+00  0.45593999997E+02  0.45594000000E+02  0.51100000000E-03 0.  1.
         11   -1    0    0    0    0 -0.00000000000E+00 -0.00000000000E+00 -0.45593999997E+02  0.45594000000E+02  0.51100000000E-03 0. -1.
    9900012    2    1    2    0    0  0.34806632144E+02  0.19423396795E+02  0.80246444019E+01  0.50528869389E+02  0.30000028994E+02 0.  0.
         12    1    1    2    0    0 -0.34806632144E+02 -0.19423396795E+02 -0.80246444019E+01  0.40659130611E+02  0.00000000000E+00 0. -1.
         11    1    3    3    0    0  0.13644374593E+02  0.10453665996E+01 -0.43659374748E+01  0.14363953483E+02  0.51100000000E-03 0. -1.
        -11    1    3    3    0    0  0.19819886009E+02  0.52720666554E+01  0.52094889175E+01  0.21160372002E+02  0.51100000000E-03 0.  1.
         12    1    3    3    0    0  0.13423715422E+01  0.13105963540E+02  0.71810929592E+01  0.15004543904E+02  0.00000000000E+00 0. -1.
</event>
<event>
 7    1  0.5479172E-013  0.5052886E+02  0.7816164E-02  0.1300439E+00
        -11   -1    0    0    0    0  0.00000000000E+00  0.00000000000E+00  0.45593999997E+02  0.45594000000E+02  0.51100000000E-03 0. -1.
         11   -1    0    0    0    0 -0.00000000000E+00 -0.00000000000E+00 -0.45593999997E+02  0.45594000000E+02  0.51100000000E-03 0.  1.
    9900012    2    1    2    0    0 -0.26477753944E+02  0.11019639086E+02 -0.28821204977E+02  0.50528858889E+02  0.29999997080E+02 0.  0.
         12    1    1    2    0    0  0.26477753944E+02 -0.11019639086E+02  0.28821204977E+02  0.40659141111E+02  0.00000000000E+00 0. -1.
         11    1    3    3    0    0 -0.28256396520E+01  0.10824724881E+02 -0.32097270600E+01  0.11638782422E+02  0.51100000000E-03 0. -1.
        -11    1    3    3    0    0 -0.11579091938E+02  0.84253780548E+00 -0.12289755423E+01  0.11674571564E+02  0.51100000000E-03 0.  1.
         12    1    3    3    0    0 -0.12073022354E+02 -0.64762360116E+00 -0.24382502375E+02  0.27215504904E+02  0.00000000000E+00 0. -1.
</event>
<event>
 7    1  0.5479172E-013  0.5052884E+02  0.7816164E-02  0.1300439E+00
        -11   -1    0    0    0    0  0.00000000000E+00  0.00000000000E+00  0.45593999997E+02  0.45594000000E+02  0.51100000000E-03 0.  1.
         11   -1    0    0    0    0 -0.00000000000E+00 -0.00000000000E+00 -0.45593999997E+02  0.45594000000E+02  0.51100000000E-03 0. -1.
    9900012    2    1    2    0    0 -0.37881324568E+02 -0.47421891454E+01 -0.13988702434E+02  0.50528844762E+02  0.29999954139E+02 0.  0.
         12    1    1    2    0    0  0.37881324568E+02  0.47421891454E+01  0.13988702434E+02  0.40659155238E+02  0.00000000000E+00 0. -1.
         11    1    3    3    0    0 -0.12678639314E+02 -0.89418211580E+01 -0.14906783393E+02  0.21515488650E+02  0.51100000000E-03 0. -1.
        -11    1    3    3    0    0 -0.36241107905E+01  0.61686737105E+01  0.16127094509E+01  0.73339993457E+01  0.51100000000E-03 0.  1.
        -12    1    3    3    0    0 -0.21578574463E+02 -0.19690416979E+01 -0.69462849194E+00  0.21679356766E+02  0.00000000000E+00 0.  1.
</event>
<event>
 7    1  0.5479172E-013  0.5052888E+02  0.7816164E-02  0.1300439E+00
        -11   -1    0    0    0    0  0.00000000000E+00  0.00000000000E+00  0.45593999997E+02  0.45594000000E+02  0.51100000000E-03 0. -1.
         11   -1    0    0    0    0 -0.00000000000E+00 -0.00000000000E+00 -0.45593999997E+02  0.45594000000E+02  0.51100000000E-03 0.  1.
    9900012    2    1    2    0    0 -0.21370259865E+01  0.36389204770E+02  0.18011754658E+02  0.50528875444E+02  0.30000047398E+02 0.  0.
         12    1    1    2    0    0  0.21370259865E+01 -0.36389204770E+02 -0.18011754658E+02  0.40659124556E+02  0.00000000000E+00 0. -1.
         11    1    3    3    0    0  0.80846053706E+01  0.22764129514E+02  0.69888779859E+01  0.25147780266E+02  0.51100000000E-03 0. -1.
        -11    1    3    3    0    0  0.84610544212E+00 -0.12719985548E+01  0.59482616590E+01  0.61413102647E+01  0.51100000000E-03 0.  1.
        -12    1    3    3    0    0 -0.11067736799E+02  0.14897073811E+02  0.50746150130E+01  0.19239784913E+02  0.00000000000E+00 0.  1.
</event>
<event>
 7    1  0.5479172E-013  0.5052887E+02  0.7816164E-02  0.1300439E+00
        -11   -1    0    0    0    0  0.00000000000E+00  0.00000000000E+00  0.45593999997E+02  0.45594000000E+02  0.51100000000E-03 0.  1.
         11   -1    0    0    0    0 -0.00000000000E+00 -0.00000000000E+00 -0.45593999997E+02  0.45594000000E+02  0.51100000000E-03 0. -1.
    9900012    2    1    2    0    0  0.33643736153E+02  0.10647656343E+02  0.20196327676E+02  0.50528865485E+02  0.30000017127E+02 0.  0.
         12    1    1    2    0    0 -0.33643736153E+02 -0.10647656343E+02 -0.20196327676E+02  0.40659134515E+02  0.00000000000E+00 0. -1.
         11    1    3    3    0    0  0.54513991629E+01  0.16615077889E+01  0.91999707231E+01  0.10822098804E+02  0.51100000000E-03 0. -1.
        -11    1    3    3    0    0  0.15918722928E+02 -0.36025066427E+01  0.14438671335E+02  0.21791260265E+02  0.51100000000E-03 0.  1.
         12    1    3    3    0    0  0.12273614062E+02  0.12588655196E+02 -0.34423143817E+01  0.17915506415E+02  0.00000000000E+00 0. -1.
</event>
<event>
 7    1  0.5479172E-013  0.5052886E+02  0.7816164E-02  0.1300439E+00
        -11   -1    0    0    0    0  0.00000000000E+00  0.00000000000E+00  0.45593999997E+02  0.45594000000E+02  0.51100000000E-03 0.  1.
         11   -1    0    0    0    0 -0.00000000000E+00 -0.00000000000E+00 -0.45593999997E+02  0.45594000000E+02  0.51100000000E-03 0. -1.
    9900012    2    1    2    0    0 -0.23806602255E+02  0.29888991902E+02  0.13894580125E+02  0.50528861978E+02  0.30000006468E+02 0.  0.
         12    1    1    2    0    0  0.23806602255E+02 -0.29888991902E+02 -0.13894580125E+02  0.40659138022E+02  0.00000000000E+00 0. -1.
         11    1    3    3    0    0 -0.13248874300E+02  0.24925788360E+02 -0.35850361973E+01  0.28454877972E+02  0.51100000000E-03 0. -1.
        -11    1    3    3    0    0 -0.88723629636E+01  0.63825557859E+01  0.12353596457E+02  0.16494459330E+02  0.51100000000E-03 0.  1.
        -12    1    3    3    0    0 -0.16853649916E+01 -0.14193522439E+01  0.51260198659E+01  0.55795246762E+01  0.00000000000E+00 0.  1.
</event>
<event>
 7    1  0.5479172E-013  0.5052886E+02  0.7816164E-02  0.1300439E+00
        -11   -1    0    0    0    0  0.00000000000E+00  0.00000000000E+00  0.45593999997E+02  0.45594000000E+02  0.51100000000E-03 0. -1.
         11   -1    0    0    0    0 -0.00000000000E+00 -0.00000000000E+00 -0.45593999997E+02  0.45594000000E+02  0.51100000000E-03 0.  1.
    9900012    2    1    2    0    0  0.13068525334E+02  0.15054143703E+02 -0.35436597210E+02  0.50528855655E+02  0.29999987250E+02 0.  0.
         12    1    1    2    0    0 -0.13068525334E+02 -0.15054143703E+02  0.35436597210E+02  0.40659144345E+02  0.00000000000E+00 0. -1.
         11    1    3    3    0    0  0.31329111265E+00  0.12316128688E+02 -0.44161650380E+01  0.13087692351E+02  0.51100000000E-03 0. -1.
        -11    1    3    3    0    0 -0.38204490860E+01 -0.86221774251E+00 -0.72355871518E+01  0.82275739041E+01  0.51100000000E-03 0.  1.
        -12    1    3    3    0    0  0.16575683307E+02  0.36002327577E+01 -0.23784845020E+02  0.29213589400E+02  0.00000000000E+00 0.  1.
</event>
<event>
 7    1  0.5479172E-013  0.5052890E+02  0.7816164E-02  0.1300439E+00
        -11   -1    0    0    0    0  0.00000000000E+00  0.00000000000E+00  0.45593999997E+02  0.45594000000E+02  0.51100000000E-03 0.  1.
         11   -1    0    0    0    0 -0.00000000000E+00 -0.00000000000E+00 -0.45593999997E+02  0.45594000000E+02  0.51100000000E-03 0. -1.
    9900012    2    1    2    0    0  0.19667346483E+02 -0.31477325922E+02  0.16599279068E+02  0.50528897323E+02  0.30000113904E+02 0.  0.
         12    1    1    2    0    0 -0.19667346483E+02  0.31477325922E+02 -0.16599279068E+02  0.40659102677E+02  0.00000000000E+00 0. -1.
         11    1    3    3    0    0 -0.22263691269E+01  0.20872766005E+01  0.13545628557E+01  0.33389045939E+01  0.51100000000E-03 0. -1.
        -11    1    3    3    0    0  0.35121790748E+01 -0.15425433227E+02  0.14335878197E+02  0.21349398025E+02  0.51100000000E-03 0.  1.
        -12    1    3    3    0    0  0.18381536536E+02 -0.18139169295E+02  0.90883801530E+00  0.25840594704E+02  0.00000000000E+00 0.  1.
</event>
<event>
 7    1  0.5479172E-013  0.5052885E+02  0.7816164E-02  0.1300439E+00
        -11   -1    0    0    0    0  0.00000000000E+00  0.00000000000E+00  0.45593999997E+02  0.45594000000E+02  0.51100000000E-03 0. -1.
         11   -1    0    0    0    0 -0.00000000000E+00 -0.00000000000E+00 -0.45593999997E+02  0.45594000000E+02  0.51100000000E-03 0.  1.
    9900012    2    1    2    0    0 -0.92403277468E+01  0.43222635417E+01 -0.39358615134E+02  0.50528853375E+02  0.29999980319E+02 0.  0.
         12    1    1    2    0    0  0.92403277468E+01 -0.43222635417E+01  0.39358615134E+02  0.40659146625E+02  0.00000000000E+00 0. -1.
         11    1    3    3    0    0 -0.71919943250E+01  0.89146554965E+01 -0.68785015933E+01  0.13360750332E+02  0.51100000000E-03 0. -1.
        -11    1    3    3    0    0 -0.54172692511E+01  0.49713146398E+01 -0.92111027721E+01  0.11785804594E+02  0.51100000000E-03 0.  1.
         12    1    3    3    0    0  0.33689358293E+01 -0.95637065946E+01 -0.23269010769E+02  0.25382298450E+02  0.00000000000E+00 0. -1.
</event>
<event>
 7    1  0.5479172E-013  0.5052896E+02  0.7816164E-02  0.1300438E+00
        -11   -1    0    0    0    0  0.00000000000E+00  0.00000000000E+00  0.45593999997E+02  0.45594000000E+02  0.51100000000E-03 0. -1.
         11   -1    0    0    0    0 -0.00000000000E+00 -0.00000000000E+00 -0.45593999997E+02  0.45594000000E+02  0.51100000000E-03 0.  1.
    9900012    2    1    2    0    0  0.19791591989E+02 -0.23315822125E+02 -0.26792218489E+02  0.50528958614E+02  0.30000300203E+02 0.  0.
         12    1    1    2    0    0 -0.19791591989E+02  0.23315822125E+02  0.26792218489E+02  0.40659041386E+02  0.00000000000E+00 0. -1.
         11    1    3    3    0    0  0.15719045406E+02 -0.12204655144E+02 -0.21850729270E+02  0.29554971926E+02  0.51100000000E-03 0.  1.
        -11    1    3    3    0    0  0.88951754047E+01 -0.67454371773E+01 -0.80509736952E+01  0.13763838342E+02  0.51100000000E-03 0. -1.
         12    1    3    3    0    0 -0.48226288217E+01 -0.43657298043E+01  0.31094844762E+01  0.72101483469E+01  0.00000000000E+00 0. -1.
</event>
<event>
 7    1  0.5479172E-013  0.5052886E+02  0.7816164E-02  0.1300439E+00
        -11   -1    0    0    0    0  0.00000000000E+00  0.00000000000E+00  0.45593999997E+02  0.45594000000E+02  0.51100000000E-03 0. -1.
         11   -1    0    0    0    0 -0.00000000000E+00 -0.00000000000E+00 -0.45593999997E+02  0.45594000000E+02  0.51100000000E-03 0.  1.
    9900012    2    1    2    0    0 -0.14219417936E+02 -0.34927759644E+02 -0.15199520219E+02  0.50528860128E+02  0.30000000846E+02 0.  0.
         12    1    1    2    0    0  0.14219417936E+02  0.34927759644E+02  0.15199520219E+02  0.40659139872E+02  0.00000000000E+00 0. -1.
         11    1    3    3    0    0 -0.20083118422E+00  0.42763135756E+01  0.20504059913E+01  0.47467205471E+01  0.51100000000E-03 0. -1.
        -11    1    3    3    0    0 -0.85755290194E+01 -0.13324664880E+02 -0.48315790410E+01  0.16565945443E+02  0.51100000000E-03 0.  1.
        -12    1    3    3    0    0 -0.54430577324E+01 -0.25879408340E+02 -0.12418347170E+02  0.29216194138E+02  0.00000000000E+00 0.  1.
</event>
<event>
 7    1  0.5479172E-013  0.5052887E+02  0.7816164E-02  0.1300439E+00
        -11   -1    0    0    0    0  0.00000000000E+00  0.00000000000E+00  0.45593999997E+02  0.45594000000E+02  0.51100000000E-03 0.  1.
         11   -1    0    0    0    0 -0.00000000000E+00 -0.00000000000E+00 -0.45593999997E+02  0.45594000000E+02  0.51100000000E-03 0. -1.
    9900012    2    1    2    0    0 -0.12459996999E+02  0.28834020059E+02  0.25816912792E+02  0.50528865428E+02  0.30000016956E+02 0.  0.
         12    1    1    2    0    0  0.12459996999E+02 -0.28834020059E+02 -0.25816912792E+02  0.40659134572E+02  0.00000000000E+00 0. -1.
         11    1    3    3    0    0 -0.10444287412E+02  0.23169707057E+02  0.40895985676E+01  0.25741858545E+02  0.51100000000E-03 0. -1.
        -11    1    3    3    0    0  0.16250792355E+01  0.52240704663E+01  0.42464824447E+01  0.69256341351E+01  0.51100000000E-03 0.  1.
        -12    1    3    3    0    0 -0.36407888231E+01  0.44024253622E+00  0.17480831780E+02  0.17861372748E+02  0.00000000000E+00 0.  1.
</event>
<event>
 7    1  0.5479172E-013  0.5052886E+02  0.7816164E-02  0.1300439E+00
        -11   -1    0    0    0    0  0.00000000000E+00  0.00000000000E+00  0.45593999997E+02  0.45594000000E+02  0.51100000000E-03 0. -1.
         11   -1    0    0    0    0 -0.00000000000E+00 -0.00000000000E+00 -0.45593999997E+02  0.45594000000E+02  0.51100000000E-03 0.  1.
    9900012    2    1    2    0    0  0.37879385283E+01  0.38234605444E+02 -0.13301571787E+02  0.50528863957E+02  0.30000012484E+02 0.  0.
         12    1    1    2    0    0 -0.37879385283E+01 -0.38234605444E+02  0.13301571787E+02  0.40659136043E+02  0.00000000000E+00 0. -1.
         11    1    3    3    0    0  0.48563816372E+01  0.63574039890E+01  0.47329943602E+01  0.92952818118E+01  0.51100000000E-03 0. -1.
        -11    1    3    3    0    0  0.29366750247E+00  0.15402525291E+02  0.16900989849E+01  0.15497756638E+02  0.51100000000E-03 0.  1.
        -12    1    3    3    0    0 -0.13621106114E+01  0.16474676163E+02 -0.19724665132E+02  0.25735825508E+02  0.00000000000E+00 0.  1.
</event>
<event>
 7    1  0.5479172E-013  0.5052886E+02  0.7816164E-02  0.1300439E+00
        -11   -1    0    0    0    0  0.00000000000E+00  0.00000000000E+00  0.45593999997E+02  0.45594000000E+02  0.51100000000E-03 0. -1.
         11   -1    0    0    0    0 -0.00000000000E+00 -0.00000000000E+00 -0.45593999997E+02  0.45594000000E+02  0.51100000000E-03 0.  1.
    9900012    2    1    2    0    0 -0.10626043620E+02 -0.24141226961E+01 -0.39171737660E+02  0.50528858067E+02  0.29999994580E+02 0.  0.
         12    1    1    2    0    0  0.10626043620E+02  0.24141226961E+01  0.39171737660E+02  0.40659141933E+02  0.00000000000E+00 0. -1.
         11    1    3    3    0    0  0.60606695363E+01  0.16286440685E+01 -0.62423365230E+01  0.88516078911E+01  0.51100000000E-03 0. -1.
        -11    1    3    3    0    0 -0.11576194776E+02  0.27434004980E+00 -0.33015034862E+02  0.34986798584E+02  0.51100000000E-03 0.  1.
         12    1    3    3    0    0 -0.51105183806E+01 -0.43171068144E+01  0.85633724799E-01  0.66904515916E+01  0.00000000000E+00 0. -1.
</event>
<event>
 7    1  0.5479172E-013  0.5052886E+02  0.7816164E-02  0.1300439E+00
        -11   -1    0    0    0    0  0.00000000000E+00  0.00000000000E+00  0.45593999997E+02  0.45594000000E+02  0.51100000000E-03 0.  1.
         11   -1    0    0    0    0 -0.00000000000E+00 -0.00000000000E+00 -0.45593999997E+02  0.45594000000E+02  0.51100000000E-03 0. -1.
    9900012    2    1    2    0    0 -0.34967533208E+02  0.11051724613E+02  0.17558387669E+02  0.50528856217E+02  0.29999988958E+02 0.  0.
         12    1    1    2    0    0  0.34967533208E+02 -0.11051724613E+02 -0.17558387669E+02  0.40659143783E+02  0.00000000000E+00 0. -1.
         11    1    3    3    0    0  0.59320430523E+00  0.48864891808E+00 -0.12531448081E+01  0.14700480550E+01  0.51100000000E-03 0. -1.
        -11    1    3    3    0    0 -0.24836810997E+01 -0.62972492754E+01 -0.12120341766E+01  0.68769940633E+01  0.51100000000E-03 0.  1.
        -12    1    3    3    0    0 -0.33077056414E+02  0.16860324971E+02  0.20023566654E+02  0.42181814099E+02  0.00000000000E+00 0.  1.
</event>
<event>
 7    1  0.5479172E-013  0.5052886E+02  0.7816164E-02  0.1300439E+00
        -11   -1    0    0    0    0  0.00000000000E+00  0.00000000000E+00  0.45593999997E+02  0.45594000000E+02  0.51100000000E-03 0.  1.
         11   -1    0    0    0    0 -0.00000000000E+00 -0.00000000000E+00 -0.45593999997E+02  0.45594000000E+02  0.51100000000E-03 0. -1.
    9900012    2    1    2    0    0  0.23765754649E-01  0.25086455692E+02  0.31997416214E+02  0.50528862425E+02  0.30000007826E+02 0.  0.
         12    1    1    2    0    0 -0.23765754649E-01 -0.25086455692E+02 -0.31997416214E+02  0.40659137575E+02  0.00000000000E+00 0. -1.
         11    1    3    3    0    0 -0.25982095668E+01 -0.29532319024E+01 -0.29552728067E+00  0.39445669290E+01  0.51100000000E-03 0. -1.
        -11    1    3    3    0    0 -0.55475117656E+01  0.14359418993E+01  0.60393552068E+01  0.83253004452E+01  0.51100000000E-03 0.  1.
        -12    1    3    3    0    0  0.81694870870E+01  0.26603745695E+02  0.26253588288E+02  0.38258995050E+02  0.00000000000E+00 0.  1.
</event>
<event>
 7    1  0.5479172E-013  0.5052886E+02  0.7816164E-02  0.1300439E+00
        -11   -1    0    0    0    0  0.00000000000E+00  0.00000000000E+00  0.45593999997E+02  0.45594000000E+02  0.51100000000E-03 0.  1.
         11   -1    0    0    0    0 -0.00000000000E+00 -0.00000000000E+00 -0.45593999997E+02  0.45594000000E+02  0.51100000000E-03 0. -1.
    9900012    2    1    2    0    0  0.12593751140E+02 -0.50006911266E+00  0.38656345637E+02  0.50528859639E+02  0.29999999358E+02 0.  0.
         12    1    1    2    0    0 -0.12593751140E+02  0.50006911266E+00 -0.38656345637E+02  0.40659140361E+02  0.00000000000E+00 0. -1.
         11    1    3    3    0    0  0.12292610258E+00  0.47858291572E+01  0.41213678841E+01  0.63170360966E+01  0.51100000000E-03 0. -1.
        -11    1    3    3    0    0  0.13951195088E+02  0.48015348359E+01  0.10515602546E+02  0.18118180878E+02  0.51100000000E-03 0.  1.
        -12    1    3    3    0    0 -0.14803700508E+01 -0.10087433106E+02  0.24019375207E+02  0.26093642664E+02  0.00000000000E+00 0.  1.
</event>
<event>
 7    1  0.5479172E-013  0.5052886E+02  0.7816164E-02  0.1300439E+00
        -11   -1    0    0    0    0  0.00000000000E+00  0.00000000000E+00  0.45593999997E+02  0.45594000000E+02  0.51100000000E-03 0.  1.
         11   -1    0    0    0    0 -0.00000000000E+00 -0.00000000000E+00 -0.45593999997E+02  0.45594000000E+02  0.51100000000E-03 0. -1.
    9900012    2    1    2    0    0 -0.15355479860E+02 -0.35602660864E+02  0.12240323874E+02  0.50528858950E+02  0.29999997266E+02 0.  0.
         12    1    1    2    0    0  0.15355479860E+02  0.35602660864E+02 -0.12240323874E+02  0.40659141050E+02  0.00000000000E+00 0. -1.
         11    1    3    3    0    0  0.36020920835E+01 -0.43403288870E+01  0.11314251075E+02  0.12642222901E+02  0.51100000000E-03 0. -1.
        -11    1    3    3    0    0 -0.13385145855E+02 -0.14984263133E+02  0.37845061795E+01  0.20445360316E+02  0.51100000000E-03 0.  1.
        -12    1    3    3    0    0 -0.55724260885E+01 -0.16278068845E+02 -0.28584333798E+01  0.17441275733E+02  0.00000000000E+00 0.  1.
</event>
<event>
 7    1  0.5479172E-013  0.5052887E+02  0.7816164E-02  0.1300439E+00
        -11   -1    0    0    0    0  0.00000000000E+00  0.00000000000E+00  0.45593999997E+02  0.45594000000E+02  0.51100000000E-03 0.  1.
         11   -1    0    0    0    0 -0.00000000000E+00 -0.00000000000E+00 -0.45593999997E+02  0.45594000000E+02  0.51100000000E-03 0. -1.
    9900012    2    1    2    0    0 -0.29241453395E+02 -0.20430468490E+02  0.19511478862E+02  0.50528874988E+02  0.30000046012E+02 0.  0.
         12    1    1    2    0    0  0.29241453395E+02  0.20430468490E+02 -0.19511478862E+02  0.40659125012E+02  0.00000000000E+00 0. -1.
         11    1    3    3    0    0  0.15712695148E+01 -0.37952710541E+01  0.90669170938E+01  0.99539919685E+01  0.51100000000E-03 0. -1.
        -11    1    3    3    0    0 -0.44279832514E+00 -0.52982583227E+01  0.57303667799E+01  0.78169505118E+01  0.51100000000E-03 0.  1.
        -12    1    3    3    0    0 -0.30369924585E+02 -0.11336939114E+02  0.47141949879E+01  0.32757932507E+02  0.00000000000E+00 0.  1.
</event>
<event>
 7    1  0.5479172E-013  0.5052886E+02  0.7816164E-02  0.1300439E+00
        -11   -1    0    0    0    0  0.00000000000E+00  0.00000000000E+00  0.45593999997E+02  0.45594000000E+02  0.51100000000E-03 0.  1.
         11   -1    0    0    0    0 -0.00000000000E+00 -0.00000000000E+00 -0.45593999997E+02  0.45594000000E+02  0.51100000000E-03 0. -1.
    9900012    2    1    2    0    0 -0.11059485511E+02 -0.13953976726E+02  0.36553245713E+02  0.50528862548E+02  0.30000008200E+02 0.  0.
         12    1    1    2    0    0  0.11059485511E+02  0.13953976726E+02 -0.36553245713E+02  0.40659137452E+02  0.00000000000E+00 0. -1.
         11    1    3    3    0    0 -0.25279628613E+01 -0.96232236996E+00  0.14800747948E+01  0.30833881090E+01  0.51100000000E-03 0. -1.
        -11    1    3    3    0    0 -0.15253270476E+02 -0.11022325207E+02  0.35758002681E+02  0.40407779810E+02  0.51100000000E-03 0.  1.
         12    1    3    3    0    0  0.67217478264E+01 -0.19693291493E+01 -0.68483176307E+00  0.70376946284E+01  0.00000000000E+00 0. -1.
</event>
<event>
 7    1  0.5479172E-013  0.5052886E+02  0.7816164E-02  0.1300439E+00
        -11   -1    0    0    0    0  0.00000000000E+00  0.00000000000E+00  0.45593999997E+02  0.45594000000E+02  0.51100000000E-03 0.  1.
         11   -1    0    0    0    0 -0.00000000000E+00 -0.00000000000E+00 -0.45593999997E+02  0.45594000000E+02  0.51100000000E-03 0. -1.
    9900012    2    1    2    0    0  0.39396071543E+02 -0.69982286507E+01  0.72207899163E+01  0.50528862475E+02  0.30000007979E+02 0.  0.
         12    1    1    2    0    0 -0.39396071543E+02  0.69982286507E+01 -0.72207899163E+01  0.40659137525E+02  0.00000000000E+00 0. -1.
         11    1    3    3    0    0  0.49068396193E+00 -0.24900525506E+01  0.36250420472E+01  0.44251624332E+01  0.51100000000E-03 0. -1.
        -11    1    3    3    0    0  0.25333095108E+01 -0.29010716161E+01 -0.71689688567E+01  0.81380580195E+01  0.51100000000E-03 0.  1.
        -12    1    3    3    0    0  0.36372078070E+02 -0.16071044840E+01  0.10764716726E+02  0.37965642022E+02  0.00000000000E+00 0.  1.
</event>
<event>
 7    1  0.5479172E-013  0.5052894E+02  0.7816164E-02  0.1300439E+00
        -11   -1    0    0    0    0  0.00000000000E+00  0.00000000000E+00  0.45593999997E+02  0.45594000000E+02  0.51100000000E-03 0. -1.
         11   -1    0    0    0    0 -0.00000000000E+00 -0.00000000000E+00 -0.45593999997E+02  0.45594000000E+02  0.51100000000E-03 0.  1.
    9900012    2    1    2    0    0  0.14038578624E+02 -0.72311604270E+01 -0.37467155161E+02  0.50528940902E+02  0.30000246364E+02 0.  0.
         12    1    1    2    0    0 -0.14038578624E+02  0.72311604270E+01  0.37467155161E+02  0.40659059098E+02  0.00000000000E+00 0. -1.
         11    1    3    3    0    0  0.16832540060E+01 -0.11635289997E+02 -0.13958265406E+02  0.18249561386E+02  0.51100000000E-03 0. -1.
        -11    1    3    3    0    0 -0.32436900934E+01 -0.30027376301E+01 -0.76426779914E+01  0.88288439696E+01  0.51100000000E-03 0.  1.
        -12    1    3    3    0    0  0.15599014711E+02  0.74068672001E+01 -0.15866211763E+02  0.23450535546E+02  0.00000000000E+00 0.  1.
</event>
<event>
 7    1  0.5479172E-013  0.5052886E+02  0.7816164E-02  0.1300439E+00
        -11   -1    0    0    0    0  0.00000000000E+00  0.00000000000E+00  0.45593999997E+02  0.45594000000E+02  0.51100000000E-03 0.  1.
         11   -1    0    0    0    0 -0.00000000000E+00 -0.00000000000E+00 -0.45593999997E+02  0.45594000000E+02  0.51100000000E-03 0. -1.
    9900012    2    1    2    0    0 -0.88114553901E+01 -0.11230828261E+02  0.38070887611E+02  0.50528859171E+02  0.29999997935E+02 0.  0.
         12    1    1    2    0    0  0.88114553901E+01  0.11230828261E+02 -0.38070887611E+02  0.40659140829E+02  0.00000000000E+00 0. -1.
         11    1    3    3    0    0  0.13956060442E+01  0.18753405923E+01  0.16124362300E+01  0.28398185549E+01  0.51100000000E-03 0. -1.
        -11    1    3    3    0    0 -0.12281846617E+02  0.41731165616E+01  0.19264662718E+02  0.23224682733E+02  0.51100000000E-03 0.  1.
         12    1    3    3    0    0  0.20747851831E+01 -0.17279285415E+02  0.17193788663E+02  0.24464357882E+02  0.00000000000E+00 0. -1.
</event>
<event>
 7    1  0.5479172E-013  0.5052885E+02  0.7816164E-02  0.1300439E+00
        -11   -1    0    0    0    0  0.00000000000E+00  0.00000000000E+00  0.45593999997E+02  0.45594000000E+02  0.51100000000E-03 0.  1.
         11   -1    0    0    0    0 -0.00000000000E+00 -0.00000000000E+00 -0.45593999997E+02  0.45594000000E+02  0.51100000000E-03 0. -1.
    9900012    2    1    2    0    0  0.16321512454E+02 -0.20012489444E+02  0.31405017012E+02  0.50528848557E+02  0.29999965675E+02 0.  0.
         12    1    1    2    0    0 -0.16321512454E+02  0.20012489444E+02 -0.31405017012E+02  0.40659151443E+02  0.00000000000E+00 0. -1.
         11    1    3    3    0    0  0.15353672537E+01  0.26636910397E+00  0.14300690681E+02  0.14385341822E+02  0.51100000000E-03 0. -1.
        -11    1    3    3    0    0 -0.36949309760E+01 -0.97330040440E+01  0.72999988804E+01  0.12715103875E+02  0.51100000000E-03 0.  1.
         12    1    3    3    0    0  0.18481076176E+02 -0.10545854504E+02  0.98043274502E+01  0.23428402861E+02  0.00000000000E+00 0. -1.
</event>
<event>
 7    1  0.5479172E-013  0.5052886E+02  0.7816164E-02  0.1300439E+00
        -11   -1    0    0    0    0  0.00000000000E+00  0.00000000000E+00  0.45593999997E+02  0.45594000000E+02  0.51100000000E-03 0. -1.
         11   -1    0    0    0    0 -0.00000000000E+00 -0.00000000000E+00 -0.45593999997E+02  0.45594000000E+02  0.51100000000E-03 0.  1.
    9900012    2    1    2    0    0  0.28934922510E+02  0.23692951974E+02  0.15955563779E+02  0.50528859215E+02  0.29999998069E+02 0.  0.
         12    1    1    2    0    0 -0.28934922510E+02 -0.23692951974E+02 -0.15955563779E+02  0.40659140785E+02  0.00000000000E+00 0. -1.
         11    1    3    3    0    0  0.75879501949E+01 -0.22505897018E+01  0.11030683196E+02  0.13576380748E+02  0.51100000000E-03 0. -1.
        -11    1    3    3    0    0  0.62993267005E+01  0.63216144785E+01  0.80621015332E+01  0.12026712264E+02  0.51100000000E-03 0.  1.
        -12    1    3    3    0    0  0.15047645615E+02  0.19621927198E+02 -0.31372209509E+01  0.24925766203E+02  0.00000000000E+00 0.  1.
</event>
<event>
 7    1  0.5479172E-013  0.5052886E+02  0.7816164E-02  0.1300439E+00
        -11   -1    0    0    0    0  0.00000000000E+00  0.00000000000E+00  0.45593999997E+02  0.45594000000E+02  0.51100000000E-03 0. -1.
         11   -1    0    0    0    0 -0.00000000000E+00 -0.00000000000E+00 -0.45593999997E+02  0.45594000000E+02  0.51100000000E-03 0.  1.
    9900012    2    1    2    0    0  0.17214722411E+02  0.10216374594E+02 -0.35389891151E+02  0.50528863595E+02  0.30000011383E+02 0.  0.
         12    1    1    2    0    0 -0.17214722411E+02 -0.10216374594E+02  0.35389891151E+02  0.40659136405E+02  0.00000000000E+00 0. -1.
         11    1    3    3    0    0  0.49776965315E+01 -0.69499206519E+01 -0.12611163810E+02  0.15235495159E+02  0.51100000000E-03 0. -1.
        -11    1    3    3    0    0  0.96536968694E+01  0.40640910605E+01 -0.18519170556E+02  0.21276051742E+02  0.51100000000E-03 0.  1.
        -12    1    3    3    0    0  0.25833290098E+01  0.13102204186E+02 -0.42595567853E+01  0.14017316694E+02  0.00000000000E+00 0.  1.
</event>
<event>
 7    1  0.5479172E-013  0.5052887E+02  0.7816164E-02  0.1300439E+00
        -11   -1    0    0    0    0  0.00000000000E+00  0.00000000000E+00  0.45593999997E+02  0.45594000000E+02  0.51100000000E-03 0.  1.
         11   -1    0    0    0    0 -0.00000000000E+00 -0.00000000000E+00 -0.45593999997E+02  0.45594000000E+02  0.51100000000E-03 0. -1.
    9900012    2    1    2    0    0  0.26287489868E+02  0.13763319609E+02  0.27797556287E+02  0.50528865409E+02  0.30000016896E+02 0.  0.
         12    1    1    2    0    0 -0.26287489868E+02 -0.13763319609E+02 -0.27797556287E+02  0.40659134591E+02  0.00000000000E+00 0. -1.
         11    1    3    3    0    0  0.32483646098E+01  0.39753729832E+01  0.11129821797E+01  0.52530174745E+01  0.51100000000E-03 0. -1.
        -11    1    3    3    0    0  0.21015587537E+02  0.14259436490E+02  0.30035173712E+02  0.39333168048E+02  0.51100000000E-03 0.  1.
         12    1    3    3    0    0  0.20235377212E+01 -0.44714898642E+01 -0.33505996051E+01  0.59426798861E+01  0.00000000000E+00 0. -1.
</event>
<event>
 7    1  0.5479172E-013  0.5052887E+02  0.7816164E-02  0.1300439E+00
        -11   -1    0    0    0    0  0.00000000000E+00  0.00000000000E+00  0.45593999997E+02  0.45594000000E+02  0.51100000000E-03 0. -1.
         11   -1    0    0    0    0 -0.00000000000E+00 -0.00000000000E+00 -0.45593999997E+02  0.45594000000E+02  0.51100000000E-03 0.  1.
    9900012    2    1    2    0    0 -0.19280726943E+01  0.39836898096E+02  0.79037304748E+01  0.50528869788E+02  0.30000030207E+02 0.  0.
         12    1    1    2    0    0  0.19280726943E+01 -0.39836898096E+02 -0.79037304748E+01  0.40659130212E+02  0.00000000000E+00 0. -1.
         11    1    3    3    0    0  0.34761867012E+00  0.93735837057E-01  0.91441651063E+00  0.98274257209E+00  0.51100000000E-03 0. -1.
        -11    1    3    3    0    0  0.87789772230E+01  0.68894333311E+01  0.96872152170E+01  0.14777580033E+02  0.51100000000E-03 0.  1.
         12    1    3    3    0    0 -0.11054668587E+02  0.32853728928E+02 -0.26979012529E+01  0.34768547183E+02  0.00000000000E+00 0. -1.
</event>
<event>
 7    1  0.5479172E-013  0.5052886E+02  0.7816164E-02  0.1300439E+00
        -11   -1    0    0    0    0  0.00000000000E+00  0.00000000000E+00  0.45593999997E+02  0.45594000000E+02  0.51100000000E-03 0.  1.
         11   -1    0    0    0    0 -0.00000000000E+00 -0.00000000000E+00 -0.45593999997E+02  0.45594000000E+02  0.51100000000E-03 0. -1.
    9900012    2    1    2    0    0 -0.21232070785E+02  0.28408859024E+02 -0.19882199839E+02  0.50528856240E+02  0.29999989027E+02 0.  0.
         12    1    1    2    0    0  0.21232070785E+02 -0.28408859024E+02  0.19882199839E+02  0.40659143760E+02  0.00000000000E+00 0. -1.
         11    1    3    3    0    0 -0.13594150873E+02  0.18799500108E+00 -0.13883324582E+02  0.19431494584E+02  0.51100000000E-03 0. -1.
        -11    1    3    3    0    0  0.12393342711E+01  0.11135504267E+02 -0.13091440391E+01  0.11280481510E+02  0.51100000000E-03 0.  1.
        -12    1    3    3    0    0 -0.88772541836E+01  0.17085359755E+02 -0.46897312177E+01  0.19816880145E+02  0.00000000000E+00 0.  1.
</event>
<event>
 7    1  0.5479172E-013  0.5052886E+02  0.7816164E-02  0.1300439E+00
        -11   -1    0    0    0    0  0.00000000000E+00  0.00000000000E+00  0.45593999997E+02  0.45594000000E+02  0.51100000000E-03 0.  1.
         11   -1    0    0    0    0 -0.00000000000E+00 -0.00000000000E+00 -0.45593999997E+02  0.45594000000E+02  0.51100000000E-03 0. -1.
    9900012    2    1    2    0    0  0.39531738302E+02 -0.32977952026E+01  0.89180710406E+01  0.50528858623E+02  0.29999996271E+02 0.  0.
         12    1    1    2    0    0 -0.39531738302E+02  0.32977952026E+01 -0.89180710406E+01  0.40659141377E+02  0.00000000000E+00 0. -1.
         11    1    3    3    0    0 -0.21801704199E+01  0.24324777355E+01 -0.52543163579E+00  0.33084996084E+01  0.51100000000E-03 0. -1.
        -11    1    3    3    0    0  0.86308692073E+01  0.50949581625E+01 -0.26588807389E+01  0.10369192302E+02  0.51100000000E-03 0.  1.
         12    1    3    3    0    0  0.33081039515E+02 -0.10825231101E+02  0.12102383415E+02  0.36851166713E+02  0.00000000000E+00 0. -1.
</event>
<event>
 7    1  0.5479172E-013  0.5052894E+02  0.7816164E-02  0.1300439E+00
        -11   -1    0    0    0    0  0.00000000000E+00  0.00000000000E+00  0.45593999997E+02  0.45594000000E+02  0.51100000000E-03 0.  1.
         11   -1    0    0    0    0 -0.00000000000E+00 -0.00000000000E+00 -0.45593999997E+02  0.45594000000E+02  0.51100000000E-03 0. -1.
    9900012    2    1    2    0    0 -0.32156429851E+02  0.23283222673E+02 -0.87757962960E+01  0.50528941483E+02  0.30000248132E+02 0.  0.
         12    1    1    2    0    0  0.32156429851E+02 -0.23283222673E+02  0.87757962960E+01  0.40659058517E+02  0.00000000000E+00 0. -1.
         11    1    3    3    0    0 -0.16209937870E+02  0.37897754820E+01  0.42864713143E+01  0.17190064588E+02  0.51100000000E-03 0. -1.
        -11    1    3    3    0    0 -0.10282837937E+02  0.16067143821E+01  0.12100522506E+00  0.10408310606E+02  0.51100000000E-03 0.  1.
         12    1    3    3    0    0 -0.56636540450E+01  0.17886732809E+02 -0.13183272835E+02  0.22930566290E+02  0.00000000000E+00 0. -1.
</event>
<event>
 7    1  0.5479172E-013  0.5052884E+02  0.7816164E-02  0.1300439E+00
        -11   -1    0    0    0    0  0.00000000000E+00  0.00000000000E+00  0.45593999997E+02  0.45594000000E+02  0.51100000000E-03 0.  1.
         11   -1    0    0    0    0 -0.00000000000E+00 -0.00000000000E+00 -0.45593999997E+02  0.45594000000E+02  0.51100000000E-03 0. -1.
    9900012    2    1    2    0    0 -0.25244584235E+02  0.15363625207E+02  0.27925572568E+02  0.50528836014E+02  0.29999927549E+02 0.  0.
         12    1    1    2    0    0  0.25244584235E+02 -0.15363625207E+02 -0.27925572568E+02  0.40659163986E+02  0.00000000000E+00 0. -1.
         11    1    3    3    0    0 -0.14822427865E+02  0.56050340821E-01  0.36456903331E+01  0.15264290606E+02  0.51100000000E-03 0. -1.
        -11    1    3    3    0    0 -0.73977931592E+01 -0.22511589277E+01  0.66430680200E+01  0.10194381449E+02  0.51100000000E-03 0.  1.
        -12    1    3    3    0    0 -0.30243632116E+01  0.17558733794E+02  0.17636814215E+02  0.25070163959E+02  0.00000000000E+00 0.  1.
</event>
<event>
 7    1  0.5479172E-013  0.5052885E+02  0.7816164E-02  0.1300439E+00
        -11   -1    0    0    0    0  0.00000000000E+00  0.00000000000E+00  0.45593999997E+02  0.45594000000E+02  0.51100000000E-03 0. -1.
         11   -1    0    0    0    0 -0.00000000000E+00 -0.00000000000E+00 -0.45593999997E+02  0.45594000000E+02  0.51100000000E-03 0.  1.
    9900012    2    1    2    0    0 -0.28171976187E+02 -0.23972781284E+02 -0.16876363314E+02  0.50528854369E+02  0.29999983340E+02 0.  0.
         12    1    1    2    0    0  0.28171976187E+02  0.23972781284E+02  0.16876363314E+02  0.40659145631E+02  0.00000000000E+00 0. -1.
         11    1    3    3    0    0  0.39072153276E+01 -0.42028600823E+01 -0.37674882652E+01  0.68647164965E+01  0.51100000000E-03 0. -1.
        -11    1    3    3    0    0 -0.91267935020E+01 -0.15516514174E+02 -0.83356746952E+01  0.19837944566E+02  0.51100000000E-03 0.  1.
         12    1    3    3    0    0 -0.22952398012E+02 -0.42534070276E+01 -0.47732003533E+01  0.23826193306E+02  0.00000000000E+00 0. -1.
</event>
<event>
 7    1  0.5479172E-013  0.5052886E+02  0.7816164E-02  0.1300439E+00
        -11   -1    0    0    0    0  0.00000000000E+00  0.00000000000E+00  0.45593999997E+02  0.45594000000E+02  0.51100000000E-03 0.  1.
         11   -1    0    0    0    0 -0.00000000000E+00 -0.00000000000E+00 -0.45593999997E+02  0.45594000000E+02  0.51100000000E-03 0. -1.
    9900012    2    1    2    0    0 -0.10815770277E+02  0.25731874149E+01  0.39109636795E+02  0.50528857481E+02  0.29999992799E+02 0.  0.
         12    1    1    2    0    0  0.10815770277E+02 -0.25731874149E+01 -0.39109636795E+02  0.40659142519E+02  0.00000000000E+00 0. -1.
         11    1    3    3    0    0 -0.45833984191E+01  0.75614012934E+01  0.17021991791E+02  0.19181515461E+02  0.51100000000E-03 0.  1.
        -11    1    3    3    0    0 -0.68609726275E+01  0.66666350105E+00  0.24287790235E+02  0.25247062015E+02  0.51100000000E-03 0. -1.
         12    1    3    3    0    0  0.62860076939E+00 -0.56548773796E+01 -0.22001452310E+01  0.61002800053E+01  0.00000000000E+00 0. -1.
</event>
<event>
 7    1  0.5479172E-013  0.5052886E+02  0.7816164E-02  0.1300439E+00
        -11   -1    0    0    0    0  0.00000000000E+00  0.00000000000E+00  0.45593999997E+02  0.45594000000E+02  0.51100000000E-03 0. -1.
         11   -1    0    0    0    0 -0.00000000000E+00 -0.00000000000E+00 -0.45593999997E+02  0.45594000000E+02  0.51100000000E-03 0.  1.
    9900012    2    1    2    0    0 -0.18911213592E+02  0.32211077507E+02 -0.16061693775E+02  0.50528861782E+02  0.30000005873E+02 0.  0.
         12    1    1    2    0    0  0.18911213592E+02 -0.32211077507E+02  0.16061693775E+02  0.40659138218E+02  0.00000000000E+00 0. -1.
         11    1    3    3    0    0 -0.16165643199E+02  0.72899734783E+01 -0.39907546190E+01  0.18176849453E+02  0.51100000000E-03 0.  1.
        -11    1    3    3    0    0 -0.17163216398E+01  0.77252656962E+01 -0.12868353884E+02  0.15106952770E+02  0.51100000000E-03 0. -1.
        -12    1    3    3    0    0 -0.10292487530E+01  0.17195838333E+02  0.79741472768E+00  0.17245059559E+02  0.00000000000E+00 0.  1.
</event>
<event>
 7    1  0.5479172E-013  0.5052886E+02  0.7816164E-02  0.1300439E+00
        -11   -1    0    0    0    0  0.00000000000E+00  0.00000000000E+00  0.45593999997E+02  0.45594000000E+02  0.51100000000E-03 0. -1.
         11   -1    0    0    0    0 -0.00000000000E+00 -0.00000000000E+00 -0.45593999997E+02  0.45594000000E+02  0.51100000000E-03 0.  1.
    9900012    2    1    2    0    0  0.30934777447E+02 -0.24073065741E+02 -0.10802439935E+02  0.50528860087E+02  0.30000000722E+02 0.  0.
         12    1    1    2    0    0 -0.30934777447E+02  0.24073065741E+02  0.10802439935E+02  0.40659139913E+02  0.00000000000E+00 0. -1.
         11    1    3    3    0    0  0.63816905244E+00 -0.28364047137E+01 -0.39210404695E+01  0.48812918438E+01  0.51100000000E-03 0. -1.
        -11    1    3    3    0    0  0.91107972554E+01 -0.16256039850E+02 -0.13372675653E+02  0.22936737183E+02  0.51100000000E-03 0.  1.
        -12    1    3    3    0    0  0.21185811139E+02 -0.49806211777E+01  0.64912761868E+01  0.22710831061E+02  0.00000000000E+00 0.  1.
</event>
<event>
 7    1  0.5479172E-013  0.5052886E+02  0.7816164E-02  0.1300439E+00
        -11   -1    0    0    0    0  0.00000000000E+00  0.00000000000E+00  0.45593999997E+02  0.45594000000E+02  0.51100000000E-03 0.  1.
         11   -1    0    0    0    0 -0.00000000000E+00 -0.00000000000E+00 -0.45593999997E+02  0.45594000000E+02  0.51100000000E-03 0. -1.
    9900012    2    1    2    0    0 -0.11441695683E+02  0.69284455804E+00  0.39009915151E+02  0.50528856948E+02  0.29999991178E+02 0.  0.
         12    1    1    2    0    0  0.11441695683E+02 -0.69284455804E+00 -0.39009915151E+02  0.40659143052E+02  0.00000000000E+00 0. -1.
         11    1    3    3    0    0 -0.48665070250E+00  0.14072355950E+02  0.17150434726E+02  0.22190210509E+02  0.51100000000E-03 0.  1.
        -11    1    3    3    0    0 -0.40973409823E+01 -0.76047932133E+01  0.76580723533E+01  0.11544139438E+02  0.51100000000E-03 0. -1.
        -12    1    3    3    0    0 -0.68577039983E+01 -0.57747181783E+01  0.14201408072E+02  0.16794507001E+02  0.00000000000E+00 0.  1.
</event>
<event>
 7    1  0.5479172E-013  0.5052886E+02  0.7816164E-02  0.1300439E+00
        -11   -1    0    0    0    0  0.00000000000E+00  0.00000000000E+00  0.45593999997E+02  0.45594000000E+02  0.51100000000E-03 0.  1.
         11   -1    0    0    0    0 -0.00000000000E+00 -0.00000000000E+00 -0.45593999997E+02  0.45594000000E+02  0.51100000000E-03 0. -1.
    9900012    2    1    2    0    0 -0.20883376398E+02 -0.22212532290E+02  0.26900815779E+02  0.50528857239E+02  0.29999992063E+02 0.  0.
         12    1    1    2    0    0  0.20883376398E+02  0.22212532290E+02 -0.26900815779E+02  0.40659142761E+02  0.00000000000E+00 0. -1.
         11    1    3    3    0    0 -0.64013463337E+01 -0.12605773188E+02  0.15768829089E+02  0.21178732815E+02  0.51100000000E-03 0. -1.
        -11    1    3    3    0    0 -0.13189295604E+02 -0.54292566218E+01  0.16898398147E+02  0.22113122941E+02  0.51100000000E-03 0.  1.
         12    1    3    3    0    0 -0.12927344600E+01 -0.41775024807E+01 -0.57664114578E+01  0.72370014827E+01  0.00000000000E+00 0. -1.
</event>
<event>
 7    1  0.5479172E-013  0.5052886E+02  0.7816164E-02  0.1300439E+00
        -11   -1    0    0    0    0  0.00000000000E+00  0.00000000000E+00  0.45593999997E+02  0.45594000000E+02  0.51100000000E-03 0. -1.
         11   -1    0    0    0    0 -0.00000000000E+00 -0.00000000000E+00 -0.45593999997E+02  0.45594000000E+02  0.51100000000E-03 0.  1.
    9900012    2    1    2    0    0 -0.34396023747E+02  0.60164239767E+01 -0.20829835220E+02  0.50528857826E+02  0.29999993848E+02 0.  0.
         12    1    1    2    0    0  0.34396023747E+02 -0.60164239767E+01  0.20829835220E+02  0.40659142174E+02  0.00000000000E+00 0. -1.
         11    1    3    3    0    0 -0.62474744433E+01  0.31591066928E+01  0.54071592312E+00  0.70216284427E+01  0.51100000000E-03 0. -1.
        -11    1    3    3    0    0 -0.19813874203E+02  0.13393030836E+02 -0.10057847521E+02  0.25944617610E+02  0.51100000000E-03 0.  1.
         12    1    3    3    0    0 -0.83346751001E+01 -0.10535713552E+02 -0.11312703621E+02  0.17562611773E+02  0.00000000000E+00 0. -1.
</event>
<event>
 7    1  0.5479172E-013  0.5052887E+02  0.7816164E-02  0.1300439E+00
        -11   -1    0    0    0    0  0.00000000000E+00  0.00000000000E+00  0.45593999997E+02  0.45594000000E+02  0.51100000000E-03 0.  1.
         11   -1    0    0    0    0 -0.00000000000E+00 -0.00000000000E+00 -0.45593999997E+02  0.45594000000E+02  0.51100000000E-03 0. -1.
    9900012    2    1    2    0    0  0.18170940765E+02 -0.29267561918E+02  0.21596097345E+02  0.50528872003E+02  0.30000036941E+02 0.  0.
         12    1    1    2    0    0 -0.18170940765E+02  0.29267561918E+02 -0.21596097345E+02  0.40659127997E+02  0.00000000000E+00 0. -1.
         11    1    3    3    0    0  0.23617960298E+01 -0.99136073279E+01 -0.63183794958E+01  0.11990813586E+02  0.51100000000E-03 0. -1.
        -11    1    3    3    0    0  0.66535974653E+00 -0.47243371447E+01  0.20666401450E+01  0.51993333033E+01  0.51100000000E-03 0.  1.
        -12    1    3    3    0    0  0.15143784989E+02 -0.14629617445E+02  0.25847836696E+02  0.33338725114E+02  0.00000000000E+00 0.  1.
</event>
<event>
 7    1  0.5479172E-013  0.5052886E+02  0.7816164E-02  0.1300439E+00
        -11   -1    0    0    0    0  0.00000000000E+00  0.00000000000E+00  0.45593999997E+02  0.45594000000E+02  0.51100000000E-03 0. -1.
         11   -1    0    0    0    0 -0.00000000000E+00 -0.00000000000E+00 -0.45593999997E+02  0.45594000000E+02  0.51100000000E-03 0.  1.
    9900012    2    1    2    0    0  0.38987327648E+02  0.80106752352E+01 -0.83055862483E+01  0.50528863293E+02  0.30000010465E+02 0.  0.
         12    1    1    2    0    0 -0.38987327648E+02 -0.80106752352E+01  0.83055862483E+01  0.40659136707E+02  0.00000000000E+00 0. -1.
         11    1    3    3    0    0  0.95412462023E+01  0.12009739802E+02 -0.34091084502E+01  0.15712773462E+02  0.51100000000E-03 0.  1.
        -11    1    3    3    0    0  0.13396575179E+02 -0.13550750433E+01 -0.11056692825E+02  0.17422827308E+02  0.51100000000E-03 0. -1.
         12    1    3    3    0    0  0.16049506267E+02 -0.26439895232E+01  0.61602150273E+01  0.17393262523E+02  0.00000000000E+00 0. -1.
</event>
<event>
 7    1  0.5479172E-013  0.5052885E+02  0.7816164E-02  0.1300439E+00
        -11   -1    0    0    0    0  0.00000000000E+00  0.00000000000E+00  0.45593999997E+02  0.45594000000E+02  0.51100000000E-03 0.  1.
         11   -1    0    0    0    0 -0.00000000000E+00 -0.00000000000E+00 -0.45593999997E+02  0.45594000000E+02  0.51100000000E-03 0. -1.
    9900012    2    1    2    0    0  0.93348801521E+01  0.39006186079E+02  0.66741484936E+01  0.50528846073E+02  0.29999958125E+02 0.  0.
         12    1    1    2    0    0 -0.93348801521E+01 -0.39006186079E+02 -0.66741484936E+01  0.40659153927E+02  0.00000000000E+00 0. -1.
         11    1    3    3    0    0 -0.45568989604E+00  0.35668556837E+01  0.14967736602E+01  0.38949254680E+01  0.51100000000E-03 0. -1.
        -11    1    3    3    0    0 -0.71707592168E+01  0.25246022952E+02  0.56230201927E+01  0.26840264883E+02  0.51100000000E-03 0.  1.
         12    1    3    3    0    0  0.16961329265E+02  0.10193307443E+02 -0.44564535940E+00  0.19793655722E+02  0.00000000000E+00 0. -1.
</event>
<event>
 7    1  0.5479172E-013  0.5052886E+02  0.7816164E-02  0.1300439E+00
        -11   -1    0    0    0    0  0.00000000000E+00  0.00000000000E+00  0.45593999997E+02  0.45594000000E+02  0.51100000000E-03 0. -1.
         11   -1    0    0    0    0 -0.00000000000E+00 -0.00000000000E+00 -0.45593999997E+02  0.45594000000E+02  0.51100000000E-03 0.  1.
    9900012    2    1    2    0    0 -0.40471928780E+01  0.37629972120E+02 -0.14858355658E+02  0.50528864436E+02  0.30000013940E+02 0.  0.
         12    1    1    2    0    0  0.40471928780E+01 -0.37629972120E+02  0.14858355658E+02  0.40659135564E+02  0.00000000000E+00 0. -1.
         11    1    3    3    0    0 -0.38567373404E+01  0.15152381178E+01 -0.43995836895E+01  0.60437328175E+01  0.51100000000E-03 0. -1.
        -11    1    3    3    0    0 -0.42431289665E+01  0.28112429623E+01 -0.96687504443E+01  0.10926663069E+02  0.51100000000E-03 0.  1.
         12    1    3    3    0    0  0.40526734289E+01  0.33303491040E+02 -0.79002152425E+00  0.33558468549E+02  0.00000000000E+00 0. -1.
</event>
<event>
 7    1  0.5479172E-013  0.5052886E+02  0.7816164E-02  0.1300439E+00
        -11   -1    0    0    0    0  0.00000000000E+00  0.00000000000E+00  0.45593999997E+02  0.45594000000E+02  0.51100000000E-03 0. -1.
         11   -1    0    0    0    0 -0.00000000000E+00 -0.00000000000E+00 -0.45593999997E+02  0.45594000000E+02  0.51100000000E-03 0.  1.
    9900012    2    1    2    0    0  0.27379719265E+02 -0.65423238457E+01 -0.29337938566E+02  0.50528859974E+02  0.30000000376E+02 0.  0.
         12    1    1    2    0    0 -0.27379719265E+02  0.65423238457E+01  0.29337938566E+02  0.40659140026E+02  0.00000000000E+00 0. -1.
         11    1    3    3    0    0  0.11099882655E+02  0.70593736125E+00 -0.13861535019E+01  0.11208352434E+02  0.51100000000E-03 0. -1.
        -11    1    3    3    0    0  0.39378360530E+01  0.36034889228E+00  0.31170457363E+01  0.50351145457E+01  0.51100000000E-03 0.  1.
        -12    1    3    3    0    0  0.12342000558E+02 -0.76086100993E+01 -0.31068830801E+02  0.34285392994E+02  0.00000000000E+00 0.  1.
</event>
<event>
 7    1  0.5479172E-013  0.5052886E+02  0.7816164E-02  0.1300439E+00
        -11   -1    0    0    0    0  0.00000000000E+00  0.00000000000E+00  0.45593999997E+02  0.45594000000E+02  0.51100000000E-03 0. -1.
         11   -1    0    0    0    0 -0.00000000000E+00 -0.00000000000E+00 -0.45593999997E+02  0.45594000000E+02  0.51100000000E-03 0.  1.
    9900012    2    1    2    0    0  0.13500335514E+02 -0.37392373909E+02 -0.85274121008E+01  0.50528862741E+02  0.30000008786E+02 0.  0.
         12    1    1    2    0    0 -0.13500335514E+02  0.37392373909E+02  0.85274121008E+01  0.40659137259E+02  0.00000000000E+00 0. -1.
         11    1    3    3    0    0  0.92579462256E+00 -0.83765666709E+01 -0.71207416276E+01  0.11033083271E+02  0.51100000000E-03 0. -1.
        -11    1    3    3    0    0  0.17423419235E+02 -0.10549559395E+02 -0.27855085953E+00  0.20370231518E+02  0.51100000000E-03 0.  1.
         12    1    3    3    0    0 -0.48488783431E+01 -0.18466247843E+02 -0.11281196137E+01  0.19125547951E+02  0.00000000000E+00 0. -1.
</event>
<event>
 7    1  0.5479172E-013  0.5052886E+02  0.7816164E-02  0.1300439E+00
        -11   -1    0    0    0    0  0.00000000000E+00  0.00000000000E+00  0.45593999997E+02  0.45594000000E+02  0.51100000000E-03 0.  1.
         11   -1    0    0    0    0 -0.00000000000E+00 -0.00000000000E+00 -0.45593999997E+02  0.45594000000E+02  0.51100000000E-03 0. -1.
    9900012    2    1    2    0    0  0.35916469670E+02 -0.27310046339E+01  0.18860395347E+02  0.50528859668E+02  0.29999999447E+02 0.  0.
         12    1    1    2    0    0 -0.35916469670E+02  0.27310046339E+01 -0.18860395347E+02  0.40659140332E+02  0.00000000000E+00 0. -1.
         11    1    3    3    0    0  0.20648686923E+02 -0.71122414861E+01 -0.83449947696E+00  0.21855174221E+02  0.51100000000E-03 0.  1.
        -11    1    3    3    0    0 -0.34400652050E-01 -0.13296049972E+01 -0.14418717130E+01  0.19616388943E+01  0.51100000000E-03 0. -1.
        -12    1    3    3    0    0  0.15302183400E+02  0.57108418493E+01  0.21136766537E+02  0.26712046553E+02  0.00000000000E+00 0.  1.
</event>
<event>
 7    1  0.5479172E-013  0.5052886E+02  0.7816164E-02  0.1300439E+00
        -11   -1    0    0    0    0  0.00000000000E+00  0.00000000000E+00  0.45593999997E+02  0.45594000000E+02  0.51100000000E-03 0. -1.
         11   -1    0    0    0    0 -0.00000000000E+00 -0.00000000000E+00 -0.45593999997E+02  0.45594000000E+02  0.51100000000E-03 0.  1.
    9900012    2    1    2    0    0  0.36123620098E+02  0.16639009764E+02 -0.84494388951E+01  0.50528860898E+02  0.30000003184E+02 0.  0.
         12    1    1    2    0    0 -0.36123620098E+02 -0.16639009764E+02  0.84494388951E+01  0.40659139102E+02  0.00000000000E+00 0. -1.
         11    1    3    3    0    0  0.84197877708E+01  0.61199491529E+01  0.74411456637E+01  0.12795204289E+02  0.51100000000E-03 0. -1.
        -11    1    3    3    0    0  0.25218015752E+02  0.11692845327E+02 -0.73366832297E+01  0.28748876002E+02  0.51100000000E-03 0.  1.
        -12    1    3    3    0    0  0.24858165750E+01 -0.11737847156E+01 -0.85539013292E+01  0.89847806068E+01  0.00000000000E+00 0.  1.
</event>
<event>
 7    1  0.5479172E-013  0.5052885E+02  0.7816164E-02  0.1300439E+00
        -11   -1    0    0    0    0  0.00000000000E+00  0.00000000000E+00  0.45593999997E+02  0.45594000000E+02  0.51100000000E-03 0.  1.
         11   -1    0    0    0    0 -0.00000000000E+00 -0.00000000000E+00 -0.45593999997E+02  0.45594000000E+02  0.51100000000E-03 0. -1.
    9900012    2    1    2    0    0 -0.37939821683E+01  0.23963060498E+02  0.32627350669E+02  0.50528848745E+02  0.29999966245E+02 0.  0.
         12    1    1    2    0    0  0.37939821683E+01 -0.23963060498E+02 -0.32627350669E+02  0.40659151255E+02  0.00000000000E+00 0. -1.
         11    1    3    3    0    0 -0.58305764745E+01  0.47737214882E+01  0.19175748454E+01  0.77756756890E+01  0.51100000000E-03 0. -1.
        -11    1    3    3    0    0 -0.61598470928E+01  0.11082268180E+02  0.28250449247E+02  0.30965275183E+02  0.51100000000E-03 0.  1.
         12    1    3    3    0    0  0.81964413990E+01  0.81070708304E+01  0.24593265760E+01  0.11787897873E+02  0.00000000000E+00 0. -1.
</event>
<event>
 7    1  0.5479172E-013  0.5052886E+02  0.7816164E-02  0.1300439E+00
        -11   -1    0    0    0    0  0.00000000000E+00  0.00000000000E+00  0.45593999997E+02  0.45594000000E+02  0.51100000000E-03 0. -1.
         11   -1    0    0    0    0 -0.00000000000E+00 -0.00000000000E+00 -0.45593999997E+02  0.45594000000E+02  0.51100000000E-03 0.  1.
    9900012    2    1    2    0    0 -0.10845370725E+02 -0.18082450673E+02 -0.34764468272E+02  0.50528863970E+02  0.30000012522E+02 0.  0.
         12    1    1    2    0    0  0.10845370725E+02  0.18082450673E+02  0.34764468272E+02  0.40659136030E+02  0.00000000000E+00 0. -1.
         11    1    3    3    0    0 -0.77267361344E+01 -0.87987698030E+01 -0.20683362836E+02  0.23768094156E+02  0.51100000000E-03 0. -1.
        -11    1    3    3    0    0 -0.77482344042E+01 -0.70070625881E+01 -0.17634350061E+02  0.20496447615E+02  0.51100000000E-03 0.  1.
         12    1    3    3    0    0  0.46295998134E+01 -0.22766182816E+01  0.35532446258E+01  0.62643221982E+01  0.00000000000E+00 0. -1.
</event>
<event>
 7    1  0.5479172E-013  0.5052886E+02  0.7816164E-02  0.1300439E+00
        -11   -1    0    0    0    0  0.00000000000E+00  0.00000000000E+00  0.45593999997E+02  0.45594000000E+02  0.51100000000E-03 0.  1.
         11   -1    0    0    0    0 -0.00000000000E+00 -0.00000000000E+00 -0.45593999997E+02  0.45594000000E+02  0.51100000000E-03 0. -1.
    9900012    2    1    2    0    0 -0.28639158331E+02  0.20833120248E+02  0.19973612879E+02  0.50528862028E+02  0.30000006619E+02 0.  0.
         12    1    1    2    0    0  0.28639158331E+02 -0.20833120248E+02 -0.19973612879E+02  0.40659137972E+02  0.00000000000E+00 0. -1.
         11    1    3    3    0    0 -0.13805075492E+02 -0.39307846894E+01  0.47448464709E+01  0.15117696448E+02  0.51100000000E-03 0. -1.
        -11    1    3    3    0    0 -0.47556213168E+01  0.13973643938E+02  0.14402509844E+02  0.20623068372E+02  0.51100000000E-03 0.  1.
         12    1    3    3    0    0 -0.10078461523E+02  0.10790261000E+02  0.82625656443E+00  0.14788097207E+02  0.00000000000E+00 0. -1.
</event>
<event>
 7    1  0.5479172E-013  0.5052886E+02  0.7816164E-02  0.1300439E+00
        -11   -1    0    0    0    0  0.00000000000E+00  0.00000000000E+00  0.45593999997E+02  0.45594000000E+02  0.51100000000E-03 0.  1.
         11   -1    0    0    0    0 -0.00000000000E+00 -0.00000000000E+00 -0.45593999997E+02  0.45594000000E+02  0.51100000000E-03 0. -1.
    9900012    2    1    2    0    0 -0.33475249658E+01  0.40501392695E+02 -0.12635642860E+01  0.50528864147E+02  0.30000013061E+02 0.  0.
         12    1    1    2    0    0  0.33475249658E+01 -0.40501392695E+02  0.12635642860E+01  0.40659135853E+02  0.00000000000E+00 0. -1.
         11    1    3    3    0    0  0.64970130827E+01  0.12701367827E+02  0.17320915464E+01  0.14371362672E+02  0.51100000000E-03 0. -1.
        -11    1    3    3    0    0 -0.23713080746E-01  0.20440350018E+02  0.55768489610E+01  0.21187489605E+02  0.51100000000E-03 0.  1.
         12    1    3    3    0    0 -0.98208249677E+01  0.73596748498E+01 -0.85725047933E+01  0.14970011869E+02  0.00000000000E+00 0. -1.
</event>
<event>
 7    1  0.5479172E-013  0.5052892E+02  0.7816164E-02  0.1300439E+00
        -11   -1    0    0    0    0  0.00000000000E+00  0.00000000000E+00  0.45593999997E+02  0.45594000000E+02  0.51100000000E-03 0.  1.
         11   -1    0    0    0    0 -0.00000000000E+00 -0.00000000000E+00 -0.45593999997E+02  0.45594000000E+02  0.51100000000E-03 0. -1.
    9900012    2    1    2    0    0 -0.29070793283E+02  0.13569885002E+02  0.24978151513E+02  0.50528919169E+02  0.30000180304E+02 0.  0.
         12    1    1    2    0    0  0.29070793283E+02 -0.13569885002E+02 -0.24978151513E+02  0.40659080831E+02  0.00000000000E+00 0. -1.
         11    1    3    3    0    0 -0.45407368169E+01 -0.46411117658E+01 -0.24555354543E+01  0.69417478988E+01  0.51100000000E-03 0. -1.
        -11    1    3    3    0    0 -0.91283821250E+01  0.12971569915E+01  0.14848563752E+02  0.17478267141E+02  0.51100000000E-03 0.  1.
         12    1    3    3    0    0 -0.15401674341E+02  0.16913839776E+02  0.12585123215E+02  0.26108904129E+02  0.00000000000E+00 0. -1.
</event>
<event>
 7    1  0.5479172E-013  0.5052884E+02  0.7816164E-02  0.1300439E+00
        -11   -1    0    0    0    0  0.00000000000E+00  0.00000000000E+00  0.45593999997E+02  0.45594000000E+02  0.51100000000E-03 0.  1.
         11   -1    0    0    0    0 -0.00000000000E+00 -0.00000000000E+00 -0.45593999997E+02  0.45594000000E+02  0.51100000000E-03 0. -1.
    9900012    2    1    2    0    0 -0.22157165357E+02  0.25400878564E+02  0.22738136095E+02  0.50528838160E+02  0.29999934070E+02 0.  0.
         12    1    1    2    0    0  0.22157165357E+02 -0.25400878564E+02 -0.22738136095E+02  0.40659161840E+02  0.00000000000E+00 0. -1.
         11    1    3    3    0    0 -0.30259298822E+01  0.11666611912E+02  0.14084398211E+02  0.18537431278E+02  0.51100000000E-03 0.  1.
        -11    1    3    3    0    0 -0.11837841136E+02  0.18156427933E+02  0.89671411533E+01  0.23456341974E+02  0.51100000000E-03 0. -1.
         12    1    3    3    0    0 -0.72933943383E+01 -0.44221612813E+01 -0.31340326969E+00  0.85350649078E+01  0.00000000000E+00 0. -1.
</event>
<event>
 7    1  0.5479172E-013  0.5052886E+02  0.7816164E-02  0.1300439E+00
        -11   -1    0    0    0    0  0.00000000000E+00  0.00000000000E+00  0.45593999997E+02  0.45594000000E+02  0.51100000000E-03 0.  1.
         11   -1    0    0    0    0 -0.00000000000E+00 -0.00000000000E+00 -0.45593999997E+02  0.45594000000E+02  0.51100000000E-03 0. -1.
    9900012    2    1    2    0    0  0.18256926966E+02 -0.19548798357E+02  0.30621807546E+02  0.50528855926E+02  0.29999988072E+02 0.  0.
         12    1    1    2    0    0 -0.18256926966E+02  0.19548798357E+02 -0.30621807546E+02  0.40659144074E+02  0.00000000000E+00 0. -1.
         11    1    3    3    0    0 -0.36746603282E+00  0.42428783245E+01  0.36755471375E+01  0.56255395104E+01  0.51100000000E-03 0. -1.
        -11    1    3    3    0    0 -0.11900252722E+01 -0.12047171682E+02  0.50300968955E+01  0.13109247908E+02  0.51100000000E-03 0.  1.
         12    1    3    3    0    0  0.19814418271E+02 -0.11744505000E+02  0.21916163513E+02  0.31794068507E+02  0.00000000000E+00 0. -1.
</event>
<event>
 7    1  0.5479172E-013  0.5052886E+02  0.7816164E-02  0.1300439E+00
        -11   -1    0    0    0    0  0.00000000000E+00  0.00000000000E+00  0.45593999997E+02  0.45594000000E+02  0.51100000000E-03 0. -1.
         11   -1    0    0    0    0 -0.00000000000E+00 -0.00000000000E+00 -0.45593999997E+02  0.45594000000E+02  0.51100000000E-03 0.  1.
    9900012    2    1    2    0    0 -0.25227446073E+00  0.24999847290E+02 -0.32064154997E+02  0.50528855363E+02  0.29999986363E+02 0.  0.
         12    1    1    2    0    0  0.25227446073E+00 -0.24999847290E+02  0.32064154997E+02  0.40659144637E+02  0.00000000000E+00 0. -1.
         11    1    3    3    0    0 -0.11097626486E+02  0.12482609458E+02 -0.17324349253E+02  0.24064619877E+02  0.51100000000E-03 0. -1.
        -11    1    3    3    0    0  0.30632013616E+01  0.10044682645E+01 -0.11836894758E+02  0.12268016826E+02  0.51100000000E-03 0.  1.
         12    1    3    3    0    0  0.77821506640E+01  0.11512769567E+02 -0.29029109860E+01  0.14196218660E+02  0.00000000000E+00 0. -1.
</event>
<event>
 7    1  0.5479172E-013  0.5052886E+02  0.7816164E-02  0.1300439E+00
        -11   -1    0    0    0    0  0.00000000000E+00  0.00000000000E+00  0.45593999997E+02  0.45594000000E+02  0.51100000000E-03 0.  1.
         11   -1    0    0    0    0 -0.00000000000E+00 -0.00000000000E+00 -0.45593999997E+02  0.45594000000E+02  0.51100000000E-03 0. -1.
    9900012    2    1    2    0    0  0.10400002813E+02  0.20476402389E+02  0.33551792559E+02  0.50528857151E+02  0.29999991797E+02 0.  0.
         12    1    1    2    0    0 -0.10400002813E+02 -0.20476402389E+02 -0.33551792559E+02  0.40659142849E+02  0.00000000000E+00 0. -1.
         11    1    3    3    0    0 -0.79781487964E+01  0.11690240234E+02  0.10125341299E+02  0.17402158246E+02  0.51100000000E-03 0. -1.
        -11    1    3    3    0    0 -0.15820237598E+01  0.12398089424E+01  0.28134332717E+01  0.34576483953E+01  0.51100000000E-03 0.  1.
        -12    1    3    3    0    0  0.19960175370E+02  0.75463532126E+01  0.20613017987E+02  0.29669050510E+02  0.00000000000E+00 0.  1.
</event>
<event>
 7    1  0.5479172E-013  0.5052886E+02  0.7816164E-02  0.1300439E+00
        -11   -1    0    0    0    0  0.00000000000E+00  0.00000000000E+00  0.45593999997E+02  0.45594000000E+02  0.51100000000E-03 0.  1.
         11   -1    0    0    0    0 -0.00000000000E+00 -0.00000000000E+00 -0.45593999997E+02  0.45594000000E+02  0.51100000000E-03 0. -1.
    9900012    2    1    2    0    0  0.37501930089E+02  0.10433159525E+02  0.11743929212E+02  0.50528862633E+02  0.30000008460E+02 0.  0.
         12    1    1    2    0    0 -0.37501930089E+02 -0.10433159525E+02 -0.11743929212E+02  0.40659137367E+02  0.00000000000E+00 0. -1.
         11    1    3    3    0    0  0.62089940862E+01 -0.81554392868E+00  0.61256021926E+01  0.87601211148E+01  0.51100000000E-03 0. -1.
        -11    1    3    3    0    0  0.52851055420E+01  0.13668797160E+02  0.54862087662E+01  0.15648221729E+02  0.51100000000E-03 0.  1.
         12    1    3    3    0    0  0.26007830461E+02 -0.24200937064E+01  0.13211825329E+00  0.26120519789E+02  0.00000000000E+00 0. -1.
</event>
<event>
 7    1  0.5479172E-013  0.5052884E+02  0.7816164E-02  0.1300439E+00
        -11   -1    0    0    0    0  0.00000000000E+00  0.00000000000E+00  0.45593999997E+02  0.45594000000E+02  0.51100000000E-03 0.  1.
         11   -1    0    0    0    0 -0.00000000000E+00 -0.00000000000E+00 -0.45593999997E+02  0.45594000000E+02  0.51100000000E-03 0. -1.
    9900012    2    1    2    0    0  0.39430207399E+02 -0.81378225971E+01  0.56746811226E+01  0.50528838450E+02  0.29999934952E+02 0.  0.
         12    1    1    2    0    0 -0.39430207399E+02  0.81378225971E+01 -0.56746811226E+01  0.40659161550E+02  0.00000000000E+00 0. -1.
         11    1    3    3    0    0  0.33049054827E+02 -0.66134237590E+01  0.91336610394E+01  0.34919925014E+02  0.51100000000E-03 0. -1.
        -11    1    3    3    0    0  0.64745609987E+01 -0.35546331945E+00  0.42878710373E+01  0.77738106866E+01  0.51100000000E-03 0.  1.
         12    1    3    3    0    0 -0.93408426840E-01 -0.11689355186E+01 -0.77468509541E+01  0.78351027489E+01  0.00000000000E+00 0. -1.
</event>
<event>
 7    1  0.5479172E-013  0.5052888E+02  0.7816164E-02  0.1300439E+00
        -11   -1    0    0    0    0  0.00000000000E+00  0.00000000000E+00  0.45593999997E+02  0.45594000000E+02  0.51100000000E-03 0.  1.
         11   -1    0    0    0    0 -0.00000000000E+00 -0.00000000000E+00 -0.45593999997E+02  0.45594000000E+02  0.51100000000E-03 0. -1.
    9900012    2    1    2    0    0 -0.35544490349E+02 -0.15698694246E+02 -0.11970982231E+02  0.50528877890E+02  0.30000054833E+02 0.  0.
         12    1    1    2    0    0  0.35544490349E+02  0.15698694246E+02  0.11970982231E+02  0.40659122110E+02  0.00000000000E+00 0. -1.
         11    1    3    3    0    0 -0.32178733734E+01  0.54773198997E+00 -0.31874391839E+01  0.45622897971E+01  0.51100000000E-03 0. -1.
        -11    1    3    3    0    0 -0.37138821252E+02 -0.13834341483E+02 -0.87372573781E+01  0.40583502991E+02  0.51100000000E-03 0.  1.
        -12    1    3    3    0    0  0.48122042762E+01 -0.24120847527E+01 -0.46285668953E-01  0.53830851018E+01  0.00000000000E+00 0.  1.
</event>
<event>
 7    1  0.5479172E-013  0.5052879E+02  0.7816164E-02  0.1300439E+00
        -11   -1    0    0    0    0  0.00000000000E+00  0.00000000000E+00  0.45593999997E+02  0.45594000000E+02  0.51100000000E-03 0. -1.
         11   -1    0    0    0    0 -0.00000000000E+00 -0.00000000000E+00 -0.45593999997E+02  0.45594000000E+02  0.51100000000E-03 0.  1.
    9900012    2    1    2    0    0 -0.84711193961E+01 -0.37044883151E+02  0.14459881438E+02  0.50528789448E+02  0.29999786006E+02 0.  0.
         12    1    1    2    0    0  0.84711193961E+01  0.37044883151E+02 -0.14459881438E+02  0.40659210552E+02  0.00000000000E+00 0. -1.
         11    1    3    3    0    0 -0.80755596547E+00 -0.86070708719E+01  0.39243416947E+00  0.86537749260E+01  0.51100000000E-03 0. -1.
        -11    1    3    3    0    0 -0.92135021139E+01 -0.20936687548E+02 -0.30932493302E+01  0.23082497663E+02  0.51100000000E-03 0.  1.
         12    1    3    3    0    0  0.15499386833E+01 -0.75011247312E+01  0.17160696599E+02  0.18792516859E+02  0.00000000000E+00 0. -1.
</event>
<event>
 7    1  0.5479172E-013  0.5052886E+02  0.7816164E-02  0.1300439E+00
        -11   -1    0    0    0    0  0.00000000000E+00  0.00000000000E+00  0.45593999997E+02  0.45594000000E+02  0.51100000000E-03 0. -1.
         11   -1    0    0    0    0 -0.00000000000E+00 -0.00000000000E+00 -0.45593999997E+02  0.45594000000E+02  0.51100000000E-03 0.  1.
    9900012    2    1    2    0    0 -0.15494445401E+02  0.24199742289E+02  0.28765603729E+02  0.50528864212E+02  0.30000013259E+02 0.  0.
         12    1    1    2    0    0  0.15494445401E+02 -0.24199742289E+02 -0.28765603729E+02  0.40659135788E+02  0.00000000000E+00 0. -1.
         11    1    3    3    0    0 -0.18059613555E+01  0.31970777232E+01  0.52468316235E+01  0.64040647040E+01  0.51100000000E-03 0. -1.
        -11    1    3    3    0    0  0.85021086919E+01  0.73346451862E+01  0.61137838887E+01  0.12785195576E+02  0.51100000000E-03 0.  1.
        -12    1    3    3    0    0 -0.22190592737E+02  0.13668019379E+02  0.17404988217E+02  0.31339603932E+02  0.00000000000E+00 0.  1.
</event>
<event>
 7    1  0.5479172E-013  0.5052885E+02  0.7816164E-02  0.1300439E+00
        -11   -1    0    0    0    0  0.00000000000E+00  0.00000000000E+00  0.45593999997E+02  0.45594000000E+02  0.51100000000E-03 0. -1.
         11   -1    0    0    0    0 -0.00000000000E+00 -0.00000000000E+00 -0.45593999997E+02  0.45594000000E+02  0.51100000000E-03 0.  1.
    9900012    2    1    2    0    0  0.35529814629E+02  0.11472415557E+02 -0.16099146926E+02  0.50528848779E+02  0.29999966347E+02 0.  0.
         12    1    1    2    0    0 -0.35529814629E+02 -0.11472415557E+02  0.16099146926E+02  0.40659151221E+02  0.00000000000E+00 0. -1.
         11    1    3    3    0    0  0.58722653139E+01  0.81116934872E+01  0.65107227033E+01  0.11944562844E+02  0.51100000000E-03 0. -1.
        -11    1    3    3    0    0  0.19771098386E+00  0.16667815831E+01 -0.64419249668E+00  0.17978416818E+01  0.51100000000E-03 0.  1.
        -12    1    3    3    0    0  0.29459838331E+02  0.16939404865E+01 -0.21965677133E+02  0.36786444253E+02  0.00000000000E+00 0.  1.
</event>
<event>
 7    1  0.5479172E-013  0.5052887E+02  0.7816164E-02  0.1300439E+00
        -11   -1    0    0    0    0  0.00000000000E+00  0.00000000000E+00  0.45593999997E+02  0.45594000000E+02  0.51100000000E-03 0. -1.
         11   -1    0    0    0    0 -0.00000000000E+00 -0.00000000000E+00 -0.45593999997E+02  0.45594000000E+02  0.51100000000E-03 0.  1.
    9900012    2    1    2    0    0 -0.39523269073E+02  0.91626128555E+01  0.26688710551E+01  0.50528866398E+02  0.30000019903E+02 0.  0.
         12    1    1    2    0    0  0.39523269073E+02 -0.91626128555E+01 -0.26688710551E+01  0.40659133602E+02  0.00000000000E+00 0. -1.
         11    1    3    3    0    0 -0.73523709912E+01 -0.33436424505E+00  0.75393352959E+01  0.10536163230E+02  0.51100000000E-03 0. -1.
        -11    1    3    3    0    0 -0.59425265712E+01 -0.24203404519E+01  0.63953899492E+01  0.90593974864E+01  0.51100000000E-03 0.  1.
        -12    1    3    3    0    0 -0.26228371511E+02  0.11917317552E+02 -0.11265854190E+02  0.30933305682E+02  0.00000000000E+00 0.  1.
</event>
<event>
 7    1  0.5479172E-013  0.5052885E+02  0.7816164E-02  0.1300439E+00
        -11   -1    0    0    0    0  0.00000000000E+00  0.00000000000E+00  0.45593999997E+02  0.45594000000E+02  0.51100000000E-03 0. -1.
         11   -1    0    0    0    0 -0.00000000000E+00 -0.00000000000E+00 -0.45593999997E+02  0.45594000000E+02  0.51100000000E-03 0.  1.
    9900012    2    1    2    0    0  0.43628923005E+01 -0.11237716744E+02 -0.38830987439E+02  0.50528847373E+02  0.29999962076E+02 0.  0.
         12    1    1    2    0    0 -0.43628923005E+01  0.11237716744E+02  0.38830987439E+02  0.40659152627E+02  0.00000000000E+00 0. -1.
         11    1    3    3    0    0  0.94975809197E+01  0.50658727119E+01 -0.96188696837E+01  0.14435711410E+02  0.51100000000E-03 0. -1.
        -11    1    3    3    0    0  0.22373663534E+01  0.87990819837E+00 -0.23327627389E+01  0.33498998334E+01  0.51100000000E-03 0.  1.
         12    1    3    3    0    0 -0.73720549726E+01 -0.17183497655E+02 -0.26879355016E+02  0.32743236130E+02  0.00000000000E+00 0. -1.
</event>
<event>
 7    1  0.5479172E-013  0.5052887E+02  0.7816164E-02  0.1300439E+00
        -11   -1    0    0    0    0  0.00000000000E+00  0.00000000000E+00  0.45593999997E+02  0.45594000000E+02  0.51100000000E-03 0.  1.
         11   -1    0    0    0    0 -0.00000000000E+00 -0.00000000000E+00 -0.45593999997E+02  0.45594000000E+02  0.51100000000E-03 0. -1.
    9900012    2    1    2    0    0  0.34432846751E+02  0.10750577924E+02  0.18760831203E+02  0.50528872507E+02  0.30000038471E+02 0.  0.
         12    1    1    2    0    0 -0.34432846751E+02 -0.10750577924E+02 -0.18760831203E+02  0.40659127493E+02  0.00000000000E+00 0. -1.
         11    1    3    3    0    0  0.16052563328E+02  0.71933919253E+00  0.64861060274E+01  0.17328352776E+02  0.51100000000E-03 0. -1.
        -11    1    3    3    0    0  0.85355608351E+01 -0.68334009888E+01  0.19335793494E+01  0.11103598390E+02  0.51100000000E-03 0.  1.
         12    1    3    3    0    0  0.98447225879E+01  0.16864639720E+02  0.10341145827E+02  0.22096921340E+02  0.00000000000E+00 0. -1.
</event>
<event>
 7    1  0.5479172E-013  0.5052885E+02  0.7816164E-02  0.1300439E+00
        -11   -1    0    0    0    0  0.00000000000E+00  0.00000000000E+00  0.45593999997E+02  0.45594000000E+02  0.51100000000E-03 0.  1.
         11   -1    0    0    0    0 -0.00000000000E+00 -0.00000000000E+00 -0.45593999997E+02  0.45594000000E+02  0.51100000000E-03 0. -1.
    9900012    2    1    2    0    0 -0.24377181253E+02 -0.67650371842E+01  0.31830080401E+02  0.50528847127E+02  0.29999961328E+02 0.  0.
         12    1    1    2    0    0  0.24377181253E+02  0.67650371842E+01 -0.31830080401E+02  0.40659152873E+02  0.00000000000E+00 0. -1.
         11    1    3    3    0    0  0.20411527671E+01  0.22064089036E+01  0.31354739617E+01  0.43434712033E+01  0.51100000000E-03 0. -1.
        -11    1    3    3    0    0 -0.34131049165E+01 -0.28130352640E+01 -0.38458139256E+01  0.58611208466E+01  0.51100000000E-03 0.  1.
        -12    1    3    3    0    0 -0.23005229104E+02 -0.61584108237E+01  0.32540420365E+02  0.40324255077E+02  0.00000000000E+00 0.  1.
</event>
<event>
 7    1  0.5479172E-013  0.5052887E+02  0.7816164E-02  0.1300439E+00
        -11   -1    0    0    0    0  0.00000000000E+00  0.00000000000E+00  0.45593999997E+02  0.45594000000E+02  0.51100000000E-03 0.  1.
         11   -1    0    0    0    0 -0.00000000000E+00 -0.00000000000E+00 -0.45593999997E+02  0.45594000000E+02  0.51100000000E-03 0. -1.
    9900012    2    1    2    0    0 -0.14666584673E+02 -0.29709226257E+02  0.23567316172E+02  0.50528865450E+02  0.30000017023E+02 0.  0.
         12    1    1    2    0    0  0.14666584673E+02  0.29709226257E+02 -0.23567316172E+02  0.40659134550E+02  0.00000000000E+00 0. -1.
         11    1    3    3    0    0 -0.76732015218E+01 -0.15864554192E+02  0.89137155353E+01  0.19748833541E+02  0.51100000000E-03 0.  1.
        -11    1    3    3    0    0 -0.14301344332E+02 -0.47080060662E+01  0.10536738001E+02  0.18377067742E+02  0.51100000000E-03 0. -1.
         12    1    3    3    0    0  0.73079611805E+01 -0.91366659987E+01  0.41168626354E+01  0.12402964168E+02  0.00000000000E+00 0. -1.
</event>
<event>
 7    1  0.5479172E-013  0.5052886E+02  0.7816164E-02  0.1300439E+00
        -11   -1    0    0    0    0  0.00000000000E+00  0.00000000000E+00  0.45593999997E+02  0.45594000000E+02  0.51100000000E-03 0. -1.
         11   -1    0    0    0    0 -0.00000000000E+00 -0.00000000000E+00 -0.45593999997E+02  0.45594000000E+02  0.51100000000E-03 0.  1.
    9900012    2    1    2    0    0 -0.43536634937E+01  0.36442349500E+02 -0.17497613260E+02  0.50528859666E+02  0.29999999442E+02 0.  0.
         12    1    1    2    0    0  0.43536634937E+01 -0.36442349500E+02  0.17497613260E+02  0.40659140334E+02  0.00000000000E+00 0. -1.
         11    1    3    3    0    0 -0.51030324391E+01  0.14481369669E+02 -0.10554279384E+02  0.18631795972E+02  0.51100000000E-03 0. -1.
        -11    1    3    3    0    0 -0.77550000727E+01  0.14954802553E+02 -0.11040330024E+02  0.20141376140E+02  0.51100000000E-03 0.  1.
         12    1    3    3    0    0  0.85043690181E+01  0.70061772774E+01  0.40969961474E+01  0.11755687554E+02  0.00000000000E+00 0. -1.
</event>
<event>
 7    1  0.5479172E-013  0.5052885E+02  0.7816164E-02  0.1300439E+00
        -11   -1    0    0    0    0  0.00000000000E+00  0.00000000000E+00  0.45593999997E+02  0.45594000000E+02  0.51100000000E-03 0.  1.
         11   -1    0    0    0    0 -0.00000000000E+00 -0.00000000000E+00 -0.45593999997E+02  0.45594000000E+02  0.51100000000E-03 0. -1.
    9900012    2    1    2    0    0 -0.27267942772E+02  0.13851009694E+02  0.26791323425E+02  0.50528853631E+02  0.29999981097E+02 0.  0.
         12    1    1    2    0    0  0.27267942772E+02 -0.13851009694E+02 -0.26791323425E+02  0.40659146369E+02  0.00000000000E+00 0. -1.
         11    1    3    3    0    0 -0.61899173328E+00 -0.14368156385E+01  0.74211168525E+01  0.75842313747E+01  0.51100000000E-03 0. -1.
        -11    1    3    3    0    0 -0.50763116253E+01 -0.69162243833E+00 -0.46517423369E+01  0.69199702561E+01  0.51100000000E-03 0.  1.
        -12    1    3    3    0    0 -0.21572639414E+02  0.15979447771E+02  0.24021948909E+02  0.36024652000E+02  0.00000000000E+00 0.  1.
</event>
<event>
 7    1  0.5479172E-013  0.5052885E+02  0.7816164E-02  0.1300439E+00
        -11   -1    0    0    0    0  0.00000000000E+00  0.00000000000E+00  0.45593999997E+02  0.45594000000E+02  0.51100000000E-03 0. -1.
         11   -1    0    0    0    0 -0.00000000000E+00 -0.00000000000E+00 -0.45593999997E+02  0.45594000000E+02  0.51100000000E-03 0.  1.
    9900012    2    1    2    0    0  0.26131339831E+02  0.13870710267E+02 -0.27891277184E+02  0.50528845218E+02  0.29999955524E+02 0.  0.
         12    1    1    2    0    0 -0.26131339831E+02 -0.13870710267E+02  0.27891277184E+02  0.40659154782E+02  0.00000000000E+00 0. -1.
         11    1    3    3    0    0  0.21255805767E+02  0.93394519240E+01 -0.29302755393E+02  0.37385640491E+02  0.51100000000E-03 0.  1.
        -11    1    3    3    0    0  0.82862192522E+01  0.17588119075E+01  0.20134032780E+01  0.87068158268E+01  0.51100000000E-03 0. -1.
        -12    1    3    3    0    0 -0.34106851879E+01  0.27724464353E+01 -0.60192506898E+00  0.44363889004E+01  0.00000000000E+00 0.  1.
</event>
<event>
 7    1  0.5479172E-013  0.5052883E+02  0.7816164E-02  0.1300439E+00
        -11   -1    0    0    0    0  0.00000000000E+00  0.00000000000E+00  0.45593999997E+02  0.45594000000E+02  0.51100000000E-03 0.  1.
         11   -1    0    0    0    0 -0.00000000000E+00 -0.00000000000E+00 -0.45593999997E+02  0.45594000000E+02  0.51100000000E-03 0. -1.
    9900012    2    1    2    0    0  0.13924292629E+02  0.22619976463E+02  0.30783413496E+02  0.50528833667E+02  0.29999920415E+02 0.  0.
         12    1    1    2    0    0 -0.13924292629E+02 -0.22619976463E+02 -0.30783413496E+02  0.40659166333E+02  0.00000000000E+00 0. -1.
         11    1    3    3    0    0 -0.81040604756E+01  0.49131254391E+01  0.38146626695E+01  0.10215980096E+02  0.51100000000E-03 0. -1.
        -11    1    3    3    0    0 -0.86949320432E+00  0.20048628866E+01  0.16598520042E+01  0.27441943378E+01  0.51100000000E-03 0.  1.
        -12    1    3    3    0    0  0.22897846309E+02  0.15701988137E+02  0.25308898822E+02  0.37568659234E+02  0.00000000000E+00 0.  1.
</event>
<event>
 7    1  0.5479172E-013  0.5052883E+02  0.7816164E-02  0.1300439E+00
        -11   -1    0    0    0    0  0.00000000000E+00  0.00000000000E+00  0.45593999997E+02  0.45594000000E+02  0.51100000000E-03 0.  1.
         11   -1    0    0    0    0 -0.00000000000E+00 -0.00000000000E+00 -0.45593999997E+02  0.45594000000E+02  0.51100000000E-03 0. -1.
    9900012    2    1    2    0    0 -0.28868567114E+02  0.28044808681E+02 -0.57673442315E+01  0.50528834727E+02  0.29999923637E+02 0.  0.
         12    1    1    2    0    0  0.28868567114E+02 -0.28044808681E+02  0.57673442315E+01  0.40659165273E+02  0.00000000000E+00 0. -1.
         11    1    3    3    0    0 -0.18185638791E+01  0.70502960657E+01 -0.80411752723E+01  0.10847780843E+02  0.51100000000E-03 0. -1.
        -11    1    3    3    0    0  0.80549748187E-02  0.30821427705E+01 -0.55075182416E+01  0.63112935586E+01  0.51100000000E-03 0.  1.
        -12    1    3    3    0    0 -0.27058058210E+02  0.17912369845E+02  0.77813492824E+01  0.33369760326E+02  0.00000000000E+00 0.  1.
</event>
<event>
 7    1  0.5479172E-013  0.5052885E+02  0.7816164E-02  0.1300439E+00
        -11   -1    0    0    0    0  0.00000000000E+00  0.00000000000E+00  0.45593999997E+02  0.45594000000E+02  0.51100000000E-03 0.  1.
         11   -1    0    0    0    0 -0.00000000000E+00 -0.00000000000E+00 -0.45593999997E+02  0.45594000000E+02  0.51100000000E-03 0. -1.
    9900012    2    1    2    0    0 -0.31311274641E+02  0.37130731762E+01  0.25670672869E+02  0.50528852473E+02  0.29999977576E+02 0.  0.
         12    1    1    2    0    0  0.31311274641E+02 -0.37130731762E+01 -0.25670672869E+02  0.40659147527E+02  0.00000000000E+00 0. -1.
         11    1    3    3    0    0 -0.59203421683E+01 -0.27627944973E+01 -0.40264244503E+01  0.76743455056E+01  0.51100000000E-03 0. -1.
        -11    1    3    3    0    0 -0.10171328324E+02  0.27211003066E+01  0.15581128557E+01  0.10643684639E+02  0.51100000000E-03 0.  1.
        -12    1    3    3    0    0 -0.15219604149E+02  0.37547673670E+01  0.28138984464E+02  0.32210822329E+02  0.00000000000E+00 0.  1.
</event>
<event>
 7    1  0.5479172E-013  0.5052886E+02  0.7816164E-02  0.1300439E+00
        -11   -1    0    0    0    0  0.00000000000E+00  0.00000000000E+00  0.45593999997E+02  0.45594000000E+02  0.51100000000E-03 0. -1.
         11   -1    0    0    0    0 -0.00000000000E+00 -0.00000000000E+00 -0.45593999997E+02  0.45594000000E+02  0.51100000000E-03 0.  1.
    9900012    2    1    2    0    0  0.36763787522E+02  0.16178276304E+02 -0.63129240363E+01  0.50528859490E+02  0.29999998906E+02 0.  0.
         12    1    1    2    0    0 -0.36763787522E+02 -0.16178276304E+02  0.63129240363E+01  0.40659140510E+02  0.00000000000E+00 0. -1.
         11    1    3    3    0    0  0.44736010434E+00 -0.53430475968E+01 -0.32496678928E+00  0.53715819235E+01  0.51100000000E-03 0. -1.
        -11    1    3    3    0    0  0.73556540945E+01 -0.15070341973E+01 -0.28234865662E+01  0.80217751078E+01  0.51100000000E-03 0.  1.
        -12    1    3    3    0    0  0.28960773323E+02  0.23028358098E+02 -0.31644706808E+01  0.37135502459E+02  0.00000000000E+00 0.  1.
</event>
<event>
 7    1  0.5479172E-013  0.5052885E+02  0.7816164E-02  0.1300439E+00
        -11   -1    0    0    0    0  0.00000000000E+00  0.00000000000E+00  0.45593999997E+02  0.45594000000E+02  0.51100000000E-03 0.  1.
         11   -1    0    0    0    0 -0.00000000000E+00 -0.00000000000E+00 -0.45593999997E+02  0.45594000000E+02  0.51100000000E-03 0. -1.
    9900012    2    1    2    0    0 -0.12444635219E+01  0.14011879745E+02  0.38148202519E+02  0.50528845817E+02  0.29999957345E+02 0.  0.
         12    1    1    2    0    0  0.12444635219E+01 -0.14011879745E+02 -0.38148202519E+02  0.40659154183E+02  0.00000000000E+00 0. -1.
         11    1    3    3    0    0  0.24414721491E+01  0.31206548231E+01  0.77524337405E+01  0.87062909406E+01  0.51100000000E-03 0. -1.
        -11    1    3    3    0    0  0.38634457190E+01  0.95661411120E+01  0.32314344368E+02  0.33921293030E+02  0.51100000000E-03 0.  1.
        -12    1    3    3    0    0 -0.75493813900E+01  0.13250838095E+01 -0.19185755895E+01  0.79012618464E+01  0.00000000000E+00 0.  1.
</event>
<event>
 7    1  0.5479172E-013  0.5052886E+02  0.7816164E-02  0.1300439E+00
        -11   -1    0    0    0    0  0.00000000000E+00  0.00000000000E+00  0.45593999997E+02  0.45594000000E+02  0.51100000000E-03 0. -1.
         11   -1    0    0    0    0 -0.00000000000E+00 -0.00000000000E+00 -0.45593999997E+02  0.45594000000E+02  0.51100000000E-03 0.  1.
    9900012    2    1    2    0    0  0.11569535830E+02 -0.31065164207E+02 -0.23542882486E+02  0.50528857088E+02  0.29999991606E+02 0.  0.
         12    1    1    2    0    0 -0.11569535830E+02  0.31065164207E+02  0.23542882486E+02  0.40659142912E+02  0.00000000000E+00 0. -1.
         11    1    3    3    0    0  0.87779949477E+00 -0.56356282317E+01  0.51979475413E+01  0.77168320198E+01  0.51100000000E-03 0. -1.
        -11    1    3    3    0    0  0.35866904041E+01 -0.42441438211E+01  0.96540148891E+00  0.56399561279E+01  0.51100000000E-03 0.  1.
        -12    1    3    3    0    0  0.71050459308E+01 -0.21185392154E+02 -0.29706231517E+02  0.37172068941E+02  0.00000000000E+00 0.  1.
</event>
<event>
 7    1  0.5479172E-013  0.5052887E+02  0.7816164E-02  0.1300439E+00
        -11   -1    0    0    0    0  0.00000000000E+00  0.00000000000E+00  0.45593999997E+02  0.45594000000E+02  0.51100000000E-03 0.  1.
         11   -1    0    0    0    0 -0.00000000000E+00 -0.00000000000E+00 -0.45593999997E+02  0.45594000000E+02  0.51100000000E-03 0. -1.
    9900012    2    1    2    0    0 -0.23506542187E+01  0.26242169558E+02  0.30967527734E+02  0.50528870492E+02  0.30000032348E+02 0.  0.
         12    1    1    2    0    0  0.23506542187E+01 -0.26242169558E+02 -0.30967527734E+02  0.40659129508E+02  0.00000000000E+00 0. -1.
         11    1    3    3    0    0 -0.72915892535E+01  0.62809595693E+01  0.89976930781E+01  0.13174832369E+02  0.51100000000E-03 0. -1.
        -11    1    3    3    0    0 -0.54256696636E+01 -0.62995581488E+00  0.99610034300E+01  0.11360296001E+02  0.51100000000E-03 0.  1.
        -12    1    3    3    0    0  0.10366604698E+02  0.20591165804E+02  0.12008831226E+02  0.25993742123E+02  0.00000000000E+00 0.  1.
</event>
<event>
 7    1  0.5479172E-013  0.5052885E+02  0.7816164E-02  0.1300439E+00
        -11   -1    0    0    0    0  0.00000000000E+00  0.00000000000E+00  0.45593999997E+02  0.45594000000E+02  0.51100000000E-03 0.  1.
         11   -1    0    0    0    0 -0.00000000000E+00 -0.00000000000E+00 -0.45593999997E+02  0.45594000000E+02  0.51100000000E-03 0. -1.
    9900012    2    1    2    0    0 -0.20132335112E+02  0.25961301018E+02  0.23955501991E+02  0.50528854126E+02  0.29999982601E+02 0.  0.
         12    1    1    2    0    0  0.20132335112E+02 -0.25961301018E+02 -0.23955501991E+02  0.40659145874E+02  0.00000000000E+00 0. -1.
         11    1    3    3    0    0 -0.29017290038E+01  0.14068321846E+02  0.57103081417E+01  0.15457856582E+02  0.51100000000E-03 0. -1.
        -11    1    3    3    0    0  0.81549166194E+00  0.88577512663E+01 -0.45479052119E+00  0.89068298977E+01  0.51100000000E-03 0.  1.
        -12    1    3    3    0    0 -0.18046097770E+02  0.30352279052E+01  0.18699984370E+02  0.26164167646E+02  0.00000000000E+00 0.  1.
</event>
<event>
 7    1  0.5479172E-013  0.5052886E+02  0.7816164E-02  0.1300439E+00
        -11   -1    0    0    0    0  0.00000000000E+00  0.00000000000E+00  0.45593999997E+02  0.45594000000E+02  0.51100000000E-03 0. -1.
         11   -1    0    0    0    0 -0.00000000000E+00 -0.00000000000E+00 -0.45593999997E+02  0.45594000000E+02  0.51100000000E-03 0.  1.
    9900012    2    1    2    0    0  0.10416778574E+00  0.20616518836E+02 -0.35044457001E+02  0.50528859990E+02  0.30000000426E+02 0.  0.
         12    1    1    2    0    0 -0.10416778574E+00 -0.20616518836E+02  0.35044457001E+02  0.40659140010E+02  0.00000000000E+00 0. -1.
         11    1    3    3    0    0  0.52282689112E+01  0.18483634375E+02 -0.13226668066E+02  0.23322184372E+02  0.51100000000E-03 0. -1.
        -11    1    3    3    0    0 -0.13923009865E+01  0.83490205636E+01 -0.82314986270E+01  0.11806871572E+02  0.51100000000E-03 0.  1.
         12    1    3    3    0    0 -0.37318001389E+01 -0.62161361020E+01 -0.13586290308E+02  0.15399804046E+02  0.00000000000E+00 0. -1.
</event>
<event>
 7    1  0.5479172E-013  0.5052886E+02  0.7816164E-02  0.1300439E+00
        -11   -1    0    0    0    0  0.00000000000E+00  0.00000000000E+00  0.45593999997E+02  0.45594000000E+02  0.51100000000E-03 0.  1.
         11   -1    0    0    0    0 -0.00000000000E+00 -0.00000000000E+00 -0.45593999997E+02  0.45594000000E+02  0.51100000000E-03 0. -1.
    9900012    2    1    2    0    0 -0.21426663924E+02 -0.54190107343E+01  0.34127667850E+02  0.50528864284E+02  0.30000013478E+02 0.  0.
         12    1    1    2    0    0  0.21426663924E+02  0.54190107343E+01 -0.34127667850E+02  0.40659135716E+02  0.00000000000E+00 0. -1.
         11    1    3    3    0    0 -0.30417741437E+00  0.30898468033E+01 -0.17582423526E+01  0.35680658064E+01  0.51100000000E-03 0. -1.
        -11    1    3    3    0    0 -0.15857542241E+01  0.36039321006E+00  0.20486097907E+02  0.20550540320E+02  0.51100000000E-03 0.  1.
         12    1    3    3    0    0 -0.19536732285E+02 -0.88692507477E+01  0.15399812296E+02  0.26410258158E+02  0.00000000000E+00 0. -1.
</event>
<event>
 7    1  0.5479172E-013  0.5052886E+02  0.7816164E-02  0.1300439E+00
        -11   -1    0    0    0    0  0.00000000000E+00  0.00000000000E+00  0.45593999997E+02  0.45594000000E+02  0.51100000000E-03 0. -1.
         11   -1    0    0    0    0 -0.00000000000E+00 -0.00000000000E+00 -0.45593999997E+02  0.45594000000E+02  0.51100000000E-03 0.  1.
    9900012    2    1    2    0    0 -0.29416093783E+01  0.22201098248E+02 -0.33935585297E+02  0.50528858610E+02  0.29999996230E+02 0.  0.
         12    1    1    2    0    0  0.29416093783E+01 -0.22201098248E+02  0.33935585297E+02  0.40659141390E+02  0.00000000000E+00 0. -1.
         11    1    3    3    0    0 -0.11262127633E+02  0.56765297563E+01 -0.16375951404E+02  0.20669549911E+02  0.51100000000E-03 0. -1.
        -11    1    3    3    0    0 -0.10942204713E+01 -0.22883290719E+01 -0.12999726063E+00  0.25398165150E+01  0.51100000000E-03 0.  1.
        -12    1    3    3    0    0  0.94147387259E+01  0.18812897563E+02 -0.17429636633E+02  0.27319492184E+02  0.00000000000E+00 0.  1.
</event>
<event>
 7    1  0.5479172E-013  0.5052886E+02  0.7816164E-02  0.1300439E+00
        -11   -1    0    0    0    0  0.00000000000E+00  0.00000000000E+00  0.45593999997E+02  0.45594000000E+02  0.51100000000E-03 0. -1.
         11   -1    0    0    0    0 -0.00000000000E+00 -0.00000000000E+00 -0.45593999997E+02  0.45594000000E+02  0.51100000000E-03 0.  1.
    9900012    2    1    2    0    0 -0.23087760430E+01  0.40136745169E+02  0.60726407145E+01  0.50528859271E+02  0.29999998240E+02 0.  0.
         12    1    1    2    0    0  0.23087760430E+01 -0.40136745169E+02 -0.60726407145E+01  0.40659140729E+02  0.00000000000E+00 0. -1.
         11    1    3    3    0    0  0.60841371317E+01  0.13132437602E+02 -0.67983900284E+00  0.14489300305E+02  0.51100000000E-03 0. -1.
        -11    1    3    3    0    0  0.47407555067E+01  0.98928621769E+01 -0.43235770900E+01  0.11791386854E+02  0.51100000000E-03 0.  1.
         12    1    3    3    0    0 -0.13133668681E+02  0.17111445390E+02  0.11076056807E+02  0.24248172112E+02  0.00000000000E+00 0. -1.
</event>
<event>
 7    1  0.5479172E-013  0.5052885E+02  0.7816164E-02  0.1300439E+00
        -11   -1    0    0    0    0  0.00000000000E+00  0.00000000000E+00  0.45593999997E+02  0.45594000000E+02  0.51100000000E-03 0.  1.
         11   -1    0    0    0    0 -0.00000000000E+00 -0.00000000000E+00 -0.45593999997E+02  0.45594000000E+02  0.51100000000E-03 0. -1.
    9900012    2    1    2    0    0  0.18007711393E+02  0.15190375163E+02  0.33138212192E+02  0.50528852512E+02  0.29999977694E+02 0.  0.
         12    1    1    2    0    0 -0.18007711393E+02 -0.15190375163E+02 -0.33138212192E+02  0.40659147488E+02  0.00000000000E+00 0. -1.
         11    1    3    3    0    0 -0.48270816787E+01  0.85240802586E+01  0.94107340351E+01  0.13583908757E+02  0.51100000000E-03 0. -1.
        -11    1    3    3    0    0  0.10377102734E+02  0.41289639231E+01  0.21230075807E+02  0.23988512319E+02  0.51100000000E-03 0.  1.
        -12    1    3    3    0    0  0.12457690337E+02  0.25373309810E+01  0.24974023504E+01  0.12956431436E+02  0.00000000000E+00 0.  1.
</event>
<event>
 7    1  0.5479172E-013  0.5052884E+02  0.7816164E-02  0.1300439E+00
        -11   -1    0    0    0    0  0.00000000000E+00  0.00000000000E+00  0.45593999997E+02  0.45594000000E+02  0.51100000000E-03 0. -1.
         11   -1    0    0    0    0 -0.00000000000E+00 -0.00000000000E+00 -0.45593999997E+02  0.45594000000E+02  0.51100000000E-03 0.  1.
    9900012    2    1    2    0    0 -0.33540784583E+02 -0.20931488603E+02  0.94897933149E+01  0.50528835932E+02  0.29999927298E+02 0.  0.
         12    1    1    2    0    0  0.33540784583E+02  0.20931488603E+02 -0.94897933149E+01  0.40659164068E+02  0.00000000000E+00 0. -1.
         11    1    3    3    0    0 -0.23303037712E+02 -0.29741473188E+01  0.68924088144E+01  0.24482287851E+02  0.51100000000E-03 0. -1.
        -11    1    3    3    0    0 -0.13924323480E+02 -0.13306851913E+02 -0.67021435683E+00  0.19271955785E+02  0.51100000000E-03 0.  1.
        -12    1    3    3    0    0  0.36865766094E+01 -0.46504893715E+01  0.32675988572E+01  0.67745922965E+01  0.00000000000E+00 0.  1.
</event>
<event>
 7    1  0.5479172E-013  0.5052887E+02  0.7816164E-02  0.1300439E+00
        -11   -1    0    0    0    0  0.00000000000E+00  0.00000000000E+00  0.45593999997E+02  0.45594000000E+02  0.51100000000E-03 0. -1.
         11   -1    0    0    0    0 -0.00000000000E+00 -0.00000000000E+00 -0.45593999997E+02  0.45594000000E+02  0.51100000000E-03 0.  1.
    9900012    2    1    2    0    0  0.33180603505E+02  0.21693101814E+02 -0.90344583771E+01  0.50528873676E+02  0.30000042025E+02 0.  0.
         12    1    1    2    0    0 -0.33180603505E+02 -0.21693101814E+02  0.90344583771E+01  0.40659126324E+02  0.00000000000E+00 0. -1.
         11    1    3    3    0    0  0.79090325245E+01  0.71353898873E+01  0.38157598201E+01  0.11314884338E+02  0.51100000000E-03 0. -1.
        -11    1    3    3    0    0  0.12528712268E+02  0.16475441249E+02  0.43924194829E+00  0.20702698597E+02  0.51100000000E-03 0.  1.
         12    1    3    3    0    0  0.12742858712E+02 -0.19177293224E+01 -0.13289460146E+02  0.18511290740E+02  0.00000000000E+00 0. -1.
</event>
<event>
 7    1  0.5479172E-013  0.5052886E+02  0.7816164E-02  0.1300439E+00
        -11   -1    0    0    0    0  0.00000000000E+00  0.00000000000E+00  0.45593999997E+02  0.45594000000E+02  0.51100000000E-03 0.  1.
         11   -1    0    0    0    0 -0.00000000000E+00 -0.00000000000E+00 -0.45593999997E+02  0.45594000000E+02  0.51100000000E-03 0. -1.
    9900012    2    1    2    0    0  0.30448382296E+02 -0.22534331765E+02  0.14773818024E+02  0.50528858450E+02  0.29999995745E+02 0.  0.
         12    1    1    2    0    0 -0.30448382296E+02  0.22534331765E+02 -0.14773818024E+02  0.40659141550E+02  0.00000000000E+00 0. -1.
         11    1    3    3    0    0 -0.30881938684E+01 -0.28405081085E+01  0.35233737937E+01  0.54790136735E+01  0.51100000000E-03 0. -1.
        -11    1    3    3    0    0  0.83088004699E+01 -0.12099503081E+02  0.11589486024E+02  0.18701612941E+02  0.51100000000E-03 0.  1.
        -12    1    3    3    0    0  0.25227775695E+02 -0.75943205758E+01 -0.33904179329E+00  0.26348231835E+02  0.00000000000E+00 0.  1.
</event>
<event>
 7    1  0.5479172E-013  0.5052879E+02  0.7816164E-02  0.1300439E+00
        -11   -1    0    0    0    0  0.00000000000E+00  0.00000000000E+00  0.45593999997E+02  0.45594000000E+02  0.51100000000E-03 0.  1.
         11   -1    0    0    0    0 -0.00000000000E+00 -0.00000000000E+00 -0.45593999997E+02  0.45594000000E+02  0.51100000000E-03 0. -1.
    9900012    2    1    2    0    0 -0.20200616297E+02  0.91002203909E+01  0.34092405290E+02  0.50528794297E+02  0.29999800746E+02 0.  0.
         12    1    1    2    0    0  0.20200616297E+02 -0.91002203909E+01 -0.34092405290E+02  0.40659205703E+02  0.00000000000E+00 0. -1.
         11    1    3    3    0    0 -0.10929538815E+02  0.19063960281E+01  0.53117958063E+01  0.12300582892E+02  0.51100000000E-03 0. -1.
        -11    1    3    3    0    0 -0.82782085272E+01 -0.18763631275E+00 -0.22324128001E+00  0.82833435723E+01  0.51100000000E-03 0.  1.
         12    1    3    3    0    0 -0.99286895444E+00  0.73814606755E+01  0.29003850763E+02  0.29944867834E+02  0.00000000000E+00 0. -1.
</event>
<event>
 7    1  0.5479172E-013  0.5052885E+02  0.7816164E-02  0.1300439E+00
        -11   -1    0    0    0    0  0.00000000000E+00  0.00000000000E+00  0.45593999997E+02  0.45594000000E+02  0.51100000000E-03 0.  1.
         11   -1    0    0    0    0 -0.00000000000E+00 -0.00000000000E+00 -0.45593999997E+02  0.45594000000E+02  0.51100000000E-03 0. -1.
    9900012    2    1    2    0    0 -0.20861057220E+02 -0.34613347650E+02  0.44608270955E+01  0.50528849465E+02  0.29999968432E+02 0.  0.
         12    1    1    2    0    0  0.20861057220E+02  0.34613347650E+02 -0.44608270955E+01  0.40659150535E+02  0.00000000000E+00 0. -1.
         11    1    3    3    0    0 -0.15584039575E+02 -0.19130801898E+02 -0.58176371739E+00  0.24681740619E+02  0.51100000000E-03 0. -1.
        -11    1    3    3    0    0 -0.66986674321E+01  0.24574051230E+01 -0.81418239415E-01  0.71356579582E+01  0.51100000000E-03 0.  1.
        -12    1    3    3    0    0  0.14216497868E+01 -0.17939950875E+02  0.51240090523E+01  0.18711450887E+02  0.00000000000E+00 0.  1.
</event>
<event>
 7    1  0.5479172E-013  0.5052888E+02  0.7816164E-02  0.1300439E+00
        -11   -1    0    0    0    0  0.00000000000E+00  0.00000000000E+00  0.45593999997E+02  0.45594000000E+02  0.51100000000E-03 0. -1.
         11   -1    0    0    0    0 -0.00000000000E+00 -0.00000000000E+00 -0.45593999997E+02  0.45594000000E+02  0.51100000000E-03 0.  1.
    9900012    2    1    2    0    0 -0.29513261363E+02  0.47899998495E+01 -0.27553361345E+02  0.50528875363E+02  0.30000047155E+02 0.  0.
         12    1    1    2    0    0  0.29513261363E+02 -0.47899998495E+01  0.27553361345E+02  0.40659124637E+02  0.00000000000E+00 0. -1.
         11    1    3    3    0    0 -0.21035977609E+02 -0.72640668739E+01 -0.10264424162E+02  0.24507905361E+02  0.51100000000E-03 0. -1.
        -11    1    3    3    0    0  0.13111726135E+01  0.90198842668E+01 -0.93511240937E+01  0.13058369266E+02  0.51100000000E-03 0.  1.
         12    1    3    3    0    0 -0.97884563668E+01  0.30341824566E+01 -0.79378130893E+01  0.12962600737E+02  0.00000000000E+00 0. -1.
</event>
<event>
 7    1  0.5479172E-013  0.5052886E+02  0.7816164E-02  0.1300439E+00
        -11   -1    0    0    0    0  0.00000000000E+00  0.00000000000E+00  0.45593999997E+02  0.45594000000E+02  0.51100000000E-03 0.  1.
         11   -1    0    0    0    0 -0.00000000000E+00 -0.00000000000E+00 -0.45593999997E+02  0.45594000000E+02  0.51100000000E-03 0. -1.
    9900012    2    1    2    0    0  0.29031812549E+02 -0.76638265270E+01  0.27415052287E+02  0.50528862419E+02  0.30000007809E+02 0.  0.
         12    1    1    2    0    0 -0.29031812549E+02  0.76638265270E+01 -0.27415052287E+02  0.40659137581E+02  0.00000000000E+00 0. -1.
         11    1    3    3    0    0  0.10280998150E+02 -0.28916505124E+01  0.70767158323E+01  0.12811731845E+02  0.51100000000E-03 0. -1.
        -11    1    3    3    0    0  0.16225801873E+02  0.80380265781E+01  0.15355670503E+02  0.23742012016E+02  0.51100000000E-03 0.  1.
         12    1    3    3    0    0  0.25250125266E+01 -0.12810202593E+02  0.49826659515E+01  0.13975118558E+02  0.00000000000E+00 0. -1.
</event>
<event>
 7    1  0.5479172E-013  0.5052887E+02  0.7816164E-02  0.1300439E+00
        -11   -1    0    0    0    0  0.00000000000E+00  0.00000000000E+00  0.45593999997E+02  0.45594000000E+02  0.51100000000E-03 0. -1.
         11   -1    0    0    0    0 -0.00000000000E+00 -0.00000000000E+00 -0.45593999997E+02  0.45594000000E+02  0.51100000000E-03 0.  1.
    9900012    2    1    2    0    0  0.34603923258E+02 -0.21710587429E+01 -0.21237234448E+02  0.50528866611E+02  0.30000020552E+02 0.  0.
         12    1    1    2    0    0 -0.34603923258E+02  0.21710587429E+01  0.21237234448E+02  0.40659133389E+02  0.00000000000E+00 0. -1.
         11    1    3    3    0    0  0.12831249301E+02  0.51323710061E+01 -0.27789815930E+01  0.14096273612E+02  0.51100000000E-03 0.  1.
        -11    1    3    3    0    0  0.10363844387E+02 -0.21031629755E+01  0.35064332837E+01  0.11141258439E+02  0.51100000000E-03 0. -1.
         12    1    3    3    0    0  0.11408829570E+02 -0.52002667735E+01 -0.21964686139E+02  0.25291334560E+02  0.00000000000E+00 0. -1.
</event>
<event>
 7    1  0.5479172E-013  0.5052886E+02  0.7816164E-02  0.1300439E+00
        -11   -1    0    0    0    0  0.00000000000E+00  0.00000000000E+00  0.45593999997E+02  0.45594000000E+02  0.51100000000E-03 0.  1.
         11   -1    0    0    0    0 -0.00000000000E+00 -0.00000000000E+00 -0.45593999997E+02  0.45594000000E+02  0.51100000000E-03 0. -1.
    9900012    2    1    2    0    0  0.62103473000E+01  0.14880742049E+02  0.37325072696E+02  0.50528856511E+02  0.29999989850E+02 0.  0.
         12    1    1    2    0    0 -0.62103473000E+01 -0.14880742049E+02 -0.37325072696E+02  0.40659143489E+02  0.00000000000E+00 0. -1.
         11    1    3    3    0    0 -0.12862630480E+01 -0.66799431614E+00  0.13110379060E+01  0.19543565916E+01  0.51100000000E-03 0. -1.
        -11    1    3    3    0    0 -0.93188279574E+01  0.10514860193E+02  0.10216747802E+02  0.17371953698E+02  0.51100000000E-03 0.  1.
        -12    1    3    3    0    0  0.16815438305E+02  0.50338761722E+01  0.25797286988E+02  0.31202546221E+02  0.00000000000E+00 0.  1.
</event>
<event>
 7    1  0.5479172E-013  0.5052890E+02  0.7816164E-02  0.1300439E+00
        -11   -1    0    0    0    0  0.00000000000E+00  0.00000000000E+00  0.45593999997E+02  0.45594000000E+02  0.51100000000E-03 0.  1.
         11   -1    0    0    0    0 -0.00000000000E+00 -0.00000000000E+00 -0.45593999997E+02  0.45594000000E+02  0.51100000000E-03 0. -1.
    9900012    2    1    2    0    0 -0.36815845104E+02 -0.14233827583E+02  0.97547084511E+01  0.50528897264E+02  0.30000113722E+02 0.  0.
         12    1    1    2    0    0  0.36815845104E+02  0.14233827583E+02 -0.97547084511E+01  0.40659102736E+02  0.00000000000E+00 0. -1.
         11    1    3    3    0    0 -0.13975417334E+02  0.43662736330E+01 -0.68972235896E+01  0.16184817843E+02  0.51100000000E-03 0. -1.
        -11    1    3    3    0    0 -0.83384186493E+01 -0.10498806531E+02  0.68397717668E+01  0.15051134251E+02  0.51100000000E-03 0.  1.
        -12    1    3    3    0    0 -0.14502009120E+02 -0.81012946849E+01  0.98121602739E+01  0.19292945170E+02  0.00000000000E+00 0.  1.
</event>
<event>
 7    1  0.5479172E-013  0.5052888E+02  0.7816164E-02  0.1300439E+00
        -11   -1    0    0    0    0  0.00000000000E+00  0.00000000000E+00  0.45593999997E+02  0.45594000000E+02  0.51100000000E-03 0.  1.
         11   -1    0    0    0    0 -0.00000000000E+00 -0.00000000000E+00 -0.45593999997E+02  0.45594000000E+02  0.51100000000E-03 0. -1.
    9900012    2    1    2    0    0 -0.33522887265E+02 -0.21069130718E+02  0.92451041067E+01  0.50528878149E+02  0.30000055621E+02 0.  0.
         12    1    1    2    0    0  0.33522887265E+02  0.21069130718E+02 -0.92451041067E+01  0.40659121851E+02  0.00000000000E+00 0. -1.
         11    1    3    3    0    0 -0.30731509717E+01 -0.24358334750E+01  0.65325476362E+01  0.76191679660E+01  0.51100000000E-03 0.  1.
        -11    1    3    3    0    0 -0.14205016083E+02 -0.64092814936E+01  0.12844076701E+02  0.20194842851E+02  0.51100000000E-03 0. -1.
         12    1    3    3    0    0 -0.16244720210E+02 -0.12224015749E+02 -0.10131520231E+02  0.22714867332E+02  0.00000000000E+00 0. -1.
</event>
<event>
 7    1  0.5479172E-013  0.5052886E+02  0.7816164E-02  0.1300439E+00
        -11   -1    0    0    0    0  0.00000000000E+00  0.00000000000E+00  0.45593999997E+02  0.45594000000E+02  0.51100000000E-03 0.  1.
         11   -1    0    0    0    0 -0.00000000000E+00 -0.00000000000E+00 -0.45593999997E+02  0.45594000000E+02  0.51100000000E-03 0. -1.
    9900012    2    1    2    0    0  0.40330648454E+02  0.47358683550E+01  0.20436083681E+01  0.50528856023E+02  0.29999988367E+02 0.  0.
         12    1    1    2    0    0 -0.40330648454E+02 -0.47358683550E+01 -0.20436083681E+01  0.40659143977E+02  0.00000000000E+00 0. -1.
         11    1    3    3    0    0 -0.15769597316E+01  0.40910241509E+00  0.59573356623E+01  0.61760841345E+01  0.51100000000E-03 0. -1.
        -11    1    3    3    0    0  0.79649344448E+00  0.16393601320E+01  0.20291240030E+01  0.27274984749E+01  0.51100000000E-03 0.  1.
        -12    1    3    3    0    0  0.41111114741E+02  0.26874058079E+01 -0.59428512973E+01  0.41625273414E+02  0.00000000000E+00 0.  1.
</event>
<event>
 7    1  0.5479172E-013  0.5052894E+02  0.7816164E-02  0.1300439E+00
        -11   -1    0    0    0    0  0.00000000000E+00  0.00000000000E+00  0.45593999997E+02  0.45594000000E+02  0.51100000000E-03 0. -1.
         11   -1    0    0    0    0 -0.00000000000E+00 -0.00000000000E+00 -0.45593999997E+02  0.45594000000E+02  0.51100000000E-03 0.  1.
    9900012    2    1    2    0    0  0.28688325673E+02  0.20582963014E+02 -0.20161370685E+02  0.50528938719E+02  0.30000239728E+02 0.  0.
         12    1    1    2    0    0 -0.28688325673E+02 -0.20582963014E+02  0.20161370685E+02  0.40659061281E+02  0.00000000000E+00 0. -1.
         11    1    3    3    0    0  0.27928565728E+02  0.49614792654E+01 -0.11757946562E+02  0.30706194289E+02  0.51100000000E-03 0. -1.
        -11    1    3    3    0    0  0.15122667457E+01 -0.66321095522E+00 -0.77192694192E+00  0.18228195045E+01  0.51100000000E-03 0.  1.
        -12    1    3    3    0    0 -0.75250680003E+00  0.16284694704E+02 -0.76314971816E+01  0.17999924925E+02  0.00000000000E+00 0.  1.
</event>
<event>
 7    1  0.5479172E-013  0.5052886E+02  0.7816164E-02  0.1300439E+00
        -11   -1    0    0    0    0  0.00000000000E+00  0.00000000000E+00  0.45593999997E+02  0.45594000000E+02  0.51100000000E-03 0.  1.
         11   -1    0    0    0    0 -0.00000000000E+00 -0.00000000000E+00 -0.45593999997E+02  0.45594000000E+02  0.51100000000E-03 0. -1.
    9900012    2    1    2    0    0  0.38431038042E+02 -0.11289190842E+02  0.69839284498E+01  0.50528858698E+02  0.29999996497E+02 0.  0.
         12    1    1    2    0    0 -0.38431038042E+02  0.11289190842E+02 -0.69839284498E+01  0.40659141302E+02  0.00000000000E+00 0. -1.
         11    1    3    3    0    0  0.26259206523E+02 -0.51680365556E+01  0.12693219129E+02  0.29620471657E+02  0.51100000000E-03 0. -1.
        -11    1    3    3    0    0  0.61044706262E+01 -0.35837561144E+01  0.47703688684E+01  0.85360581603E+01  0.51100000000E-03 0.  1.
         12    1    3    3    0    0  0.60673608930E+01 -0.25373981721E+01 -0.10479659548E+02  0.12372328881E+02  0.00000000000E+00 0. -1.
</event>
<event>
 7    1  0.5479172E-013  0.5052886E+02  0.7816164E-02  0.1300439E+00
        -11   -1    0    0    0    0  0.00000000000E+00  0.00000000000E+00  0.45593999997E+02  0.45594000000E+02  0.51100000000E-03 0. -1.
         11   -1    0    0    0    0 -0.00000000000E+00 -0.00000000000E+00 -0.45593999997E+02  0.45594000000E+02  0.51100000000E-03 0.  1.
    9900012    2    1    2    0    0 -0.12224740225E+02 -0.25722770987E+02  0.29018280295E+02  0.50528858197E+02  0.29999994977E+02 0.  0.
         12    1    1    2    0    0  0.12224740225E+02  0.25722770987E+02 -0.29018280295E+02  0.40659141803E+02  0.00000000000E+00 0. -1.
         11    1    3    3    0    0  0.41663354564E+01 -0.39669107508E+01  0.29844395537E+01  0.64808650465E+01  0.51100000000E-03 0. -1.
        -11    1    3    3    0    0  0.33677292930E+01  0.58573546794E+00  0.91670634948E+01  0.97836465599E+01  0.51100000000E-03 0.  1.
        -12    1    3    3    0    0 -0.19758804974E+02 -0.22341595704E+02  0.16866777247E+02  0.34264346591E+02  0.00000000000E+00 0.  1.
</event>
<event>
 7    1  0.5479172E-013  0.5052886E+02  0.7816164E-02  0.1300439E+00
        -11   -1    0    0    0    0  0.00000000000E+00  0.00000000000E+00  0.45593999997E+02  0.45594000000E+02  0.51100000000E-03 0. -1.
         11   -1    0    0    0    0 -0.00000000000E+00 -0.00000000000E+00 -0.45593999997E+02  0.45594000000E+02  0.51100000000E-03 0.  1.
    9900012    2    1    2    0    0  0.13845995585E+02 -0.15232740638E+02 -0.35063058082E+02  0.50528855602E+02  0.29999987089E+02 0.  0.
         12    1    1    2    0    0 -0.13845995585E+02  0.15232740638E+02  0.35063058082E+02  0.40659144398E+02  0.00000000000E+00 0. -1.
         11    1    3    3    0    0 -0.16720229591E+01 -0.50096291931E+01 -0.15037694496E+02  0.15938139837E+02  0.51100000000E-03 0. -1.
        -11    1    3    3    0    0 -0.50731225277E+01 -0.46238236238E+01 -0.50352925483E+01  0.85129600254E+01  0.51100000000E-03 0.  1.
         12    1    3    3    0    0  0.20591141072E+02 -0.55992878215E+01 -0.14990071037E+02  0.26077755740E+02  0.00000000000E+00 0. -1.
</event>
<event>
 7    1  0.5479172E-013  0.5052887E+02  0.7816164E-02  0.1300439E+00
        -11   -1    0    0    0    0  0.00000000000E+00  0.00000000000E+00  0.45593999997E+02  0.45594000000E+02  0.51100000000E-03 0.  1.
         11   -1    0    0    0    0 -0.00000000000E+00 -0.00000000000E+00 -0.45593999997E+02  0.45594000000E+02  0.51100000000E-03 0. -1.
    9900012    2    1    2    0    0 -0.28569256352E+02 -0.18344017778E+02  0.22370953900E+02  0.50528868491E+02  0.30000026264E+02 0.  0.
         12    1    1    2    0    0  0.28569256352E+02  0.18344017778E+02 -0.22370953900E+02  0.40659131509E+02  0.00000000000E+00 0. -1.
         11    1    3    3    0    0 -0.18509065338E+02 -0.12668304358E+02  0.17625781414E+02  0.28526121463E+02  0.51100000000E-03 0. -1.
        -11    1    3    3    0    0  0.11771391256E+01 -0.78214148264E+01  0.67376404016E+01  0.10390186950E+02  0.51100000000E-03 0.  1.
         12    1    3    3    0    0 -0.11237330139E+02  0.21457014066E+01 -0.19924679155E+01  0.11612560078E+02  0.00000000000E+00 0. -1.
</event>
<event>
 7    1  0.5479172E-013  0.5052887E+02  0.7816164E-02  0.1300439E+00
        -11   -1    0    0    0    0  0.00000000000E+00  0.00000000000E+00  0.45593999997E+02  0.45594000000E+02  0.51100000000E-03 0.  1.
         11   -1    0    0    0    0 -0.00000000000E+00 -0.00000000000E+00 -0.45593999997E+02  0.45594000000E+02  0.51100000000E-03 0. -1.
    9900012    2    1    2    0    0  0.45003943844E+01 -0.15914794912E+02  0.37143377027E+02  0.50528871828E+02  0.30000036410E+02 0.  0.
         12    1    1    2    0    0 -0.45003943844E+01  0.15914794912E+02 -0.37143377027E+02  0.40659128172E+02  0.00000000000E+00 0. -1.
         11    1    3    3    0    0  0.54586440523E+01 -0.76156856475E+01  0.16939625156E+02  0.19358366756E+02  0.51100000000E-03 0.  1.
        -11    1    3    3    0    0  0.39935451629E+01 -0.14694836792E+02  0.10303431619E+02  0.18386063600E+02  0.51100000000E-03 0. -1.
         12    1    3    3    0    0 -0.49517948308E+01  0.63957275284E+01  0.99003202523E+01  0.12784441472E+02  0.00000000000E+00 0. -1.
</event>
<event>
 7    1  0.5479172E-013  0.5052886E+02  0.7816164E-02  0.1300439E+00
        -11   -1    0    0    0    0  0.00000000000E+00  0.00000000000E+00  0.45593999997E+02  0.45594000000E+02  0.51100000000E-03 0.  1.
         11   -1    0    0    0    0 -0.00000000000E+00 -0.00000000000E+00 -0.45593999997E+02  0.45594000000E+02  0.51100000000E-03 0. -1.
    9900012    2    1    2    0    0 -0.33093536064E+01 -0.27573910749E+02  0.29696690682E+02  0.50528858190E+02  0.29999994953E+02 0.  0.
         12    1    1    2    0    0  0.33093536064E+01  0.27573910749E+02 -0.29696690682E+02  0.40659141810E+02  0.00000000000E+00 0. -1.
         11    1    3    3    0    0 -0.76187447562E+01 -0.26112497263E+02  0.10184628008E+02  0.29045385742E+02  0.51100000000E-03 0. -1.
        -11    1    3    3    0    0  0.66090708309E+00 -0.38736245676E+01  0.51987561421E+01  0.65168114250E+01  0.51100000000E-03 0.  1.
        -12    1    3    3    0    0  0.36484840667E+01  0.24122110820E+01  0.14313306532E+02  0.14966661022E+02  0.00000000000E+00 0.  1.
</event>
<event>
 7    1  0.5479172E-013  0.5052886E+02  0.7816164E-02  0.1300439E+00
        -11   -1    0    0    0    0  0.00000000000E+00  0.00000000000E+00  0.45593999997E+02  0.45594000000E+02  0.51100000000E-03 0.  1.
         11   -1    0    0    0    0 -0.00000000000E+00 -0.00000000000E+00 -0.45593999997E+02  0.45594000000E+02  0.51100000000E-03 0. -1.
    9900012    2    1    2    0    0 -0.44909025494E+01 -0.61690309491E+01  0.39936709350E+02  0.50528857089E+02  0.29999991609E+02 0.  0.
         12    1    1    2    0    0  0.44909025494E+01  0.61690309491E+01 -0.39936709350E+02  0.40659142911E+02  0.00000000000E+00 0. -1.
         11    1    3    3    0    0 -0.46981107843E+01 -0.20227438603E+01  0.31708047880E+02  0.32117970643E+02  0.51100000000E-03 0.  1.
        -11    1    3    3    0    0 -0.68899876008E+01 -0.52954467381E+01  0.69077294587E+01  0.11100919414E+02  0.51100000000E-03 0. -1.
         12    1    3    3    0    0  0.70971958358E+01  0.11491596494E+01  0.13209320114E+01  0.73099670320E+01  0.00000000000E+00 0. -1.
</event>
<event>
 7    1  0.5479172E-013  0.5052886E+02  0.7816164E-02  0.1300439E+00
        -11   -1    0    0    0    0  0.00000000000E+00  0.00000000000E+00  0.45593999997E+02  0.45594000000E+02  0.51100000000E-03 0.  1.
         11   -1    0    0    0    0 -0.00000000000E+00 -0.00000000000E+00 -0.45593999997E+02  0.45594000000E+02  0.51100000000E-03 0. -1.
    9900012    2    1    2    0    0  0.22088984103E+02 -0.33743352256E+02  0.51602589036E+01  0.50528864346E+02  0.30000013667E+02 0.  0.
         12    1    1    2    0    0 -0.22088984103E+02  0.33743352256E+02 -0.51602589036E+01  0.40659135654E+02  0.00000000000E+00 0. -1.
         11    1    3    3    0    0  0.76118036289E+01 -0.16341274121E-01  0.22413573429E+00  0.76151203937E+01  0.51100000000E-03 0. -1.
        -11    1    3    3    0    0  0.11663250212E+02 -0.41338261810E+01 -0.15994713376E+01  0.12477108368E+02  0.51100000000E-03 0.  1.
        -12    1    3    3    0    0  0.28139302621E+01 -0.29593184801E+02  0.65355945069E+01  0.30436635585E+02  0.00000000000E+00 0.  1.
</event>
<event>
 7    1  0.5479172E-013  0.5052886E+02  0.7816164E-02  0.1300439E+00
        -11   -1    0    0    0    0  0.00000000000E+00  0.00000000000E+00  0.45593999997E+02  0.45594000000E+02  0.51100000000E-03 0.  1.
         11   -1    0    0    0    0 -0.00000000000E+00 -0.00000000000E+00 -0.45593999997E+02  0.45594000000E+02  0.51100000000E-03 0. -1.
    9900012    2    1    2    0    0  0.70500054199E+01 -0.17260689438E+02  0.36132143296E+02  0.50528858894E+02  0.29999997094E+02 0.  0.
         12    1    1    2    0    0 -0.70500054199E+01  0.17260689438E+02 -0.36132143296E+02  0.40659141106E+02  0.00000000000E+00 0. -1.
         11    1    3    3    0    0 -0.38170572796E+01 -0.51555572931E+01 -0.26307938044E+01  0.69333089921E+01  0.51100000000E-03 0. -1.
        -11    1    3    3    0    0  0.15256458577E+01 -0.10182698810E+02  0.17763473521E+02  0.20531827540E+02  0.51100000000E-03 0.  1.
        -12    1    3    3    0    0  0.93414168418E+01 -0.19224333342E+01  0.20999463580E+02  0.23063722362E+02  0.00000000000E+00 0.  1.
</event>
<event>
 7    1  0.5479172E-013  0.5052886E+02  0.7816164E-02  0.1300439E+00
        -11   -1    0    0    0    0  0.00000000000E+00  0.00000000000E+00  0.45593999997E+02  0.45594000000E+02  0.51100000000E-03 0.  1.
         11   -1    0    0    0    0 -0.00000000000E+00 -0.00000000000E+00 -0.45593999997E+02  0.45594000000E+02  0.51100000000E-03 0. -1.
    9900012    2    1    2    0    0 -0.15393610727E+02  0.34254150299E+00  0.37630908009E+02  0.50528858058E+02  0.29999994553E+02 0.  0.
         12    1    1    2    0    0  0.15393610727E+02 -0.34254150299E+00 -0.37630908009E+02  0.40659141942E+02  0.00000000000E+00 0. -1.
         11    1    3    3    0    0 -0.60818615698E+01 -0.59528267216E+01  0.19124843356E+02  0.20932864586E+02  0.51100000000E-03 0. -1.
        -11    1    3    3    0    0 -0.49176309292E+01  0.40217010864E+01  0.22410441047E+02  0.23293454913E+02  0.51100000000E-03 0.  1.
        -12    1    3    3    0    0 -0.43941182283E+01  0.22736671382E+01 -0.39043763945E+01  0.63025385591E+01  0.00000000000E+00 0.  1.
</event>
<event>
 7    1  0.5479172E-013  0.5052887E+02  0.7816164E-02  0.1300439E+00
        -11   -1    0    0    0    0  0.00000000000E+00  0.00000000000E+00  0.45593999997E+02  0.45594000000E+02  0.51100000000E-03 0.  1.
         11   -1    0    0    0    0 -0.00000000000E+00 -0.00000000000E+00 -0.45593999997E+02  0.45594000000E+02  0.51100000000E-03 0. -1.
    9900012    2    1    2    0    0  0.29512512779E+02 -0.19762374479E+02  0.19789522072E+02  0.50528867700E+02  0.30000023861E+02 0.  0.
         12    1    1    2    0    0 -0.29512512779E+02  0.19762374479E+02 -0.19789522072E+02  0.40659132300E+02  0.00000000000E+00 0. -1.
         11    1    3    3    0    0  0.19957624425E+01 -0.11357085812E+02  0.46791470205E+00  0.11540598351E+02  0.51100000000E-03 0. -1.
        -11    1    3    3    0    0  0.22839807098E+00 -0.54746542017E+01  0.70380524031E+01  0.89195395732E+01  0.51100000000E-03 0.  1.
         12    1    3    3    0    0  0.27288352265E+02 -0.29306344649E+01  0.12283554967E+02  0.30068729776E+02  0.00000000000E+00 0. -1.
</event>
<event>
 7    1  0.5479172E-013  0.5052888E+02  0.7816164E-02  0.1300439E+00
        -11   -1    0    0    0    0  0.00000000000E+00  0.00000000000E+00  0.45593999997E+02  0.45594000000E+02  0.51100000000E-03 0.  1.
         11   -1    0    0    0    0 -0.00000000000E+00 -0.00000000000E+00 -0.45593999997E+02  0.45594000000E+02  0.51100000000E-03 0. -1.
    9900012    2    1    2    0    0 -0.57493515580E+01 -0.14678591191E+02  0.37478632759E+02  0.50528880529E+02  0.30000062856E+02 0.  0.
         12    1    1    2    0    0  0.57493515580E+01  0.14678591191E+02 -0.37478632759E+02  0.40659119471E+02  0.00000000000E+00 0. -1.
         11    1    3    3    0    0 -0.74450809768E+01  0.71804612363E+00  0.23763770946E+02  0.24913081520E+02  0.51100000000E-03 0. -1.
        -11    1    3    3    0    0 -0.57304004014E+01 -0.12198753274E+02  0.95713016895E+01  0.16530483553E+02  0.51100000000E-03 0.  1.
         12    1    3    3    0    0  0.74261298202E+01 -0.31978840410E+01  0.41435601234E+01  0.90853154564E+01  0.00000000000E+00 0. -1.
</event>
<event>
 7    1  0.5479172E-013  0.5052886E+02  0.7816164E-02  0.1300439E+00
        -11   -1    0    0    0    0  0.00000000000E+00  0.00000000000E+00  0.45593999997E+02  0.45594000000E+02  0.51100000000E-03 0. -1.
         11   -1    0    0    0    0 -0.00000000000E+00 -0.00000000000E+00 -0.45593999997E+02  0.45594000000E+02  0.51100000000E-03 0.  1.
    9900012    2    1    2    0    0  0.32265022661E+02  0.16812643391E+02 -0.18151279302E+02  0.50528860740E+02  0.30000002704E+02 0.  0.
         12    1    1    2    0    0 -0.32265022661E+02 -0.16812643391E+02  0.18151279302E+02  0.40659139260E+02  0.00000000000E+00 0. -1.
         11    1    3    3    0    0  0.99095737350E+01  0.25657104969E+01  0.35962662013E+01  0.10849684457E+02  0.51100000000E-03 0. -1.
        -11    1    3    3    0    0  0.10713939233E+02  0.28408612254E+01  0.16070331023E+01  0.11200068841E+02  0.51100000000E-03 0.  1.
        -12    1    3    3    0    0  0.11641509693E+02  0.11406071669E+02 -0.23354578605E+02  0.28479107442E+02  0.00000000000E+00 0.  1.
</event>
<event>
 7    1  0.5479172E-013  0.5052887E+02  0.7816164E-02  0.1300439E+00
        -11   -1    0    0    0    0  0.00000000000E+00  0.00000000000E+00  0.45593999997E+02  0.45594000000E+02  0.51100000000E-03 0.  1.
         11   -1    0    0    0    0 -0.00000000000E+00 -0.00000000000E+00 -0.45593999997E+02  0.45594000000E+02  0.51100000000E-03 0. -1.
    9900012    2    1    2    0    0  0.37775872507E+02  0.77822913213E+01  0.12867965108E+02  0.50528866612E+02  0.30000020553E+02 0.  0.
         12    1    1    2    0    0 -0.37775872507E+02 -0.77822913213E+01 -0.12867965108E+02  0.40659133388E+02  0.00000000000E+00 0. -1.
         11    1    3    3    0    0  0.22266627119E+02 -0.59354742299E+00  0.17811907198E+01  0.22345639897E+02  0.51100000000E-03 0. -1.
        -11    1    3    3    0    0  0.47811136304E+00 -0.17894929845E+01 -0.41140869027E+01  0.45118274481E+01  0.51100000000E-03 0.  1.
        -12    1    3    3    0    0  0.15031134025E+02  0.10165331729E+02  0.15200861291E+02  0.23671399266E+02  0.00000000000E+00 0.  1.
</event>
<event>
 7    1  0.5479172E-013  0.5052886E+02  0.7816164E-02  0.1300439E+00
        -11   -1    0    0    0    0  0.00000000000E+00  0.00000000000E+00  0.45593999997E+02  0.45594000000E+02  0.51100000000E-03 0.  1.
         11   -1    0    0    0    0 -0.00000000000E+00 -0.00000000000E+00 -0.45593999997E+02  0.45594000000E+02  0.51100000000E-03 0. -1.
    9900012    2    1    2    0    0 -0.30406333446E+02  0.26970539768E+02  0.11001476450E+01  0.50528862603E+02  0.30000008368E+02 0.  0.
         12    1    1    2    0    0  0.30406333446E+02 -0.26970539768E+02 -0.11001476450E+01  0.40659137397E+02  0.00000000000E+00 0. -1.
         11    1    3    3    0    0 -0.69350597455E+01  0.49119611069E+01 -0.42668465141E+01  0.95093845766E+01  0.51100000000E-03 0.  1.
        -11    1    3    3    0    0 -0.48882873787E+01  0.18603822702E+01 -0.87206893033E+01  0.10168913308E+02  0.51100000000E-03 0. -1.
         12    1    3    3    0    0 -0.18582986322E+02  0.20198196391E+02  0.14087683462E+02  0.30850564718E+02  0.00000000000E+00 0. -1.
</event>
<event>
 7    1  0.5479172E-013  0.5052883E+02  0.7816164E-02  0.1300439E+00
        -11   -1    0    0    0    0  0.00000000000E+00  0.00000000000E+00  0.45593999997E+02  0.45594000000E+02  0.51100000000E-03 0.  1.
         11   -1    0    0    0    0 -0.00000000000E+00 -0.00000000000E+00 -0.45593999997E+02  0.45594000000E+02  0.51100000000E-03 0. -1.
    9900012    2    1    2    0    0  0.15454363369E+01 -0.10969341156E+02  0.39121006828E+02  0.50528831365E+02  0.29999913416E+02 0.  0.
         12    1    1    2    0    0 -0.15454363369E+01  0.10969341156E+02 -0.39121006828E+02  0.40659168635E+02  0.00000000000E+00 0. -1.
         11    1    3    3    0    0 -0.11247930918E+01 -0.13203869212E+02  0.72225264365E+01  0.15092124106E+02  0.51100000000E-03 0. -1.
        -11    1    3    3    0    0  0.45553679368E+01 -0.54683641150E+01  0.11188704560E+02  0.13260523863E+02  0.51100000000E-03 0.  1.
         12    1    3    3    0    0 -0.18851385081E+01  0.77028921703E+01  0.20709775831E+02  0.22176183395E+02  0.00000000000E+00 0. -1.
</event>
<event>
 7    1  0.5479172E-013  0.5052886E+02  0.7816164E-02  0.1300439E+00
        -11   -1    0    0    0    0  0.00000000000E+00  0.00000000000E+00  0.45593999997E+02  0.45594000000E+02  0.51100000000E-03 0.  1.
         11   -1    0    0    0    0 -0.00000000000E+00 -0.00000000000E+00 -0.45593999997E+02  0.45594000000E+02  0.51100000000E-03 0. -1.
    9900012    2    1    2    0    0 -0.10575663003E+02 -0.26754110269E+02  0.28732189706E+02  0.50528858475E+02  0.29999995822E+02 0.  0.
         12    1    1    2    0    0  0.10575663003E+02  0.26754110269E+02 -0.28732189706E+02  0.40659141525E+02  0.00000000000E+00 0. -1.
         11    1    3    3    0    0  0.16254807212E+01 -0.21840749532E+01  0.53196317638E+01  0.59758558668E+01  0.51100000000E-03 0. -1.
        -11    1    3    3    0    0  0.60258126682E+01 -0.74301092746E+01  0.15675510163E+02  0.18364056231E+02  0.51100000000E-03 0.  1.
         12    1    3    3    0    0 -0.18226956392E+02 -0.17139926041E+02  0.77370477791E+01  0.26188946377E+02  0.00000000000E+00 0. -1.
</event>
<event>
 7    1  0.5479172E-013  0.5052886E+02  0.7816164E-02  0.1300439E+00
        -11   -1    0    0    0    0  0.00000000000E+00  0.00000000000E+00  0.45593999997E+02  0.45594000000E+02  0.51100000000E-03 0. -1.
         11   -1    0    0    0    0 -0.00000000000E+00 -0.00000000000E+00 -0.45593999997E+02  0.45594000000E+02  0.51100000000E-03 0.  1.
    9900012    2    1    2    0    0  0.17199526613E+02  0.32882895965E+02 -0.16614967725E+02  0.50528859388E+02  0.29999998597E+02 0.  0.
         12    1    1    2    0    0 -0.17199526613E+02 -0.32882895965E+02  0.16614967725E+02  0.40659140612E+02  0.00000000000E+00 0. -1.
         11    1    3    3    0    0  0.68541579580E+01  0.15882362662E+01 -0.19494803640E+01  0.73008526695E+01  0.51100000000E-03 0. -1.
        -11    1    3    3    0    0  0.11557053033E+02  0.38319676979E+01 -0.22800079689E+00  0.12177907697E+02  0.51100000000E-03 0.  1.
         12    1    3    3    0    0 -0.12116843782E+01  0.27462692001E+02 -0.14437486564E+02  0.31050099022E+02  0.00000000000E+00 0. -1.
</event>
<event>
 7    1  0.5479172E-013  0.5052886E+02  0.7816164E-02  0.1300439E+00
        -11   -1    0    0    0    0  0.00000000000E+00  0.00000000000E+00  0.45593999997E+02  0.45594000000E+02  0.51100000000E-03 0.  1.
         11   -1    0    0    0    0 -0.00000000000E+00 -0.00000000000E+00 -0.45593999997E+02  0.45594000000E+02  0.51100000000E-03 0. -1.
    9900012    2    1    2    0    0 -0.18468511929E+02 -0.20570100788E+02  0.29815270978E+02  0.50528863723E+02  0.30000011772E+02 0.  0.
         12    1    1    2    0    0  0.18468511929E+02  0.20570100788E+02 -0.29815270978E+02  0.40659136277E+02  0.00000000000E+00 0. -1.
         11    1    3    3    0    0 -0.51917986271E+01 -0.87886487494E+01  0.15345317287E+02  0.18430243697E+02  0.51100000000E-03 0. -1.
        -11    1    3    3    0    0 -0.47991327507E+00 -0.91273114047E+01  0.16510112879E+02  0.18871193862E+02  0.51100000000E-03 0.  1.
         12    1    3    3    0    0 -0.12796800027E+02 -0.26541406344E+01 -0.20401591876E+01  0.13227426165E+02  0.00000000000E+00 0. -1.
</event>
<event>
 7    1  0.5479172E-013  0.5052887E+02  0.7816164E-02  0.1300439E+00
        -11   -1    0    0    0    0  0.00000000000E+00  0.00000000000E+00  0.45593999997E+02  0.45594000000E+02  0.51100000000E-03 0. -1.
         11   -1    0    0    0    0 -0.00000000000E+00 -0.00000000000E+00 -0.45593999997E+02  0.45594000000E+02  0.51100000000E-03 0.  1.
    9900012    2    1    2    0    0 -0.43235775051E+01  0.18722375744E+01 -0.40385224583E+02  0.50528868669E+02  0.30000026805E+02 0.  0.
         12    1    1    2    0    0  0.43235775051E+01 -0.18722375744E+01  0.40385224583E+02  0.40659131331E+02  0.00000000000E+00 0. -1.
         11    1    3    3    0    0  0.70566450843E+01  0.21937763954E+01 -0.20449960959E+02  0.21744189987E+02  0.51100000000E-03 0. -1.
        -11    1    3    3    0    0 -0.98275325451E+01  0.24551807676E+01 -0.22515056513E+02  0.24688784469E+02  0.51100000000E-03 0.  1.
         12    1    3    3    0    0 -0.15526900443E+01 -0.27767195886E+01  0.25797928886E+01  0.40958942120E+01  0.00000000000E+00 0. -1.
</event>
<event>
 7    1  0.5479172E-013  0.5052885E+02  0.7816164E-02  0.1300439E+00
        -11   -1    0    0    0    0  0.00000000000E+00  0.00000000000E+00  0.45593999997E+02  0.45594000000E+02  0.51100000000E-03 0. -1.
         11   -1    0    0    0    0 -0.00000000000E+00 -0.00000000000E+00 -0.45593999997E+02  0.45594000000E+02  0.51100000000E-03 0.  1.
    9900012    2    1    2    0    0  0.35849112872E+02  0.20086311603E+00 -0.19182462758E+02  0.50528854446E+02  0.29999983573E+02 0.  0.
         12    1    1    2    0    0 -0.35849112872E+02 -0.20086311603E+00  0.19182462758E+02  0.40659145554E+02  0.00000000000E+00 0. -1.
         11    1    3    3    0    0  0.60325767285E+01  0.46412258669E+01 -0.10160599273E+02  0.12695303753E+02  0.51100000000E-03 0. -1.
        -11    1    3    3    0    0  0.23507026371E+00  0.73971266177E+00  0.47370195930E+01  0.48001862189E+01  0.51100000000E-03 0.  1.
        -12    1    3    3    0    0  0.29581465880E+02 -0.51800754127E+01 -0.13758883078E+02  0.33033364474E+02  0.00000000000E+00 0.  1.
</event>
<event>
 7    1  0.5479172E-013  0.5052886E+02  0.7816164E-02  0.1300439E+00
        -11   -1    0    0    0    0  0.00000000000E+00  0.00000000000E+00  0.45593999997E+02  0.45594000000E+02  0.51100000000E-03 0.  1.
         11   -1    0    0    0    0 -0.00000000000E+00 -0.00000000000E+00 -0.45593999997E+02  0.45594000000E+02  0.51100000000E-03 0. -1.
    9900012    2    1    2    0    0 -0.20088267555E+02 -0.11982318137E+02 -0.33257349909E+02  0.50528858786E+02  0.29999996767E+02 0.  0.
         12    1    1    2    0    0  0.20088267555E+02  0.11982318137E+02  0.33257349909E+02  0.40659141214E+02  0.00000000000E+00 0. -1.
         11    1    3    3    0    0 -0.96265988925E+01 -0.17300159057E+01 -0.73588237469E+01  0.12239961130E+02  0.51100000000E-03 0. -1.
        -11    1    3    3    0    0 -0.16935373694E+02 -0.27981387724E+01 -0.21416318100E+02  0.27446222763E+02  0.51100000000E-03 0.  1.
         12    1    3    3    0    0  0.64737050321E+01 -0.74541634592E+01 -0.44822080622E+01  0.10842674893E+02  0.00000000000E+00 0. -1.
</event>
<event>
 7    1  0.5479172E-013  0.5052887E+02  0.7816164E-02  0.1300439E+00
        -11   -1    0    0    0    0  0.00000000000E+00  0.00000000000E+00  0.45593999997E+02  0.45594000000E+02  0.51100000000E-03 0. -1.
         11   -1    0    0    0    0 -0.00000000000E+00 -0.00000000000E+00 -0.45593999997E+02  0.45594000000E+02  0.51100000000E-03 0.  1.
    9900012    2    1    2    0    0  0.18660693243E+02 -0.27918944012E+02 -0.22923261027E+02  0.50528870605E+02  0.30000032691E+02 0.  0.
         12    1    1    2    0    0 -0.18660693243E+02  0.27918944012E+02  0.22923261027E+02  0.40659129395E+02  0.00000000000E+00 0. -1.
         11    1    3    3    0    0  0.11707157898E+02 -0.23095792124E+01 -0.40851367229E+01  0.12612693785E+02  0.51100000000E-03 0. -1.
        -11    1    3    3    0    0  0.10708934861E+02 -0.26165524360E+02 -0.19086447746E+02  0.34111705304E+02  0.51100000000E-03 0.  1.
        -12    1    3    3    0    0 -0.37553995165E+01  0.55615956051E+00  0.24832344276E+00  0.38044715162E+01  0.00000000000E+00 0.  1.
</event>
<event>
 7    1  0.5479172E-013  0.5052885E+02  0.7816164E-02  0.1300439E+00
        -11   -1    0    0    0    0  0.00000000000E+00  0.00000000000E+00  0.45593999997E+02  0.45594000000E+02  0.51100000000E-03 0.  1.
         11   -1    0    0    0    0 -0.00000000000E+00 -0.00000000000E+00 -0.45593999997E+02  0.45594000000E+02  0.51100000000E-03 0. -1.
    9900012    2    1    2    0    0  0.24684119373E+02 -0.14414669438E+01  0.32276656938E+02  0.50528853928E+02  0.29999982000E+02 0.  0.
         12    1    1    2    0    0 -0.24684119373E+02  0.14414669438E+01 -0.32276656938E+02  0.40659146072E+02  0.00000000000E+00 0. -1.
         11    1    3    3    0    0  0.12628535381E+02 -0.36237619958E+01  0.30511110349E+01  0.13487803219E+02  0.51100000000E-03 0. -1.
        -11    1    3    3    0    0  0.17069779368E+02  0.37939431393E+01  0.22149806442E+02  0.28220299395E+02  0.51100000000E-03 0.  1.
         12    1    3    3    0    0 -0.50141953761E+01 -0.16116480873E+01  0.70757394609E+01  0.88207513141E+01  0.00000000000E+00 0. -1.
</event>
<event>
 7    1  0.5479172E-013  0.5052885E+02  0.7816164E-02  0.1300439E+00
        -11   -1    0    0    0    0  0.00000000000E+00  0.00000000000E+00  0.45593999997E+02  0.45594000000E+02  0.51100000000E-03 0. -1.
         11   -1    0    0    0    0 -0.00000000000E+00 -0.00000000000E+00 -0.45593999997E+02  0.45594000000E+02  0.51100000000E-03 0.  1.
    9900012    2    1    2    0    0  0.20924996719E+02  0.12940523811E+02 -0.32370566358E+02  0.50528853298E+02  0.29999980084E+02 0.  0.
         12    1    1    2    0    0 -0.20924996719E+02 -0.12940523811E+02  0.32370566358E+02  0.40659146702E+02  0.00000000000E+00 0. -1.
         11    1    3    3    0    0  0.18730279956E+02  0.64342745784E+01 -0.12103326985E+02  0.23210208981E+02  0.51100000000E-03 0. -1.
        -11    1    3    3    0    0  0.21086689027E+01  0.11677743776E+02 -0.18246253904E+02  0.21765614304E+02  0.51100000000E-03 0.  1.
        -12    1    3    3    0    0  0.86047859980E-01 -0.51714945437E+01 -0.20209854694E+01  0.55530300123E+01  0.00000000000E+00 0.  1.
</event>
<event>
 7    1  0.5479172E-013  0.5052886E+02  0.7816164E-02  0.1300439E+00
        -11   -1    0    0    0    0  0.00000000000E+00  0.00000000000E+00  0.45593999997E+02  0.45594000000E+02  0.51100000000E-03 0. -1.
         11   -1    0    0    0    0 -0.00000000000E+00 -0.00000000000E+00 -0.45593999997E+02  0.45594000000E+02  0.51100000000E-03 0.  1.
    9900012    2    1    2    0    0 -0.24644394415E+02  0.10441609579E+02 -0.30607066349E+02  0.50528857152E+02  0.29999991798E+02 0.  0.
         12    1    1    2    0    0  0.24644394415E+02 -0.10441609579E+02  0.30607066349E+02  0.40659142848E+02  0.00000000000E+00 0. -1.
         11    1    3    3    0    0 -0.24268678552E+01 -0.69048560043E+01 -0.10744884079E+02  0.13000740678E+02  0.51100000000E-03 0. -1.
        -11    1    3    3    0    0 -0.15887035639E+01  0.73446595457E+01 -0.51904073744E+00  0.75324236739E+01  0.51100000000E-03 0.  1.
        -12    1    3    3    0    0 -0.20628822996E+02  0.10001806038E+02 -0.19343141532E+02  0.29995692800E+02  0.00000000000E+00 0.  1.
</event>
<event>
 7    1  0.5479172E-013  0.5052886E+02  0.7816164E-02  0.1300439E+00
        -11   -1    0    0    0    0  0.00000000000E+00  0.00000000000E+00  0.45593999997E+02  0.45594000000E+02  0.51100000000E-03 0.  1.
         11   -1    0    0    0    0 -0.00000000000E+00 -0.00000000000E+00 -0.45593999997E+02  0.45594000000E+02  0.51100000000E-03 0. -1.
    9900012    2    1    2    0    0 -0.36344206170E+02 -0.29238030230E+01 -0.17992106377E+02  0.50528857877E+02  0.29999994004E+02 0.  0.
         12    1    1    2    0    0  0.36344206170E+02  0.29238030230E+01  0.17992106377E+02  0.40659142123E+02  0.00000000000E+00 0. -1.
         11    1    3    3    0    0  0.98552361536E+00 -0.37231437133E+01 -0.38398057561E+01  0.54384891663E+01  0.51100000000E-03 0. -1.
        -11    1    3    3    0    0 -0.28254652242E+02  0.24199770609E+01 -0.19516218162E+02  0.34424764834E+02  0.51100000000E-03 0.  1.
         12    1    3    3    0    0 -0.90750775439E+01 -0.16206363706E+01  0.53639175407E+01  0.10665603877E+02  0.00000000000E+00 0. -1.
</event>
<event>
 7    1  0.5479172E-013  0.5052885E+02  0.7816164E-02  0.1300439E+00
        -11   -1    0    0    0    0  0.00000000000E+00  0.00000000000E+00  0.45593999997E+02  0.45594000000E+02  0.51100000000E-03 0. -1.
         11   -1    0    0    0    0 -0.00000000000E+00 -0.00000000000E+00 -0.45593999997E+02  0.45594000000E+02  0.51100000000E-03 0.  1.
    9900012    2    1    2    0    0 -0.24233022691E+01  0.31661342711E+02 -0.25393965238E+02  0.50528849902E+02  0.29999969763E+02 0.  0.
         12    1    1    2    0    0  0.24233022691E+01 -0.31661342711E+02  0.25393965238E+02  0.40659150098E+02  0.00000000000E+00 0. -1.
         11    1    3    3    0    0 -0.79494942325E+01  0.15875392941E+02 -0.63436617568E+01  0.18853768969E+02  0.51100000000E-03 0. -1.
        -11    1    3    3    0    0  0.11308554344E+02  0.15912963575E+02 -0.14624019683E+02  0.24391961034E+02  0.51100000000E-03 0.  1.
         12    1    3    3    0    0 -0.57823623811E+01 -0.12701380568E+00 -0.44262837978E+01  0.72831198996E+01  0.00000000000E+00 0. -1.
</event>
<event>
 7    1  0.5479172E-013  0.5052887E+02  0.7816164E-02  0.1300439E+00
        -11   -1    0    0    0    0  0.00000000000E+00  0.00000000000E+00  0.45593999997E+02  0.45594000000E+02  0.51100000000E-03 0.  1.
         11   -1    0    0    0    0 -0.00000000000E+00 -0.00000000000E+00 -0.45593999997E+02  0.45594000000E+02  0.51100000000E-03 0. -1.
    9900012    2    1    2    0    0 -0.29126338106E+01 -0.38928901055E+02  0.11367582233E+02  0.50528871887E+02  0.30000036587E+02 0.  0.
         12    1    1    2    0    0  0.29126338106E+01  0.38928901055E+02 -0.11367582233E+02  0.40659128113E+02  0.00000000000E+00 0. -1.
         11    1    3    3    0    0  0.26378271731E+01  0.15776060395E+01  0.35734600084E+01  0.47134477513E+01  0.51100000000E-03 0. -1.
        -11    1    3    3    0    0 -0.10441909479E+02 -0.12606311548E+02  0.59953449635E+01  0.17432633935E+02  0.51100000000E-03 0.  1.
        -12    1    3    3    0    0  0.48914484954E+01 -0.27900195546E+02  0.17987772612E+01  0.28382790200E+02  0.00000000000E+00 0.  1.
</event>
<event>
 7    1  0.5479172E-013  0.5052885E+02  0.7816164E-02  0.1300439E+00
        -11   -1    0    0    0    0  0.00000000000E+00  0.00000000000E+00  0.45593999997E+02  0.45594000000E+02  0.51100000000E-03 0.  1.
         11   -1    0    0    0    0 -0.00000000000E+00 -0.00000000000E+00 -0.45593999997E+02  0.45594000000E+02  0.51100000000E-03 0. -1.
    9900012    2    1    2    0    0  0.11992055381E+02 -0.11404509142E+02  0.37138846520E+02  0.50528854142E+02  0.29999982650E+02 0.  0.
         12    1    1    2    0    0 -0.11992055381E+02  0.11404509142E+02 -0.37138846520E+02  0.40659145858E+02  0.00000000000E+00 0. -1.
         11    1    3    3    0    0  0.36978699002E+01  0.20451658446E+01 -0.11568392141E+01  0.43812352549E+01  0.51100000000E-03 0. -1.
        -11    1    3    3    0    0  0.39590750653E+00  0.51404820293E+01  0.48640599453E+01  0.70880446993E+01  0.51100000000E-03 0.  1.
        -12    1    3    3    0    0  0.78982779742E+01 -0.18590157016E+02  0.33431625789E+02  0.39059574188E+02  0.00000000000E+00 0.  1.
</event>
<event>
 7    1  0.5479172E-013  0.5052886E+02  0.7816164E-02  0.1300439E+00
        -11   -1    0    0    0    0  0.00000000000E+00  0.00000000000E+00  0.45593999997E+02  0.45594000000E+02  0.51100000000E-03 0.  1.
         11   -1    0    0    0    0 -0.00000000000E+00 -0.00000000000E+00 -0.45593999997E+02  0.45594000000E+02  0.51100000000E-03 0. -1.
    9900012    2    1    2    0    0  0.28000194939E+00 -0.75777359279E+01  0.39945781315E+02  0.50528856776E+02  0.29999990656E+02 0.  0.
         12    1    1    2    0    0 -0.28000194939E+00  0.75777359279E+01 -0.39945781315E+02  0.40659143224E+02  0.00000000000E+00 0. -1.
         11    1    3    3    0    0  0.19448712783E+01  0.15274719653E+01  0.16452878628E+02  0.16637695462E+02  0.51100000000E-03 0. -1.
        -11    1    3    3    0    0 -0.28438799462E+01 -0.77061973233E+01  0.27918755396E+02  0.29102062357E+02  0.51100000000E-03 0.  1.
         12    1    3    3    0    0  0.11790106173E+01 -0.13990105699E+01 -0.44258527090E+01  0.47890989562E+01  0.00000000000E+00 0. -1.
</event>
<event>
 7    1  0.5479172E-013  0.5052888E+02  0.7816164E-02  0.1300439E+00
        -11   -1    0    0    0    0  0.00000000000E+00  0.00000000000E+00  0.45593999997E+02  0.45594000000E+02  0.51100000000E-03 0.  1.
         11   -1    0    0    0    0 -0.00000000000E+00 -0.00000000000E+00 -0.45593999997E+02  0.45594000000E+02  0.51100000000E-03 0. -1.
    9900012    2    1    2    0    0 -0.13308699902E+02 -0.35837017993E+02  0.13847403489E+02  0.50528881280E+02  0.30000065140E+02 0.  0.
         12    1    1    2    0    0  0.13308699902E+02  0.35837017993E+02 -0.13847403489E+02  0.40659118720E+02  0.00000000000E+00 0. -1.
         11    1    3    3    0    0 -0.50672771444E+01 -0.10271466125E+02  0.34229412722E+01  0.11953946680E+02  0.51100000000E-03 0. -1.
        -11    1    3    3    0    0 -0.10939214756E+02 -0.28852896456E+02  0.13130298514E+02  0.33534471707E+02  0.51100000000E-03 0.  1.
        -12    1    3    3    0    0  0.26977919989E+01  0.32873445878E+01 -0.27058362975E+01  0.50404628932E+01  0.00000000000E+00 0.  1.
</event>
<event>
 7    1  0.5479172E-013  0.5052886E+02  0.7816164E-02  0.1300439E+00
        -11   -1    0    0    0    0  0.00000000000E+00  0.00000000000E+00  0.45593999997E+02  0.45594000000E+02  0.51100000000E-03 0.  1.
         11   -1    0    0    0    0 -0.00000000000E+00 -0.00000000000E+00 -0.45593999997E+02  0.45594000000E+02  0.51100000000E-03 0. -1.
    9900012    2    1    2    0    0 -0.16358323926E+02 -0.34736477895E+02 -0.13377138136E+02  0.50528862246E+02  0.30000007282E+02 0.  0.
         12    1    1    2    0    0  0.16358323926E+02  0.34736477895E+02  0.13377138136E+02  0.40659137754E+02  0.00000000000E+00 0. -1.
         11    1    3    3    0    0  0.30834407309E+01 -0.11219983173E+02 -0.81986868443E+01  0.14234257809E+02  0.51100000000E-03 0. -1.
        -11    1    3    3    0    0  0.31761447101E+01 -0.46783119676E+00 -0.21424041005E+01  0.38596187427E+01  0.51100000000E-03 0.  1.
        -12    1    3    3    0    0 -0.22617909367E+02 -0.23048663525E+02 -0.30360471909E+01  0.32434985694E+02  0.00000000000E+00 0.  1.
</event>
<event>
 7    1  0.5479172E-013  0.5052885E+02  0.7816164E-02  0.1300439E+00
        -11   -1    0    0    0    0  0.00000000000E+00  0.00000000000E+00  0.45593999997E+02  0.45594000000E+02  0.51100000000E-03 0. -1.
         11   -1    0    0    0    0 -0.00000000000E+00 -0.00000000000E+00 -0.45593999997E+02  0.45594000000E+02  0.51100000000E-03 0.  1.
    9900012    2    1    2    0    0 -0.29050339819E+02  0.10100865801E+01 -0.28429285447E+02  0.50528846178E+02  0.29999958442E+02 0.  0.
         12    1    1    2    0    0  0.29050339819E+02 -0.10100865801E+01  0.28429285447E+02  0.40659153822E+02  0.00000000000E+00 0. -1.
         11    1    3    3    0    0 -0.46721240095E+00 -0.70474809654E+01 -0.51745559182E+00  0.70818808191E+01  0.51100000000E-03 0. -1.
        -11    1    3    3    0    0 -0.27673949231E+00 -0.26018629356E+01 -0.57899305802E+00  0.26798337084E+01  0.51100000000E-03 0.  1.
        -12    1    3    3    0    0 -0.28306387926E+02  0.10659430481E+02 -0.27332836797E+02  0.40767131650E+02  0.00000000000E+00 0.  1.
</event>
<event>
 7    1  0.5479172E-013  0.5052887E+02  0.7816164E-02  0.1300439E+00
        -11   -1    0    0    0    0  0.00000000000E+00  0.00000000000E+00  0.45593999997E+02  0.45594000000E+02  0.51100000000E-03 0.  1.
         11   -1    0    0    0    0 -0.00000000000E+00 -0.00000000000E+00 -0.45593999997E+02  0.45594000000E+02  0.51100000000E-03 0. -1.
    9900012    2    1    2    0    0 -0.41994683489E+00  0.53298535864E+01  0.40306097287E+02  0.50528866056E+02  0.30000018864E+02 0.  0.
         12    1    1    2    0    0  0.41994683489E+00 -0.53298535864E+01 -0.40306097287E+02  0.40659133944E+02  0.00000000000E+00 0. -1.
         11    1    3    3    0    0  0.75800182365E-01 -0.49774476864E+01  0.10010894224E+02  0.11180283295E+02  0.51100000000E-03 0. -1.
        -11    1    3    3    0    0 -0.81393558332E+00 -0.15437771184E+01  0.26982804927E+02  0.27039184546E+02  0.51100000000E-03 0.  1.
         12    1    3    3    0    0  0.31818856606E+00  0.11851078391E+02  0.33123981354E+01  0.12309398215E+02  0.00000000000E+00 0. -1.
</event>
<event>
 7    1  0.5479172E-013  0.5052886E+02  0.7816164E-02  0.1300439E+00
        -11   -1    0    0    0    0  0.00000000000E+00  0.00000000000E+00  0.45593999997E+02  0.45594000000E+02  0.51100000000E-03 0.  1.
         11   -1    0    0    0    0 -0.00000000000E+00 -0.00000000000E+00 -0.45593999997E+02  0.45594000000E+02  0.51100000000E-03 0. -1.
    9900012    2    1    2    0    0 -0.78089946098E+01  0.26608896629E+02  0.29734692933E+02  0.50528859078E+02  0.29999997655E+02 0.  0.
         12    1    1    2    0    0  0.78089946098E+01 -0.26608896629E+02 -0.29734692933E+02  0.40659140922E+02  0.00000000000E+00 0. -1.
         11    1    3    3    0    0 -0.46825700382E+01  0.13186068852E+02  0.17754356377E+02  0.22605663993E+02  0.51100000000E-03 0.  1.
        -11    1    3    3    0    0 -0.98713789699E+01  0.12154239084E+02  0.19632834189E+01  0.15780498488E+02  0.51100000000E-03 0. -1.
         12    1    3    3    0    0  0.67449543983E+01  0.12685886929E+01  0.10017053137E+02  0.12142696597E+02  0.00000000000E+00 0. -1.
</event>
<event>
 7    1  0.5479172E-013  0.5052889E+02  0.7816164E-02  0.1300439E+00
        -11   -1    0    0    0    0  0.00000000000E+00  0.00000000000E+00  0.45593999997E+02  0.45594000000E+02  0.51100000000E-03 0.  1.
         11   -1    0    0    0    0 -0.00000000000E+00 -0.00000000000E+00 -0.45593999997E+02  0.45594000000E+02  0.51100000000E-03 0. -1.
    9900012    2    1    2    0    0 -0.63746020249E+01  0.23988775742E+02  0.32203508416E+02  0.50528894416E+02  0.30000105067E+02 0.  0.
         12    1    1    2    0    0  0.63746020249E+01 -0.23988775742E+02 -0.32203508416E+02  0.40659105584E+02  0.00000000000E+00 0. -1.
         11    1    3    3    0    0 -0.38062406073E+01 -0.16708098805E+01 -0.11673693438E+01  0.43176179385E+01  0.51100000000E-03 0. -1.
        -11    1    3    3    0    0 -0.69897002496E+01  0.17565944872E+01  0.11153160469E+02  0.13279100967E+02  0.51100000000E-03 0.  1.
         12    1    3    3    0    0  0.44213388319E+01  0.23902991135E+02  0.22217717291E+02  0.32932175511E+02  0.00000000000E+00 0. -1.
</event>
<event>
 7    1  0.5479172E-013  0.5052885E+02  0.7816164E-02  0.1300439E+00
        -11   -1    0    0    0    0  0.00000000000E+00  0.00000000000E+00  0.45593999997E+02  0.45594000000E+02  0.51100000000E-03 0.  1.
         11   -1    0    0    0    0 -0.00000000000E+00 -0.00000000000E+00 -0.45593999997E+02  0.45594000000E+02  0.51100000000E-03 0. -1.
    9900012    2    1    2    0    0 -0.31387713919E+02  0.24690080356E+02 -0.76405429192E+01  0.50528849134E+02  0.29999967428E+02 0.  0.
         12    1    1    2    0    0  0.31387713919E+02 -0.24690080356E+02  0.76405429192E+01  0.40659150866E+02  0.00000000000E+00 0. -1.
         11    1    3    3    0    0 -0.15983463838E+02  0.17197210980E+02  0.54956195012E+01  0.24112590398E+02  0.51100000000E-03 0.  1.
        -11    1    3    3    0    0 -0.79696374770E+01  0.28092959778E+01  0.22082545457E+01  0.87340513970E+01  0.51100000000E-03 0. -1.
         12    1    3    3    0    0 -0.74346126041E+01  0.46835733978E+01 -0.15344416966E+02  0.17682207339E+02  0.00000000000E+00 0. -1.
</event>
<event>
 7    1  0.5479172E-013  0.5052886E+02  0.7816164E-02  0.1300439E+00
        -11   -1    0    0    0    0  0.00000000000E+00  0.00000000000E+00  0.45593999997E+02  0.45594000000E+02  0.51100000000E-03 0. -1.
         11   -1    0    0    0    0 -0.00000000000E+00 -0.00000000000E+00 -0.45593999997E+02  0.45594000000E+02  0.51100000000E-03 0.  1.
    9900012    2    1    2    0    0 -0.33486286700E+02 -0.19804080980E+02  0.11816623484E+02  0.50528860671E+02  0.30000002496E+02 0.  0.
         12    1    1    2    0    0  0.33486286700E+02  0.19804080980E+02 -0.11816623484E+02  0.40659139329E+02  0.00000000000E+00 0. -1.
         11    1    3    3    0    0  0.52039880944E+00 -0.56351757414E+01  0.10295021625E+02  0.11747914329E+02  0.51100000000E-03 0. -1.
        -11    1    3    3    0    0 -0.42211546020E+01 -0.69025828575E+01  0.43459822940E+00  0.81026336559E+01  0.51100000000E-03 0.  1.
         12    1    3    3    0    0 -0.29785530907E+02 -0.72663223814E+01  0.10870036294E+01  0.30678312686E+02  0.00000000000E+00 0. -1.
</event>
<event>
 7    1  0.5479172E-013  0.5052888E+02  0.7816164E-02  0.1300439E+00
        -11   -1    0    0    0    0  0.00000000000E+00  0.00000000000E+00  0.45593999997E+02  0.45594000000E+02  0.51100000000E-03 0.  1.
         11   -1    0    0    0    0 -0.00000000000E+00 -0.00000000000E+00 -0.45593999997E+02  0.45594000000E+02  0.51100000000E-03 0. -1.
    9900012    2    1    2    0    0  0.24703621454E+02  0.31502985131E+02  0.71032959190E+01  0.50528882966E+02  0.30000070264E+02 0.  0.
         12    1    1    2    0    0 -0.24703621454E+02 -0.31502985131E+02 -0.71032959190E+01  0.40659117034E+02  0.00000000000E+00 0. -1.
         11    1    3    3    0    0  0.10489963490E+02  0.19521668331E+02 -0.43844286657E+01  0.22591106290E+02  0.51100000000E-03 0. -1.
        -11    1    3    3    0    0  0.11139112265E+02  0.77559882356E+01 -0.17691931330E+01  0.13688141589E+02  0.51100000000E-03 0.  1.
         12    1    3    3    0    0  0.30745456987E+01  0.42253285644E+01  0.13256917718E+02  0.14249635087E+02  0.00000000000E+00 0. -1.
</event>
<event>
 7    1  0.5479172E-013  0.5052886E+02  0.7816164E-02  0.1300439E+00
        -11   -1    0    0    0    0  0.00000000000E+00  0.00000000000E+00  0.45593999997E+02  0.45594000000E+02  0.51100000000E-03 0. -1.
         11   -1    0    0    0    0 -0.00000000000E+00 -0.00000000000E+00 -0.45593999997E+02  0.45594000000E+02  0.51100000000E-03 0.  1.
    9900012    2    1    2    0    0 -0.13287668565E+02  0.33168247179E+02 -0.19402862988E+02  0.50528857745E+02  0.29999993601E+02 0.  0.
         12    1    1    2    0    0  0.13287668565E+02 -0.33168247179E+02  0.19402862988E+02  0.40659142255E+02  0.00000000000E+00 0. -1.
         11    1    3    3    0    0  0.96855786959E+00  0.71370755769E+01 -0.13030257407E+02  0.14888369974E+02  0.51100000000E-03 0. -1.
        -11    1    3    3    0    0 -0.10016072505E+01 -0.24096493087E+01 -0.31607101701E+01  0.40987456515E+01  0.51100000000E-03 0.  1.
         12    1    3    3    0    0 -0.13254619184E+02  0.28440820911E+02 -0.32118954110E+01  0.31541742119E+02  0.00000000000E+00 0. -1.
</event>
<event>
 7    1  0.5479172E-013  0.5052884E+02  0.7816164E-02  0.1300439E+00
        -11   -1    0    0    0    0  0.00000000000E+00  0.00000000000E+00  0.45593999997E+02  0.45594000000E+02  0.51100000000E-03 0.  1.
         11   -1    0    0    0    0 -0.00000000000E+00 -0.00000000000E+00 -0.45593999997E+02  0.45594000000E+02  0.51100000000E-03 0. -1.
    9900012    2    1    2    0    0  0.30055404491E+02 -0.20415156194E+02  0.18249968978E+02  0.50528839787E+02  0.29999939016E+02 0.  0.
         12    1    1    2    0    0 -0.30055404491E+02  0.20415156194E+02 -0.18249968978E+02  0.40659160213E+02  0.00000000000E+00 0. -1.
         11    1    3    3    0    0  0.18099415541E+01  0.24599285379E+01  0.17726880358E+01  0.35312264122E+01  0.51100000000E-03 0. -1.
        -11    1    3    3    0    0  0.15902598752E+02  0.11700818016E+01  0.11129682581E+02  0.19445605496E+02  0.51100000000E-03 0.  1.
         12    1    3    3    0    0  0.12342864185E+02 -0.24045166534E+02  0.53475983618E+01  0.27552007879E+02  0.00000000000E+00 0. -1.
</event>
<event>
 7    1  0.5479172E-013  0.5052885E+02  0.7816164E-02  0.1300439E+00
        -11   -1    0    0    0    0  0.00000000000E+00  0.00000000000E+00  0.45593999997E+02  0.45594000000E+02  0.51100000000E-03 0.  1.
         11   -1    0    0    0    0 -0.00000000000E+00 -0.00000000000E+00 -0.45593999997E+02  0.45594000000E+02  0.51100000000E-03 0. -1.
    9900012    2    1    2    0    0  0.18489842990E+02  0.32883196150E+02  0.15165335952E+02  0.50528852230E+02  0.29999976838E+02 0.  0.
         12    1    1    2    0    0 -0.18489842990E+02 -0.32883196150E+02 -0.15165335952E+02  0.40659147770E+02  0.00000000000E+00 0. -1.
         11    1    3    3    0    0  0.11289332086E+02  0.32556732522E+01  0.25908943985E+01  0.12031673255E+02  0.51100000000E-03 0. -1.
        -11    1    3    3    0    0  0.58640616238E+01 -0.19082998561E+00 -0.54593064703E+00  0.58925101055E+01  0.51100000000E-03 0.  1.
        -12    1    3    3    0    0  0.13364492803E+01  0.29818352884E+02  0.13120372201E+02  0.32604668869E+02  0.00000000000E+00 0.  1.
</event>
<event>
 7    1  0.5479172E-013  0.5052887E+02  0.7816164E-02  0.1300439E+00
        -11   -1    0    0    0    0  0.00000000000E+00  0.00000000000E+00  0.45593999997E+02  0.45594000000E+02  0.51100000000E-03 0.  1.
         11   -1    0    0    0    0 -0.00000000000E+00 -0.00000000000E+00 -0.45593999997E+02  0.45594000000E+02  0.51100000000E-03 0. -1.
    9900012    2    1    2    0    0  0.49679213535E+01 -0.32607149479E+02  0.23775171642E+02  0.50528865401E+02  0.30000016872E+02 0.  0.
         12    1    1    2    0    0 -0.49679213535E+01  0.32607149479E+02 -0.23775171642E+02  0.40659134599E+02  0.00000000000E+00 0. -1.
         11    1    3    3    0    0  0.30789920372E+01 -0.85153477646E+01  0.43940794466E+01  0.10064754044E+02  0.51100000000E-03 0. -1.
        -11    1    3    3    0    0 -0.62468223808E+01 -0.25950332189E+02  0.11778174393E+02  0.29174782311E+02  0.51100000000E-03 0.  1.
        -12    1    3    3    0    0  0.81357516972E+01  0.18585304742E+01  0.76029178026E+01  0.11289329046E+02  0.00000000000E+00 0.  1.
</event>
<event>
 7    1  0.5479172E-013  0.5052886E+02  0.7816164E-02  0.1300439E+00
        -11   -1    0    0    0    0  0.00000000000E+00  0.00000000000E+00  0.45593999997E+02  0.45594000000E+02  0.51100000000E-03 0.  1.
         11   -1    0    0    0    0 -0.00000000000E+00 -0.00000000000E+00 -0.45593999997E+02  0.45594000000E+02  0.51100000000E-03 0. -1.
    9900012    2    1    2    0    0  0.33603252510E+02  0.11474508329E+02  0.19807138220E+02  0.50528860251E+02  0.30000001219E+02 0.  0.
         12    1    1    2    0    0 -0.33603252510E+02 -0.11474508329E+02 -0.19807138220E+02  0.40659139749E+02  0.00000000000E+00 0. -1.
         11    1    3    3    0    0  0.11166898232E+02 -0.17598390947E+01  0.71412991060E+01  0.13371417387E+02  0.51100000000E-03 0. -1.
        -11    1    3    3    0    0  0.22680051645E+02  0.17704434045E+01  0.11879504526E+02  0.25664018402E+02  0.51100000000E-03 0.  1.
         12    1    3    3    0    0 -0.24369736711E+00  0.11463904019E+02  0.78633458739E+00  0.11493424462E+02  0.00000000000E+00 0. -1.
</event>
<event>
 7    1  0.5479172E-013  0.5052886E+02  0.7816164E-02  0.1300439E+00
        -11   -1    0    0    0    0  0.00000000000E+00  0.00000000000E+00  0.45593999997E+02  0.45594000000E+02  0.51100000000E-03 0.  1.
         11   -1    0    0    0    0 -0.00000000000E+00 -0.00000000000E+00 -0.45593999997E+02  0.45594000000E+02  0.51100000000E-03 0. -1.
    9900012    2    1    2    0    0 -0.30997068075E+01 -0.39454203675E+02  0.93232582339E+01  0.50528861863E+02  0.30000006119E+02 0.  0.
         12    1    1    2    0    0  0.30997068075E+01  0.39454203675E+02 -0.93232582339E+01  0.40659138137E+02  0.00000000000E+00 0. -1.
         11    1    3    3    0    0  0.10728447368E+02 -0.68914010692E+01  0.33716367326E+01  0.13189348966E+02  0.51100000000E-03 0. -1.
        -11    1    3    3    0    0 -0.33326851613E+01 -0.40475588114E+01 -0.24885472545E+01  0.58036531956E+01  0.51100000000E-03 0.  1.
        -12    1    3    3    0    0 -0.10495469014E+02 -0.28515243795E+02  0.84401687559E+01  0.31535859702E+02  0.00000000000E+00 0.  1.
</event>
<event>
 7    1  0.5479172E-013  0.5052886E+02  0.7816164E-02  0.1300439E+00
        -11   -1    0    0    0    0  0.00000000000E+00  0.00000000000E+00  0.45593999997E+02  0.45594000000E+02  0.51100000000E-03 0.  1.
         11   -1    0    0    0    0 -0.00000000000E+00 -0.00000000000E+00 -0.45593999997E+02  0.45594000000E+02  0.51100000000E-03 0. -1.
    9900012    2    1    2    0    0 -0.24510269081E+02  0.53583637849E+01  0.31995321250E+02  0.50528856689E+02  0.29999990392E+02 0.  0.
         12    1    1    2    0    0  0.24510269081E+02 -0.53583637849E+01 -0.31995321250E+02  0.40659143311E+02  0.00000000000E+00 0. -1.
         11    1    3    3    0    0 -0.22869843102E+01  0.76089149494E+01  0.12398248611E+02  0.14725571392E+02  0.51100000000E-03 0. -1.
        -11    1    3    3    0    0 -0.67424611446E+01  0.64372168388E+01  0.14668237408E+02  0.17379750627E+02  0.51100000000E-03 0.  1.
         12    1    3    3    0    0 -0.15480823626E+02 -0.86877680033E+01  0.49288352313E+01  0.18423534670E+02  0.00000000000E+00 0. -1.
</event>
<event>
 7    1  0.5479172E-013  0.5052885E+02  0.7816164E-02  0.1300439E+00
        -11   -1    0    0    0    0  0.00000000000E+00  0.00000000000E+00  0.45593999997E+02  0.45594000000E+02  0.51100000000E-03 0.  1.
         11   -1    0    0    0    0 -0.00000000000E+00 -0.00000000000E+00 -0.45593999997E+02  0.45594000000E+02  0.51100000000E-03 0. -1.
    9900012    2    1    2    0    0 -0.36651468321E+02 -0.13118258986E+02  0.11736586117E+02  0.50528852166E+02  0.29999976643E+02 0.  0.
         12    1    1    2    0    0  0.36651468321E+02  0.13118258986E+02 -0.11736586117E+02  0.40659147834E+02  0.00000000000E+00 0. -1.
         11    1    3    3    0    0 -0.59184987574E+01 -0.71914732820E+00 -0.81463819136E+01  0.10095015551E+02  0.51100000000E-03 0. -1.
        -11    1    3    3    0    0 -0.23605003477E+02 -0.95181051835E+01  0.87693234242E+01  0.26920095635E+02  0.51100000000E-03 0.  1.
        -12    1    3    3    0    0 -0.71279660875E+01 -0.28810064741E+01  0.11113644606E+02  0.13513740980E+02  0.00000000000E+00 0.  1.
</event>
<event>
 7    1  0.5479172E-013  0.5052886E+02  0.7816164E-02  0.1300439E+00
        -11   -1    0    0    0    0  0.00000000000E+00  0.00000000000E+00  0.45593999997E+02  0.45594000000E+02  0.51100000000E-03 0.  1.
         11   -1    0    0    0    0 -0.00000000000E+00 -0.00000000000E+00 -0.45593999997E+02  0.45594000000E+02  0.51100000000E-03 0. -1.
    9900012    2    1    2    0    0 -0.86843711683E+01  0.15792224018E+02  0.36446574180E+02  0.50528863124E+02  0.30000009952E+02 0.  0.
         12    1    1    2    0    0  0.86843711683E+01 -0.15792224018E+02 -0.36446574180E+02  0.40659136876E+02  0.00000000000E+00 0. -1.
         11    1    3    3    0    0  0.64314803236E+01  0.10202279061E+02  0.89521791996E+01  0.15019718701E+02  0.51100000000E-03 0.  1.
        -11    1    3    3    0    0  0.24701376240E+01 -0.15209491558E+01  0.13283449651E+01  0.31905120002E+01  0.51100000000E-03 0. -1.
         12    1    3    3    0    0 -0.17585989116E+02  0.71108941127E+01  0.26166050015E+02  0.32318632423E+02  0.00000000000E+00 0. -1.
</event>
<event>
 7    1  0.5479172E-013  0.5052886E+02  0.7816164E-02  0.1300439E+00
        -11   -1    0    0    0    0  0.00000000000E+00  0.00000000000E+00  0.45593999997E+02  0.45594000000E+02  0.51100000000E-03 0.  1.
         11   -1    0    0    0    0 -0.00000000000E+00 -0.00000000000E+00 -0.45593999997E+02  0.45594000000E+02  0.51100000000E-03 0. -1.
    9900012    2    1    2    0    0 -0.18546214763E+02 -0.27142202760E+02  0.23927068708E+02  0.50528857489E+02  0.29999992825E+02 0.  0.
         12    1    1    2    0    0  0.18546214763E+02  0.27142202760E+02 -0.23927068708E+02  0.40659142511E+02  0.00000000000E+00 0. -1.
         11    1    3    3    0    0 -0.12803447064E+00  0.52599370968E+01  0.43001432918E+01  0.67951868024E+01  0.51100000000E-03 0. -1.
        -11    1    3    3    0    0 -0.50950134568E+01 -0.13684772684E+01  0.32872736701E+01  0.62159521075E+01  0.51100000000E-03 0.  1.
         12    1    3    3    0    0 -0.13323166836E+02 -0.31033662589E+02  0.16339651746E+02  0.37517718579E+02  0.00000000000E+00 0. -1.
</event>
<event>
 7    1  0.5479172E-013  0.5052886E+02  0.7816164E-02  0.1300439E+00
        -11   -1    0    0    0    0  0.00000000000E+00  0.00000000000E+00  0.45593999997E+02  0.45594000000E+02  0.51100000000E-03 0. -1.
         11   -1    0    0    0    0 -0.00000000000E+00 -0.00000000000E+00 -0.45593999997E+02  0.45594000000E+02  0.51100000000E-03 0.  1.
    9900012    2    1    2    0    0 -0.28464391753E+02  0.24837259686E+02 -0.15035115979E+02  0.50528858604E+02  0.29999996211E+02 0.  0.
         12    1    1    2    0    0  0.28464391753E+02 -0.24837259686E+02  0.15035115979E+02  0.40659141396E+02  0.00000000000E+00 0. -1.
         11    1    3    3    0    0 -0.94273281272E+01  0.13869141405E+02 -0.20679259502E+02  0.26624413097E+02  0.51100000000E-03 0. -1.
        -11    1    3    3    0    0 -0.59376056249E+01  0.63996015701E+01 -0.47254548263E+00  0.87426174746E+01  0.51100000000E-03 0.  1.
         12    1    3    3    0    0 -0.13099458001E+02  0.45685167112E+01  0.61166890065E+01  0.15161828032E+02  0.00000000000E+00 0. -1.
</event>
<event>
 7    1  0.5479172E-013  0.5052885E+02  0.7816164E-02  0.1300439E+00
        -11   -1    0    0    0    0  0.00000000000E+00  0.00000000000E+00  0.45593999997E+02  0.45594000000E+02  0.51100000000E-03 0.  1.
         11   -1    0    0    0    0 -0.00000000000E+00 -0.00000000000E+00 -0.45593999997E+02  0.45594000000E+02  0.51100000000E-03 0. -1.
    9900012    2    1    2    0    0 -0.35294189397E+02 -0.20056618670E+02 -0.22843776196E+01  0.50528854180E+02  0.29999982767E+02 0.  0.
         12    1    1    2    0    0  0.35294189397E+02  0.20056618670E+02  0.22843776196E+01  0.40659145820E+02  0.00000000000E+00 0. -1.
         11    1    3    3    0    0 -0.18211400172E+01 -0.11394501029E+02 -0.39531960259E+01  0.12197498257E+02  0.51100000000E-03 0. -1.
        -11    1    3    3    0    0 -0.11681687762E+02 -0.36798094055E+01  0.85567048765E+01  0.14940549683E+02  0.51100000000E-03 0.  1.
         12    1    3    3    0    0 -0.21791361618E+02 -0.49823082353E+01 -0.68878864702E+01  0.23390806240E+02  0.00000000000E+00 0. -1.
</event>
<event>
 7    1  0.5479172E-013  0.5052891E+02  0.7816164E-02  0.1300439E+00
        -11   -1    0    0    0    0  0.00000000000E+00  0.00000000000E+00  0.45593999997E+02  0.45594000000E+02  0.51100000000E-03 0.  1.
         11   -1    0    0    0    0 -0.00000000000E+00 -0.00000000000E+00 -0.45593999997E+02  0.45594000000E+02  0.51100000000E-03 0. -1.
    9900012    2    1    2    0    0  0.25014512684E+02 -0.27794695702E+02  0.15965291212E+02  0.50528911503E+02  0.30000157003E+02 0.  0.
         12    1    1    2    0    0 -0.25014512684E+02  0.27794695702E+02 -0.15965291212E+02  0.40659088497E+02  0.00000000000E+00 0. -1.
         11    1    3    3    0    0  0.57532795130E+00 -0.26631783621E+01 -0.14717450709E+01  0.30967006725E+01  0.51100000000E-03 0. -1.
        -11    1    3    3    0    0  0.51610041706E+00 -0.19522019010E+02  0.72194300794E+01  0.20820560915E+02  0.51100000000E-03 0.  1.
        -12    1    3    3    0    0  0.23923084315E+02 -0.56094983291E+01  0.10217606204E+02  0.26611649915E+02  0.00000000000E+00 0.  1.
</event>
<event>
 7    1  0.5479172E-013  0.5052886E+02  0.7816164E-02  0.1300439E+00
        -11   -1    0    0    0    0  0.00000000000E+00  0.00000000000E+00  0.45593999997E+02  0.45594000000E+02  0.51100000000E-03 0.  1.
         11   -1    0    0    0    0 -0.00000000000E+00 -0.00000000000E+00 -0.45593999997E+02  0.45594000000E+02  0.51100000000E-03 0. -1.
    9900012    2    1    2    0    0 -0.30934965860E+02  0.17850986881E+02  0.19430287834E+02  0.50528856739E+02  0.29999990544E+02 0.  0.
         12    1    1    2    0    0  0.30934965860E+02 -0.17850986881E+02 -0.19430287834E+02  0.40659143261E+02  0.00000000000E+00 0. -1.
         11    1    3    3    0    0  0.84891434144E-01 -0.39136702010E+00 -0.11042950887E+01  0.11746670183E+01  0.51100000000E-03 0. -1.
        -11    1    3    3    0    0 -0.61041101993E+01 -0.50561695924E+00  0.16882959057E+02  0.17959680303E+02  0.51100000000E-03 0.  1.
         12    1    3    3    0    0 -0.24915747095E+02  0.18747970860E+02  0.36516238665E+01  0.31394509417E+02  0.00000000000E+00 0. -1.
</event>
<event>
 7    1  0.5479172E-013  0.5052886E+02  0.7816164E-02  0.1300439E+00
        -11   -1    0    0    0    0  0.00000000000E+00  0.00000000000E+00  0.45593999997E+02  0.45594000000E+02  0.51100000000E-03 0.  1.
         11   -1    0    0    0    0 -0.00000000000E+00 -0.00000000000E+00 -0.45593999997E+02  0.45594000000E+02  0.51100000000E-03 0. -1.
    9900012    2    1    2    0    0 -0.25139963355E+02 -0.68875069407E+01  0.31204328498E+02  0.50528860482E+02  0.30000001920E+02 0.  0.
         12    1    1    2    0    0  0.25139963355E+02  0.68875069407E+01 -0.31204328498E+02  0.40659139518E+02  0.00000000000E+00 0. -1.
         11    1    3    3    0    0 -0.14239336554E+02 -0.90075425555E+01  0.97244645281E+01  0.19454041714E+02  0.51100000000E-03 0. -1.
        -11    1    3    3    0    0 -0.65596831647E+01 -0.82588389144E+01  0.14147276426E+02  0.17646056046E+02  0.51100000000E-03 0.  1.
        -12    1    3    3    0    0 -0.43409436354E+01  0.10378874529E+02  0.73325875443E+01  0.13428762722E+02  0.00000000000E+00 0.  1.
</event>
<event>
 7    1  0.5479172E-013  0.5052887E+02  0.7816164E-02  0.1300439E+00
        -11   -1    0    0    0    0  0.00000000000E+00  0.00000000000E+00  0.45593999997E+02  0.45594000000E+02  0.51100000000E-03 0.  1.
         11   -1    0    0    0    0 -0.00000000000E+00 -0.00000000000E+00 -0.45593999997E+02  0.45594000000E+02  0.51100000000E-03 0. -1.
    9900012    2    1    2    0    0  0.40363684012E+02 -0.15271313789E+01  0.46482133617E+01  0.50528868126E+02  0.30000025156E+02 0.  0.
         12    1    1    2    0    0 -0.40363684012E+02  0.15271313789E+01 -0.46482133617E+01  0.40659131874E+02  0.00000000000E+00 0. -1.
         11    1    3    3    0    0  0.54438174694E+00  0.11701708391E+01  0.14898487486E+01  0.19711166464E+01  0.51100000000E-03 0. -1.
        -11    1    3    3    0    0  0.20575135228E+02  0.12035621948E+02  0.46082561664E+01  0.24278146768E+02  0.51100000000E-03 0.  1.
         12    1    3    3    0    0  0.19244167037E+02 -0.14732924166E+02 -0.14498915533E+01  0.24279604711E+02  0.00000000000E+00 0. -1.
</event>
<event>
 7    1  0.5479172E-013  0.5052887E+02  0.7816164E-02  0.1300439E+00
        -11   -1    0    0    0    0  0.00000000000E+00  0.00000000000E+00  0.45593999997E+02  0.45594000000E+02  0.51100000000E-03 0. -1.
         11   -1    0    0    0    0 -0.00000000000E+00 -0.00000000000E+00 -0.45593999997E+02  0.45594000000E+02  0.51100000000E-03 0.  1.
    9900012    2    1    2    0    0 -0.19879942155E+02  0.34744235625E+02  0.71267875046E+01  0.50528866839E+02  0.30000021245E+02 0.  0.
         12    1    1    2    0    0  0.19879942155E+02 -0.34744235625E+02 -0.71267875046E+01  0.40659133161E+02  0.00000000000E+00 0. -1.
         11    1    3    3    0    0  0.10121584242E+00  0.95965997021E+01 -0.16235871217E+01  0.97334991597E+01  0.51100000000E-03 0. -1.
        -11    1    3    3    0    0 -0.56193499516E+01  0.24251456933E+02  0.88057479873E+01  0.26405519406E+02  0.51100000000E-03 0.  1.
         12    1    3    3    0    0 -0.14361808046E+02  0.89617898997E+00 -0.55373361033E-01  0.14389848273E+02  0.00000000000E+00 0. -1.
</event>
<event>
 7    1  0.5479172E-013  0.5052886E+02  0.7816164E-02  0.1300439E+00
        -11   -1    0    0    0    0  0.00000000000E+00  0.00000000000E+00  0.45593999997E+02  0.45594000000E+02  0.51100000000E-03 0. -1.
         11   -1    0    0    0    0 -0.00000000000E+00 -0.00000000000E+00 -0.45593999997E+02  0.45594000000E+02  0.51100000000E-03 0.  1.
    9900012    2    1    2    0    0 -0.31772561919E+02  0.22503027075E+02 -0.11716801035E+02  0.50528863943E+02  0.30000012440E+02 0.  0.
         12    1    1    2    0    0  0.31772561919E+02 -0.22503027075E+02  0.11716801035E+02  0.40659136057E+02  0.00000000000E+00 0. -1.
         11    1    3    3    0    0  0.21658032177E+01  0.44010802032E+01  0.28183413685E+01  0.56571422877E+01  0.51100000000E-03 0. -1.
        -11    1    3    3    0    0 -0.20412047185E+01  0.60894777839E+01  0.23442897966E+01  0.68369548262E+01  0.51100000000E-03 0.  1.
        -12    1    3    3    0    0 -0.31897160418E+02  0.12012469088E+02 -0.16879432201E+02  0.38034766829E+02  0.00000000000E+00 0.  1.
</event>
<event>
 7    1  0.5479172E-013  0.5052884E+02  0.7816164E-02  0.1300439E+00
        -11   -1    0    0    0    0  0.00000000000E+00  0.00000000000E+00  0.45593999997E+02  0.45594000000E+02  0.51100000000E-03 0. -1.
         11   -1    0    0    0    0 -0.00000000000E+00 -0.00000000000E+00 -0.45593999997E+02  0.45594000000E+02  0.51100000000E-03 0.  1.
    9900012    2    1    2    0    0  0.65728333605E+01 -0.39297279190E+02 -0.81048789635E+01  0.50528839247E+02  0.29999937375E+02 0.  0.
         12    1    1    2    0    0 -0.65728333605E+01  0.39297279190E+02  0.81048789635E+01  0.40659160753E+02  0.00000000000E+00 0. -1.
         11    1    3    3    0    0 -0.48810643451E+01 -0.27390732768E+01  0.23680724122E+01  0.60774236949E+01  0.51100000000E-03 0. -1.
        -11    1    3    3    0    0 -0.14660855910E+01 -0.10708241029E+02 -0.11171494319E+02  0.15544070203E+02  0.51100000000E-03 0.  1.
        -12    1    3    3    0    0  0.12919983297E+02 -0.25849964884E+02  0.69854294305E+00  0.28907345349E+02  0.00000000000E+00 0.  1.
</event>
<event>
 7    1  0.5479172E-013  0.5052887E+02  0.7816164E-02  0.1300439E+00
        -11   -1    0    0    0    0  0.00000000000E+00  0.00000000000E+00  0.45593999997E+02  0.45594000000E+02  0.51100000000E-03 0.  1.
         11   -1    0    0    0    0 -0.00000000000E+00 -0.00000000000E+00 -0.45593999997E+02  0.45594000000E+02  0.51100000000E-03 0. -1.
    9900012    2    1    2    0    0 -0.33943709540E+02  0.20400016586E+02  0.92102747870E+01  0.50528865040E+02  0.30000015777E+02 0.  0.
         12    1    1    2    0    0  0.33943709540E+02 -0.20400016586E+02 -0.92102747870E+01  0.40659134960E+02  0.00000000000E+00 0. -1.
         11    1    3    3    0    0 -0.71499785917E+01 -0.37539709443E+01 -0.24405140637E+01  0.84362669984E+01  0.51100000000E-03 0. -1.
        -11    1    3    3    0    0 -0.11380683288E+02 -0.45243974331E+00  0.39278225272E+01  0.12047922804E+02  0.51100000000E-03 0.  1.
        -12    1    3    3    0    0 -0.15413047660E+02  0.24606427273E+02  0.77229663236E+01  0.30044675238E+02  0.00000000000E+00 0.  1.
</event>
<event>
 7    1  0.5479172E-013  0.5052886E+02  0.7816164E-02  0.1300439E+00
        -11   -1    0    0    0    0  0.00000000000E+00  0.00000000000E+00  0.45593999997E+02  0.45594000000E+02  0.51100000000E-03 0.  1.
         11   -1    0    0    0    0 -0.00000000000E+00 -0.00000000000E+00 -0.45593999997E+02  0.45594000000E+02  0.51100000000E-03 0. -1.
    9900012    2    1    2    0    0 -0.74710932190E+01  0.28266870974E+02  0.28254780201E+02  0.50528857944E+02  0.29999994206E+02 0.  0.
         12    1    1    2    0    0  0.74710932190E+01 -0.28266870974E+02 -0.28254780201E+02  0.40659142056E+02  0.00000000000E+00 0. -1.
         11    1    3    3    0    0  0.79483974568E+01 -0.16224942905E+01  0.56585394606E+01  0.98908330762E+01  0.51100000000E-03 0.  1.
        -11    1    3    3    0    0 -0.18128254735E+01  0.18367909903E+01  0.13888263389E+01  0.29306955147E+01  0.51100000000E-03 0. -1.
        -12    1    3    3    0    0 -0.13606665202E+02  0.28052574274E+02  0.21207414402E+02  0.37707329353E+02  0.00000000000E+00 0.  1.
</event>
<event>
 7    1  0.5479172E-013  0.5052886E+02  0.7816164E-02  0.1300439E+00
        -11   -1    0    0    0    0  0.00000000000E+00  0.00000000000E+00  0.45593999997E+02  0.45594000000E+02  0.51100000000E-03 0.  1.
         11   -1    0    0    0    0 -0.00000000000E+00 -0.00000000000E+00 -0.45593999997E+02  0.45594000000E+02  0.51100000000E-03 0. -1.
    9900012    2    1    2    0    0  0.28349260024E+02  0.10409008901E+02  0.27223845436E+02  0.50528858709E+02  0.29999996532E+02 0.  0.
         12    1    1    2    0    0 -0.28349260024E+02 -0.10409008901E+02 -0.27223845436E+02  0.40659141291E+02  0.00000000000E+00 0. -1.
         11    1    3    3    0    0  0.63469687882E+01  0.99633823210E+01 -0.32552074294E+01  0.12253545436E+02  0.51100000000E-03 0. -1.
        -11    1    3    3    0    0  0.14498149487E+02  0.27715913014E-01  0.13958590388E+02  0.20125589497E+02  0.51100000000E-03 0.  1.
        -12    1    3    3    0    0  0.75041417488E+01  0.41791066723E+00  0.16520462477E+02  0.18149723776E+02  0.00000000000E+00 0.  1.
</event>
<event>
 7    1  0.5479172E-013  0.5052886E+02  0.7816164E-02  0.1300439E+00
        -11   -1    0    0    0    0  0.00000000000E+00  0.00000000000E+00  0.45593999997E+02  0.45594000000E+02  0.51100000000E-03 0.  1.
         11   -1    0    0    0    0 -0.00000000000E+00 -0.00000000000E+00 -0.45593999997E+02  0.45594000000E+02  0.51100000000E-03 0. -1.
    9900012    2    1    2    0    0 -0.22226166388E+02 -0.21210757323E+02  0.26632067212E+02  0.50528859545E+02  0.29999999073E+02 0.  0.
         12    1    1    2    0    0  0.22226166388E+02  0.21210757323E+02 -0.26632067212E+02  0.40659140455E+02  0.00000000000E+00 0. -1.
         11    1    3    3    0    0 -0.12269384787E+02 -0.46302202865E+00  0.16534584295E+02  0.20594772893E+02  0.51100000000E-03 0. -1.
        -11    1    3    3    0    0 -0.81560828729E+01 -0.38206203038E+01  0.92197377863E+01  0.12888847600E+02  0.51100000000E-03 0.  1.
         12    1    3    3    0    0 -0.18006987284E+01 -0.16927114991E+02  0.87774513047E+00  0.17045239052E+02  0.00000000000E+00 0. -1.
</event>
<event>
 7    1  0.5479172E-013  0.5052887E+02  0.7816164E-02  0.1300439E+00
        -11   -1    0    0    0    0  0.00000000000E+00  0.00000000000E+00  0.45593999997E+02  0.45594000000E+02  0.51100000000E-03 0.  1.
         11   -1    0    0    0    0 -0.00000000000E+00 -0.00000000000E+00 -0.45593999997E+02  0.45594000000E+02  0.51100000000E-03 0. -1.
    9900012    2    1    2    0    0 -0.28592413778E+02  0.17185050959E+02  0.23244632969E+02  0.50528867397E+02  0.30000022941E+02 0.  0.
         12    1    1    2    0    0  0.28592413778E+02 -0.17185050959E+02 -0.23244632969E+02  0.40659132603E+02  0.00000000000E+00 0. -1.
         11    1    3    3    0    0 -0.11325532987E+02  0.62495706143E+01 -0.21860271437E+01  0.13118824080E+02  0.51100000000E-03 0. -1.
        -11    1    3    3    0    0 -0.16899615159E+02  0.13285061505E+01  0.11501782356E+02  0.20485431866E+02  0.51100000000E-03 0.  1.
        -12    1    3    3    0    0 -0.36726563194E+00  0.96069741946E+01  0.13928877757E+02  0.16924611451E+02  0.00000000000E+00 0.  1.
</event>
<event>
 7    1  0.5479172E-013  0.5052889E+02  0.7816164E-02  0.1300439E+00
        -11   -1    0    0    0    0  0.00000000000E+00  0.00000000000E+00  0.45593999997E+02  0.45594000000E+02  0.51100000000E-03 0.  1.
         11   -1    0    0    0    0 -0.00000000000E+00 -0.00000000000E+00 -0.45593999997E+02  0.45594000000E+02  0.51100000000E-03 0. -1.
    9900012    2    1    2    0    0 -0.20182493398E+02 -0.42495042926E+01  0.35039579120E+02  0.50528887474E+02  0.30000083967E+02 0.  0.
         12    1    1    2    0    0  0.20182493398E+02  0.42495042926E+01 -0.35039579120E+02  0.40659112526E+02  0.00000000000E+00 0. -1.
         11    1    3    3    0    0 -0.13662340224E+02 -0.86860713234E+01  0.13122098812E+02  0.20839790136E+02  0.51100000000E-03 0.  1.
        -11    1    3    3    0    0 -0.99803392422E+01  0.34699918955E+01  0.38156541761E+01  0.11234199224E+02  0.51100000000E-03 0. -1.
         12    1    3    3    0    0  0.34601860681E+01  0.96657513525E+00  0.18101826132E+02  0.18454898115E+02  0.00000000000E+00 0. -1.
</event>
<event>
 7    1  0.5479172E-013  0.5052887E+02  0.7816164E-02  0.1300439E+00
        -11   -1    0    0    0    0  0.00000000000E+00  0.00000000000E+00  0.45593999997E+02  0.45594000000E+02  0.51100000000E-03 0.  1.
         11   -1    0    0    0    0 -0.00000000000E+00 -0.00000000000E+00 -0.45593999997E+02  0.45594000000E+02  0.51100000000E-03 0. -1.
    9900012    2    1    2    0    0 -0.12549809098E+02  0.17308155116E+02  0.34584608020E+02  0.50528867522E+02  0.30000023321E+02 0.  0.
         12    1    1    2    0    0  0.12549809098E+02 -0.17308155116E+02 -0.34584608020E+02  0.40659132478E+02  0.00000000000E+00 0. -1.
         11    1    3    3    0    0  0.23155724267E+01 -0.55057395616E+00 -0.16140626493E+01  0.28757965577E+01  0.51100000000E-03 0. -1.
        -11    1    3    3    0    0 -0.42858331421E+01  0.52009940015E+01 -0.11375876064E+01  0.68346770332E+01  0.51100000000E-03 0.  1.
        -12    1    3    3    0    0 -0.10579548383E+02  0.12657735071E+02  0.37336258276E+02  0.40818393931E+02  0.00000000000E+00 0.  1.
</event>
<event>
 7    1  0.5479172E-013  0.5052885E+02  0.7816164E-02  0.1300439E+00
        -11   -1    0    0    0    0  0.00000000000E+00  0.00000000000E+00  0.45593999997E+02  0.45594000000E+02  0.51100000000E-03 0.  1.
         11   -1    0    0    0    0 -0.00000000000E+00 -0.00000000000E+00 -0.45593999997E+02  0.45594000000E+02  0.51100000000E-03 0. -1.
    9900012    2    1    2    0    0 -0.35095467732E+02  0.11386564854E+02  0.17082752951E+02  0.50528853883E+02  0.29999981864E+02 0.  0.
         12    1    1    2    0    0  0.35095467732E+02 -0.11386564854E+02 -0.17082752951E+02  0.40659146117E+02  0.00000000000E+00 0. -1.
         11    1    3    3    0    0 -0.19574803787E+02  0.68965722139E-01 -0.34687826597E+01  0.19879893183E+02  0.51100000000E-03 0.  1.
        -11    1    3    3    0    0 -0.75652214826E+01  0.22723552273E+01  0.13972999906E+01  0.80217592762E+01  0.51100000000E-03 0. -1.
         12    1    3    3    0    0 -0.79554424625E+01  0.90452439044E+01  0.19154235621E+02  0.22627201424E+02  0.00000000000E+00 0. -1.
</event>
<event>
 7    1  0.5479172E-013  0.5052885E+02  0.7816164E-02  0.1300439E+00
        -11   -1    0    0    0    0  0.00000000000E+00  0.00000000000E+00  0.45593999997E+02  0.45594000000E+02  0.51100000000E-03 0. -1.
         11   -1    0    0    0    0 -0.00000000000E+00 -0.00000000000E+00 -0.45593999997E+02  0.45594000000E+02  0.51100000000E-03 0.  1.
    9900012    2    1    2    0    0  0.11738703460E+02  0.37067947397E+02 -0.11888490518E+02  0.50528854781E+02  0.29999984592E+02 0.  0.
         12    1    1    2    0    0 -0.11738703460E+02 -0.37067947397E+02  0.11888490518E+02  0.40659145219E+02  0.00000000000E+00 0. -1.
         11    1    3    3    0    0 -0.39943799144E+01  0.64023444780E+01 -0.74159288021E+00  0.75825487783E+01  0.51100000000E-03 0.  1.
        -11    1    3    3    0    0  0.52334083125E+00  0.23637029437E+02 -0.16820189037E+01  0.23702578638E+02  0.51100000000E-03 0. -1.
        -12    1    3    3    0    0  0.15209742544E+02  0.70285734821E+01 -0.94648787340E+01  0.19243727365E+02  0.00000000000E+00 0.  1.
</event>
<event>
 7    1  0.5479172E-013  0.5052887E+02  0.7816164E-02  0.1300439E+00
        -11   -1    0    0    0    0  0.00000000000E+00  0.00000000000E+00  0.45593999997E+02  0.45594000000E+02  0.51100000000E-03 0.  1.
         11   -1    0    0    0    0 -0.00000000000E+00 -0.00000000000E+00 -0.45593999997E+02  0.45594000000E+02  0.51100000000E-03 0. -1.
    9900012    2    1    2    0    0  0.27765338882E+02 -0.28840502406E+02 -0.71046701028E+01  0.50528868682E+02  0.30000026845E+02 0.  0.
         12    1    1    2    0    0 -0.27765338882E+02  0.28840502406E+02  0.71046701028E+01  0.40659131318E+02  0.00000000000E+00 0. -1.
         11    1    3    3    0    0  0.31304565508E+01  0.93924507199E+00  0.54817117273E+00  0.33139751685E+01  0.51100000000E-03 0. -1.
        -11    1    3    3    0    0  0.14932044774E+02 -0.93271304434E+01  0.83567222537E+01  0.19488358846E+02  0.51100000000E-03 0.  1.
         12    1    3    3    0    0  0.97028375570E+01 -0.20452617035E+02 -0.16009563529E+02  0.27726534667E+02  0.00000000000E+00 0. -1.
</event>
<event>
 7    1  0.5479172E-013  0.5052886E+02  0.7816164E-02  0.1300439E+00
        -11   -1    0    0    0    0  0.00000000000E+00  0.00000000000E+00  0.45593999997E+02  0.45594000000E+02  0.51100000000E-03 0.  1.
         11   -1    0    0    0    0 -0.00000000000E+00 -0.00000000000E+00 -0.45593999997E+02  0.45594000000E+02  0.51100000000E-03 0. -1.
    9900012    2    1    2    0    0  0.88082677528E+01  0.28544886636E+02  0.27582050690E+02  0.50528860140E+02  0.30000000882E+02 0.  0.
         12    1    1    2    0    0 -0.88082677528E+01 -0.28544886636E+02 -0.27582050690E+02  0.40659139860E+02  0.00000000000E+00 0. -1.
         11    1    3    3    0    0  0.46058397392E+01  0.15582458697E+02  0.79781412833E+00  0.16268475233E+02  0.51100000000E-03 0. -1.
        -11    1    3    3    0    0 -0.43222491622E+01  0.68985851157E+01  0.37522945062E+01  0.89639293137E+01  0.51100000000E-03 0.  1.
         12    1    3    3    0    0  0.85246771758E+01  0.60638428231E+01  0.23031942056E+02  0.25296455594E+02  0.00000000000E+00 0. -1.
</event>
<event>
 7    1  0.5479172E-013  0.5052886E+02  0.7816164E-02  0.1300439E+00
        -11   -1    0    0    0    0  0.00000000000E+00  0.00000000000E+00  0.45593999997E+02  0.45594000000E+02  0.51100000000E-03 0. -1.
         11   -1    0    0    0    0 -0.00000000000E+00 -0.00000000000E+00 -0.45593999997E+02  0.45594000000E+02  0.51100000000E-03 0.  1.
    9900012    2    1    2    0    0  0.10814199220E+02  0.38943775890E+02  0.44272909818E+01  0.50528862149E+02  0.30000006989E+02 0.  0.
         12    1    1    2    0    0 -0.10814199220E+02 -0.38943775890E+02 -0.44272909818E+01  0.40659137851E+02  0.00000000000E+00 0. -1.
         11    1    3    3    0    0  0.48020256357E+01  0.20101702523E+01 -0.34370774655E-02  0.52057897310E+01  0.51100000000E-03 0. -1.
        -11    1    3    3    0    0  0.47845264742E+01 -0.86407468735E+00 -0.43226219929E+01  0.65056421514E+01  0.51100000000E-03 0.  1.
        -12    1    3    3    0    0  0.12276471105E+01  0.37797680325E+02  0.87533500521E+01  0.38817430267E+02  0.00000000000E+00 0.  1.
</event>
<event>
 7    1  0.5479172E-013  0.5052888E+02  0.7816164E-02  0.1300439E+00
        -11   -1    0    0    0    0  0.00000000000E+00  0.00000000000E+00  0.45593999997E+02  0.45594000000E+02  0.51100000000E-03 0. -1.
         11   -1    0    0    0    0 -0.00000000000E+00 -0.00000000000E+00 -0.45593999997E+02  0.45594000000E+02  0.51100000000E-03 0.  1.
    9900012    2    1    2    0    0  0.15622429636E+02  0.35313250272E+02 -0.12730997169E+02  0.50528877513E+02  0.30000053689E+02 0.  0.
         12    1    1    2    0    0 -0.15622429636E+02 -0.35313250272E+02  0.12730997169E+02  0.40659122487E+02  0.00000000000E+00 0. -1.
         11    1    3    3    0    0  0.12949263671E+01  0.37505379257E+01 -0.74687856466E+01  0.84573121217E+01  0.51100000000E-03 0. -1.
        -11    1    3    3    0    0  0.34118550756E+01  0.41161258554E+01 -0.10770848770E+02  0.12024742434E+02  0.51100000000E-03 0.  1.
        -12    1    3    3    0    0  0.10915648193E+02  0.27446586491E+02  0.55086372483E+01  0.30046822957E+02  0.00000000000E+00 0.  1.
</event>
<event>
 7    1  0.5479172E-013  0.5052886E+02  0.7816164E-02  0.1300439E+00
        -11   -1    0    0    0    0  0.00000000000E+00  0.00000000000E+00  0.45593999997E+02  0.45594000000E+02  0.51100000000E-03 0.  1.
         11   -1    0    0    0    0 -0.00000000000E+00 -0.00000000000E+00 -0.45593999997E+02  0.45594000000E+02  0.51100000000E-03 0. -1.
    9900012    2    1    2    0    0  0.10226138369E+02 -0.13649430385E+02  0.36909144134E+02  0.50528858636E+02  0.29999996309E+02 0.  0.
         12    1    1    2    0    0 -0.10226138369E+02  0.13649430385E+02 -0.36909144134E+02  0.40659141364E+02  0.00000000000E+00 0. -1.
         11    1    3    3    0    0  0.80436539474E+01 -0.11420336975E+02  0.39588406778E+01  0.14518845864E+02  0.51100000000E-03 0.  1.
        -11    1    3    3    0    0  0.77922674640E+01 -0.23753594949E+01  0.13510186171E+02  0.15776149580E+02  0.51100000000E-03 0. -1.
         12    1    3    3    0    0 -0.56097830426E+01  0.14626608502E+00  0.19440117286E+02  0.20233863191E+02  0.00000000000E+00 0. -1.
</event>
<event>
 7    1  0.5479172E-013  0.5052887E+02  0.7816164E-02  0.1300439E+00
        -11   -1    0    0    0    0  0.00000000000E+00  0.00000000000E+00  0.45593999997E+02  0.45594000000E+02  0.51100000000E-03 0.  1.
         11   -1    0    0    0    0 -0.00000000000E+00 -0.00000000000E+00 -0.45593999997E+02  0.45594000000E+02  0.51100000000E-03 0. -1.
    9900012    2    1    2    0    0  0.27658406255E+01 -0.33739641014E+02  0.22520024587E+02  0.50528871167E+02  0.30000034398E+02 0.  0.
         12    1    1    2    0    0 -0.27658406255E+01  0.33739641014E+02 -0.22520024587E+02  0.40659128833E+02  0.00000000000E+00 0. -1.
         11    1    3    3    0    0 -0.95124840892E+01 -0.95902405142E+01  0.23228758056E+01  0.13706050450E+02  0.51100000000E-03 0. -1.
        -11    1    3    3    0    0 -0.10794927682E+01  0.11872482335E+01  0.30332957260E+01  0.34315807185E+01  0.51100000000E-03 0.  1.
        -12    1    3    3    0    0  0.13357817483E+02 -0.25336648733E+02  0.17163853055E+02  0.33391239998E+02  0.00000000000E+00 0.  1.
</event>
<event>
 7    1  0.5479172E-013  0.5052886E+02  0.7816164E-02  0.1300439E+00
        -11   -1    0    0    0    0  0.00000000000E+00  0.00000000000E+00  0.45593999997E+02  0.45594000000E+02  0.51100000000E-03 0.  1.
         11   -1    0    0    0    0 -0.00000000000E+00 -0.00000000000E+00 -0.45593999997E+02  0.45594000000E+02  0.51100000000E-03 0. -1.
    9900012    2    1    2    0    0 -0.26330074586E+02  0.23842342271E+02  0.19784728708E+02  0.50528860772E+02  0.30000002802E+02 0.  0.
         12    1    1    2    0    0  0.26330074586E+02 -0.23842342271E+02 -0.19784728708E+02  0.40659139228E+02  0.00000000000E+00 0. -1.
         11    1    3    3    0    0 -0.19336656154E+01  0.49466464308E+01  0.11240077443E+01  0.54287905922E+01  0.51100000000E-03 0. -1.
        -11    1    3    3    0    0 -0.28620403694E+02  0.18867213438E+02  0.21069848823E+02  0.40237268548E+02  0.51100000000E-03 0.  1.
        -12    1    3    3    0    0  0.42239947227E+01  0.28482402210E-01 -0.24091278594E+01  0.48628016315E+01  0.00000000000E+00 0.  1.
</event>
<event>
 7    1  0.5479172E-013  0.5052886E+02  0.7816164E-02  0.1300439E+00
        -11   -1    0    0    0    0  0.00000000000E+00  0.00000000000E+00  0.45593999997E+02  0.45594000000E+02  0.51100000000E-03 0.  1.
         11   -1    0    0    0    0 -0.00000000000E+00 -0.00000000000E+00 -0.45593999997E+02  0.45594000000E+02  0.51100000000E-03 0. -1.
    9900012    2    1    2    0    0 -0.41046140679E+01  0.25011223741E+02  0.31792401660E+02  0.50528856219E+02  0.29999988964E+02 0.  0.
         12    1    1    2    0    0  0.41046140679E+01 -0.25011223741E+02 -0.31792401660E+02  0.40659143781E+02  0.00000000000E+00 0. -1.
         11    1    3    3    0    0  0.23792221815E+01  0.19540050755E+02  0.24387763251E+02  0.31340664932E+02  0.51100000000E-03 0. -1.
        -11    1    3    3    0    0  0.33756226133E+01  0.63195313955E+01  0.62313915876E+00  0.71916345679E+01  0.51100000000E-03 0.  1.
         12    1    3    3    0    0 -0.98594588627E+01 -0.84835840928E+00  0.67814992498E+01  0.11996556720E+02  0.00000000000E+00 0. -1.
</event>
<event>
 7    1  0.5479172E-013  0.5052885E+02  0.7816164E-02  0.1300439E+00
        -11   -1    0    0    0    0  0.00000000000E+00  0.00000000000E+00  0.45593999997E+02  0.45594000000E+02  0.51100000000E-03 0.  1.
         11   -1    0    0    0    0 -0.00000000000E+00 -0.00000000000E+00 -0.45593999997E+02  0.45594000000E+02  0.51100000000E-03 0. -1.
    9900012    2    1    2    0    0  0.51301764910E+01 -0.15781779418E+02  0.37118497209E+02  0.50528854565E+02  0.29999983937E+02 0.  0.
         12    1    1    2    0    0 -0.51301764910E+01  0.15781779418E+02 -0.37118497209E+02  0.40659145435E+02  0.00000000000E+00 0. -1.
         11    1    3    3    0    0  0.13737509056E+02 -0.65389165154E+01  0.16613229269E+02  0.22527227332E+02  0.51100000000E-03 0.  1.
        -11    1    3    3    0    0  0.24904836431E+01  0.15316796578E+01  0.65334423954E+01  0.71578223745E+01  0.51100000000E-03 0. -1.
         12    1    3    3    0    0 -0.11097816208E+02 -0.10774542560E+02  0.13971825544E+02  0.20843804859E+02  0.00000000000E+00 0. -1.
</event>
<event>
 7    1  0.5479172E-013  0.5052886E+02  0.7816164E-02  0.1300439E+00
        -11   -1    0    0    0    0  0.00000000000E+00  0.00000000000E+00  0.45593999997E+02  0.45594000000E+02  0.51100000000E-03 0.  1.
         11   -1    0    0    0    0 -0.00000000000E+00 -0.00000000000E+00 -0.45593999997E+02  0.45594000000E+02  0.51100000000E-03 0. -1.
    9900012    2    1    2    0    0  0.49508176919E+01  0.36408298274E+02  0.17409506917E+02  0.50528859452E+02  0.29999998790E+02 0.  0.
         12    1    1    2    0    0 -0.49508176919E+01 -0.36408298274E+02 -0.17409506917E+02  0.40659140548E+02  0.00000000000E+00 0. -1.
         11    1    3    3    0    0 -0.83741365442E+01  0.18786138709E+02 -0.12403112630E+01  0.20605425081E+02  0.51100000000E-03 0. -1.
        -11    1    3    3    0    0 -0.74616161931E+00  0.17786175695E+00  0.58492712773E-03  0.76706751331E+00  0.51100000000E-03 0.  1.
        -12    1    3    3    0    0  0.14071115855E+02  0.17444297807E+02  0.18649233253E+02  0.29156366858E+02  0.00000000000E+00 0.  1.
</event>
<event>
 7    1  0.5479172E-013  0.5052886E+02  0.7816164E-02  0.1300439E+00
        -11   -1    0    0    0    0  0.00000000000E+00  0.00000000000E+00  0.45593999997E+02  0.45594000000E+02  0.51100000000E-03 0.  1.
         11   -1    0    0    0    0 -0.00000000000E+00 -0.00000000000E+00 -0.45593999997E+02  0.45594000000E+02  0.51100000000E-03 0. -1.
    9900012    2    1    2    0    0 -0.17239736001E+02  0.24254888462E+02  0.27706637446E+02  0.50528857482E+02  0.29999992803E+02 0.  0.
         12    1    1    2    0    0  0.17239736001E+02 -0.24254888462E+02 -0.27706637446E+02  0.40659142518E+02  0.00000000000E+00 0. -1.
         11    1    3    3    0    0 -0.11258928067E+02  0.11239365337E+01  0.49119375881E+01  0.12335064884E+02  0.51100000000E-03 0. -1.
        -11    1    3    3    0    0 -0.23359407659E+01  0.93500154793E+00 -0.30354128380E+01  0.39426613493E+01  0.51100000000E-03 0.  1.
        -12    1    3    3    0    0 -0.36448671682E+01  0.22195950381E+02  0.25830112696E+02  0.34251131249E+02  0.00000000000E+00 0.  1.
</event>
<event>
 7    1  0.5479172E-013  0.5052886E+02  0.7816164E-02  0.1300439E+00
        -11   -1    0    0    0    0  0.00000000000E+00  0.00000000000E+00  0.45593999997E+02  0.45594000000E+02  0.51100000000E-03 0.  1.
         11   -1    0    0    0    0 -0.00000000000E+00 -0.00000000000E+00 -0.45593999997E+02  0.45594000000E+02  0.51100000000E-03 0. -1.
    9900012    2    1    2    0    0  0.28897104890E+02  0.14037971482E+02  0.24921034693E+02  0.50528864686E+02  0.30000014698E+02 0.  0.
         12    1    1    2    0    0 -0.28897104890E+02 -0.14037971482E+02 -0.24921034693E+02  0.40659135314E+02  0.00000000000E+00 0. -1.
         11    1    3    3    0    0  0.13613347838E+02  0.50643325823E+01  0.13648562388E+02  0.19931230754E+02  0.51100000000E-03 0.  1.
        -11    1    3    3    0    0  0.78345495257E+01  0.25993320823E+01  0.17244116108E+02  0.19117955805E+02  0.51100000000E-03 0. -1.
        -12    1    3    3    0    0  0.74492075260E+01  0.63743068178E+01 -0.59716438031E+01  0.11479678126E+02  0.00000000000E+00 0.  1.
</event>
<event>
 7    1  0.5479172E-013  0.5052885E+02  0.7816164E-02  0.1300439E+00
        -11   -1    0    0    0    0  0.00000000000E+00  0.00000000000E+00  0.45593999997E+02  0.45594000000E+02  0.51100000000E-03 0.  1.
         11   -1    0    0    0    0 -0.00000000000E+00 -0.00000000000E+00 -0.45593999997E+02  0.45594000000E+02  0.51100000000E-03 0. -1.
    9900012    2    1    2    0    0  0.25160061411E+02  0.31744256192E+02  0.35270096750E+01  0.50528852338E+02  0.29999977165E+02 0.  0.
         12    1    1    2    0    0 -0.25160061411E+02 -0.31744256192E+02 -0.35270096750E+01  0.40659147662E+02  0.00000000000E+00 0. -1.
         11    1    3    3    0    0  0.11579851592E+02  0.23798552380E+01 -0.19078641071E+01  0.11974832757E+02  0.51100000000E-03 0. -1.
        -11    1    3    3    0    0  0.16580712290E+02  0.23756923212E+02  0.10084466015E+02  0.30675851669E+02  0.51100000000E-03 0.  1.
        -12    1    3    3    0    0 -0.30005024710E+01  0.56074777417E+01 -0.46495922333E+01  0.78781679112E+01  0.00000000000E+00 0.  1.
</event>
<event>
 7    1  0.5479172E-013  0.5052883E+02  0.7816164E-02  0.1300439E+00
        -11   -1    0    0    0    0  0.00000000000E+00  0.00000000000E+00  0.45593999997E+02  0.45594000000E+02  0.51100000000E-03 0. -1.
         11   -1    0    0    0    0 -0.00000000000E+00 -0.00000000000E+00 -0.45593999997E+02  0.45594000000E+02  0.51100000000E-03 0.  1.
    9900012    2    1    2    0    0  0.13742338983E+02  0.37963758751E+02 -0.48030574929E+01  0.50528828580E+02  0.29999904953E+02 0.  0.
         12    1    1    2    0    0 -0.13742338983E+02 -0.37963758751E+02  0.48030574929E+01  0.40659171420E+02  0.00000000000E+00 0. -1.
         11    1    3    3    0    0 -0.29245272534E+01  0.16730420690E+02 -0.23243135755E+01  0.17142411440E+02  0.51100000000E-03 0. -1.
        -11    1    3    3    0    0  0.13348801804E+02  0.12894708735E+02 -0.10522129616E+02  0.21334929924E+02  0.51100000000E-03 0.  1.
         12    1    3    3    0    0  0.33180644325E+01  0.83386293260E+01  0.80433856985E+01  0.12051487216E+02  0.00000000000E+00 0. -1.
</event>
<event>
 7    1  0.5479172E-013  0.5052885E+02  0.7816164E-02  0.1300439E+00
        -11   -1    0    0    0    0  0.00000000000E+00  0.00000000000E+00  0.45593999997E+02  0.45594000000E+02  0.51100000000E-03 0.  1.
         11   -1    0    0    0    0 -0.00000000000E+00 -0.00000000000E+00 -0.45593999997E+02  0.45594000000E+02  0.51100000000E-03 0. -1.
    9900012    2    1    2    0    0 -0.80160353832E+01 -0.15342071493E+02  0.36790357981E+02  0.50528850705E+02  0.29999972204E+02 0.  0.
         12    1    1    2    0    0  0.80160353832E+01  0.15342071493E+02 -0.36790357981E+02  0.40659149295E+02  0.00000000000E+00 0. -1.
         11    1    3    3    0    0 -0.70691843780E+01  0.51777670628E+01  0.53084611076E+01  0.10245115867E+02  0.51100000000E-03 0. -1.
        -11    1    3    3    0    0 -0.12097882035E+01 -0.49339853667E+01  0.20739487948E+02  0.21352614821E+02  0.51100000000E-03 0.  1.
        -12    1    3    3    0    0  0.26293719837E+00 -0.15585853189E+02  0.10742408926E+02  0.18931120018E+02  0.00000000000E+00 0.  1.
</event>
<event>
 7    1  0.5479172E-013  0.5052888E+02  0.7816164E-02  0.1300439E+00
        -11   -1    0    0    0    0  0.00000000000E+00  0.00000000000E+00  0.45593999997E+02  0.45594000000E+02  0.51100000000E-03 0.  1.
         11   -1    0    0    0    0 -0.00000000000E+00 -0.00000000000E+00 -0.45593999997E+02  0.45594000000E+02  0.51100000000E-03 0. -1.
    9900012    2    1    2    0    0  0.49231478055E+01 -0.32787025045E+02  0.23535874857E+02  0.50528882930E+02  0.30000070155E+02 0.  0.
         12    1    1    2    0    0 -0.49231478055E+01  0.32787025045E+02 -0.23535874857E+02  0.40659117070E+02  0.00000000000E+00 0. -1.
         11    1    3    3    0    0 -0.49528626170E+01 -0.99654820207E+01  0.67462216418E+01  0.13013577014E+02  0.51100000000E-03 0. -1.
        -11    1    3    3    0    0  0.22949548087E+00 -0.98656243173E+01  0.18805295883E+02  0.21237287135E+02  0.51100000000E-03 0.  1.
         12    1    3    3    0    0  0.96465149416E+01 -0.12955918707E+02 -0.20156426681E+01  0.16278018781E+02  0.00000000000E+00 0. -1.
</event>
<event>
 7    1  0.5479172E-013  0.5052888E+02  0.7816164E-02  0.1300439E+00
        -11   -1    0    0    0    0  0.00000000000E+00  0.00000000000E+00  0.45593999997E+02  0.45594000000E+02  0.51100000000E-03 0.  1.
         11   -1    0    0    0    0 -0.00000000000E+00 -0.00000000000E+00 -0.45593999997E+02  0.45594000000E+02  0.51100000000E-03 0. -1.
    9900012    2    1    2    0    0  0.34250979190E+01  0.24831542644E+02  0.32012926980E+02  0.50528876796E+02  0.30000051509E+02 0.  0.
         12    1    1    2    0    0 -0.34250979190E+01 -0.24831542644E+02 -0.32012926980E+02  0.40659123204E+02  0.00000000000E+00 0. -1.
         11    1    3    3    0    0 -0.40215264782E+01 -0.11946593285E+01  0.39412047944E+01  0.57561255735E+01  0.51100000000E-03 0. -1.
        -11    1    3    3    0    0 -0.75567918510E+01  0.60484993075E+01  0.56802692525E+01  0.11222963334E+02  0.51100000000E-03 0.  1.
         12    1    3    3    0    0  0.15003416248E+02  0.19977702666E+02  0.22391452933E+02  0.33549787889E+02  0.00000000000E+00 0. -1.
</event>
<event>
 7    1  0.5479172E-013  0.5052886E+02  0.7816164E-02  0.1300439E+00
        -11   -1    0    0    0    0  0.00000000000E+00  0.00000000000E+00  0.45593999997E+02  0.45594000000E+02  0.51100000000E-03 0. -1.
         11   -1    0    0    0    0 -0.00000000000E+00 -0.00000000000E+00 -0.45593999997E+02  0.45594000000E+02  0.51100000000E-03 0.  1.
    9900012    2    1    2    0    0  0.80125570982E+01  0.30649159370E+02 -0.25487121843E+02  0.50528863005E+02  0.30000009589E+02 0.  0.
         12    1    1    2    0    0 -0.80125570982E+01 -0.30649159370E+02  0.25487121843E+02  0.40659136995E+02  0.00000000000E+00 0. -1.
         11    1    3    3    0    0  0.55725983843E+01  0.19612359943E+02 -0.23260930721E+02  0.30931689472E+02  0.51100000000E-03 0. -1.
        -11    1    3    3    0    0  0.84972055357E+00  0.12318032835E+02 -0.71489989423E+01  0.14267590689E+02  0.51100000000E-03 0.  1.
         12    1    3    3    0    0  0.15902381603E+01 -0.12812334077E+01  0.49228078204E+01  0.53295828437E+01  0.00000000000E+00 0. -1.
</event>
<event>
 7    1  0.5479172E-013  0.5052889E+02  0.7816164E-02  0.1300439E+00
        -11   -1    0    0    0    0  0.00000000000E+00  0.00000000000E+00  0.45593999997E+02  0.45594000000E+02  0.51100000000E-03 0.  1.
         11   -1    0    0    0    0 -0.00000000000E+00 -0.00000000000E+00 -0.45593999997E+02  0.45594000000E+02  0.51100000000E-03 0. -1.
    9900012    2    1    2    0    0 -0.40061513693E+02 -0.62293778175E+01  0.30713710697E+01  0.50528888504E+02  0.30000087097E+02 0.  0.
         12    1    1    2    0    0  0.40061513693E+02  0.62293778175E+01 -0.30713710697E+01  0.40659111496E+02  0.00000000000E+00 0. -1.
         11    1    3    3    0    0 -0.95756294826E+00 -0.20837251974E+00 -0.47958280539E+01  0.48949272610E+01  0.51100000000E-03 0. -1.
        -11    1    3    3    0    0 -0.21621478812E+01 -0.70030678556E+01 -0.15648054077E+01  0.74944285356E+01  0.51100000000E-03 0.  1.
        -12    1    3    3    0    0 -0.36941802864E+02  0.98206255775E+00  0.94320045312E+01  0.38139532708E+02  0.00000000000E+00 0.  1.
</event>
<event>
 7    1  0.5479172E-013  0.5052878E+02  0.7816164E-02  0.1300439E+00
        -11   -1    0    0    0    0  0.00000000000E+00  0.00000000000E+00  0.45593999997E+02  0.45594000000E+02  0.51100000000E-03 0.  1.
         11   -1    0    0    0    0 -0.00000000000E+00 -0.00000000000E+00 -0.45593999997E+02  0.45594000000E+02  0.51100000000E-03 0. -1.
    9900012    2    1    2    0    0 -0.22793523522E+01  0.29248461533E+02  0.28151448067E+02  0.50528782380E+02  0.29999764522E+02 0.  0.
         12    1    1    2    0    0  0.22793523522E+01 -0.29248461533E+02 -0.28151448067E+02  0.40659217620E+02  0.00000000000E+00 0. -1.
         11    1    3    3    0    0  0.31841259525E+01  0.16174449712E+02  0.27419167499E+02  0.31993159084E+02  0.51100000000E-03 0. -1.
        -11    1    3    3    0    0  0.17805613595E-01  0.89197714134E+01  0.52089444759E+01  0.10329363094E+02  0.51100000000E-03 0.  1.
         12    1    3    3    0    0 -0.54812839183E+01  0.41542404074E+01 -0.44766639085E+01  0.82062602022E+01  0.00000000000E+00 0. -1.
</event>
<event>
 7    1  0.5479172E-013  0.5052886E+02  0.7816164E-02  0.1300439E+00
        -11   -1    0    0    0    0  0.00000000000E+00  0.00000000000E+00  0.45593999997E+02  0.45594000000E+02  0.51100000000E-03 0.  1.
         11   -1    0    0    0    0 -0.00000000000E+00 -0.00000000000E+00 -0.45593999997E+02  0.45594000000E+02  0.51100000000E-03 0. -1.
    9900012    2    1    2    0    0 -0.33028818697E+02  0.21037126869E+02  0.10940855255E+02  0.50528857300E+02  0.29999992248E+02 0.  0.
         12    1    1    2    0    0  0.33028818697E+02 -0.21037126869E+02 -0.10940855255E+02  0.40659142700E+02  0.00000000000E+00 0. -1.
         11    1    3    3    0    0 -0.23325948854E+02  0.50935072197E+01 -0.42021199655E+01  0.24242555934E+02  0.51100000000E-03 0. -1.
        -11    1    3    3    0    0 -0.13112816317E+01 -0.49276019343E+00  0.50733789225E+01  0.52632163245E+01  0.51100000000E-03 0.  1.
        -12    1    3    3    0    0 -0.83915882108E+01  0.16436379843E+02  0.10069596298E+02  0.21023085041E+02  0.00000000000E+00 0.  1.
</event>
<event>
 7    1  0.5479172E-013  0.5052886E+02  0.7816164E-02  0.1300439E+00
        -11   -1    0    0    0    0  0.00000000000E+00  0.00000000000E+00  0.45593999997E+02  0.45594000000E+02  0.51100000000E-03 0. -1.
         11   -1    0    0    0    0 -0.00000000000E+00 -0.00000000000E+00 -0.45593999997E+02  0.45594000000E+02  0.51100000000E-03 0.  1.
    9900012    2    1    2    0    0  0.39325542109E+02  0.67744961600E+01  0.77957486733E+01  0.50528858866E+02  0.29999997008E+02 0.  0.
         12    1    1    2    0    0 -0.39325542109E+02 -0.67744961600E+01 -0.77957486733E+01  0.40659141134E+02  0.00000000000E+00 0. -1.
         11    1    3    3    0    0  0.12221536587E+02 -0.20782299255E+01  0.97292908013E+01  0.15758937017E+02  0.51100000000E-03 0. -1.
        -11    1    3    3    0    0  0.16080740009E+02 -0.42907145461E+01  0.30196581630E+01  0.16915045558E+02  0.51100000000E-03 0.  1.
         12    1    3    3    0    0  0.11023265514E+02  0.13143440632E+02 -0.49532002909E+01  0.17854876290E+02  0.00000000000E+00 0. -1.
</event>
<event>
 7    1  0.5479172E-013  0.5052886E+02  0.7816164E-02  0.1300439E+00
        -11   -1    0    0    0    0  0.00000000000E+00  0.00000000000E+00  0.45593999997E+02  0.45594000000E+02  0.51100000000E-03 0. -1.
         11   -1    0    0    0    0 -0.00000000000E+00 -0.00000000000E+00 -0.45593999997E+02  0.45594000000E+02  0.51100000000E-03 0.  1.
    9900012    2    1    2    0    0  0.29509983197E+01 -0.33059532574E+02 -0.23484561384E+02  0.50528859472E+02  0.29999998851E+02 0.  0.
         12    1    1    2    0    0 -0.29509983197E+01  0.33059532574E+02  0.23484561384E+02  0.40659140528E+02  0.00000000000E+00 0. -1.
         11    1    3    3    0    0  0.23270206418E+01 -0.10585873591E+02  0.71846579553E+00  0.10862409407E+02  0.51100000000E-03 0. -1.
        -11    1    3    3    0    0  0.66403790712E+01 -0.20479066164E+02 -0.92619890985E+01  0.23436536167E+02  0.51100000000E-03 0.  1.
        -12    1    3    3    0    0 -0.60164013933E+01 -0.19945928184E+01 -0.14941038081E+02  0.16229913899E+02  0.00000000000E+00 0.  1.
</event>
<event>
 7    1  0.5479172E-013  0.5052886E+02  0.7816164E-02  0.1300439E+00
        -11   -1    0    0    0    0  0.00000000000E+00  0.00000000000E+00  0.45593999997E+02  0.45594000000E+02  0.51100000000E-03 0. -1.
         11   -1    0    0    0    0 -0.00000000000E+00 -0.00000000000E+00 -0.45593999997E+02  0.45594000000E+02  0.51100000000E-03 0.  1.
    9900012    2    1    2    0    0  0.61965215294E+01  0.11741519683E+02 -0.38430530549E+02  0.50528857833E+02  0.29999993869E+02 0.  0.
         12    1    1    2    0    0 -0.61965215294E+01 -0.11741519683E+02  0.38430530549E+02  0.40659142167E+02  0.00000000000E+00 0. -1.
         11    1    3    3    0    0  0.40233812112E+00  0.10909404165E+01 -0.15375201488E+01  0.19276917350E+01  0.51100000000E-03 0. -1.
        -11    1    3    3    0    0 -0.62171836226E+01  0.15937918157E+02 -0.13556806935E+02  0.21827909242E+02  0.51100000000E-03 0.  1.
        -12    1    3    3    0    0  0.12011367031E+02 -0.52873388903E+01 -0.23336203465E+02  0.26773256855E+02  0.00000000000E+00 0.  1.
</event>
<event>
 7    1  0.5479172E-013  0.5052883E+02  0.7816164E-02  0.1300439E+00
        -11   -1    0    0    0    0  0.00000000000E+00  0.00000000000E+00  0.45593999997E+02  0.45594000000E+02  0.51100000000E-03 0. -1.
         11   -1    0    0    0    0 -0.00000000000E+00 -0.00000000000E+00 -0.45593999997E+02  0.45594000000E+02  0.51100000000E-03 0.  1.
    9900012    2    1    2    0    0 -0.90181641890E+01  0.16987589404E+02 -0.35822659137E+02  0.50528826537E+02  0.29999898741E+02 0.  0.
         12    1    1    2    0    0  0.90181641890E+01 -0.16987589404E+02  0.35822659137E+02  0.40659173463E+02  0.00000000000E+00 0. -1.
         11    1    3    3    0    0  0.54662299082E+01  0.19124860090E-01 -0.25433752427E+00  0.54721771725E+01  0.51100000000E-03 0. -1.
        -11    1    3    3    0    0 -0.46184622874E+00 -0.29824947674E+01 -0.61077540669E+01  0.68127261048E+01  0.51100000000E-03 0.  1.
         12    1    3    3    0    0 -0.14022547868E+02  0.19950959311E+02 -0.29460567546E+02  0.38243923259E+02  0.00000000000E+00 0. -1.
</event>
<event>
 7    1  0.5479172E-013  0.5052888E+02  0.7816164E-02  0.1300439E+00
        -11   -1    0    0    0    0  0.00000000000E+00  0.00000000000E+00  0.45593999997E+02  0.45594000000E+02  0.51100000000E-03 0.  1.
         11   -1    0    0    0    0 -0.00000000000E+00 -0.00000000000E+00 -0.45593999997E+02  0.45594000000E+02  0.51100000000E-03 0. -1.
    9900012    2    1    2    0    0  0.12198397120E+02 -0.37009867155E+02 -0.11603155046E+02  0.50528875979E+02  0.30000049026E+02 0.  0.
         12    1    1    2    0    0 -0.12198397120E+02  0.37009867155E+02  0.11603155046E+02  0.40659124021E+02  0.00000000000E+00 0. -1.
         11    1    3    3    0    0  0.10421222716E+02 -0.12275129274E+02 -0.43947730188E+01  0.16691156692E+02  0.51100000000E-03 0. -1.
        -11    1    3    3    0    0  0.96100468831E+01 -0.99848306087E+01  0.31149253996E+01  0.14203964372E+02  0.51100000000E-03 0.  1.
        -12    1    3    3    0    0 -0.78328724789E+01 -0.14749907273E+02 -0.10323307427E+02  0.19633754915E+02  0.00000000000E+00 0.  1.
</event>
<event>
 7    1  0.5479172E-013  0.5052886E+02  0.7816164E-02  0.1300439E+00
        -11   -1    0    0    0    0  0.00000000000E+00  0.00000000000E+00  0.45593999997E+02  0.45594000000E+02  0.51100000000E-03 0.  1.
         11   -1    0    0    0    0 -0.00000000000E+00 -0.00000000000E+00 -0.45593999997E+02  0.45594000000E+02  0.51100000000E-03 0. -1.
    9900012    2    1    2    0    0 -0.31471462374E+02  0.55737039720E+01  0.25132579404E+02  0.50528859976E+02  0.30000000384E+02 0.  0.
         12    1    1    2    0    0  0.31471462374E+02 -0.55737039720E+01 -0.25132579404E+02  0.40659140024E+02  0.00000000000E+00 0. -1.
         11    1    3    3    0    0 -0.14310971637E+01  0.79259906930E+01  0.89363497914E+01  0.12030283264E+02  0.51100000000E-03 0. -1.
        -11    1    3    3    0    0 -0.98504299920E+01  0.27835706324E+01  0.14290979147E+02  0.17578717864E+02  0.51100000000E-03 0.  1.
        -12    1    3    3    0    0 -0.20189935219E+02 -0.51358573535E+01  0.19052504657E+01  0.20919858848E+02  0.00000000000E+00 0.  1.
</event>
<event>
 7    1  0.5479172E-013  0.5052885E+02  0.7816164E-02  0.1300439E+00
        -11   -1    0    0    0    0  0.00000000000E+00  0.00000000000E+00  0.45593999997E+02  0.45594000000E+02  0.51100000000E-03 0.  1.
         11   -1    0    0    0    0 -0.00000000000E+00 -0.00000000000E+00 -0.45593999997E+02  0.45594000000E+02  0.51100000000E-03 0. -1.
    9900012    2    1    2    0    0  0.64809952191E-01 -0.56294705167E+01  0.40267495429E+02  0.50528851869E+02  0.29999975742E+02 0.  0.
         12    1    1    2    0    0 -0.64809952191E-01  0.56294705167E+01 -0.40267495429E+02  0.40659148131E+02  0.00000000000E+00 0. -1.
         11    1    3    3    0    0 -0.43443198613E+00 -0.44047053780E+00  0.19810746245E+02  0.19820403944E+02  0.51100000000E-03 0. -1.
        -11    1    3    3    0    0  0.17058773967E+01 -0.10837774548E+02  0.22125293297E+02  0.24696072129E+02  0.51100000000E-03 0.  1.
         12    1    3    3    0    0 -0.12066354584E+01  0.56487745692E+01 -0.16685441136E+01  0.60123757968E+01  0.00000000000E+00 0. -1.
</event>
<event>
 7    1  0.5479172E-013  0.5052885E+02  0.7816164E-02  0.1300439E+00
        -11   -1    0    0    0    0  0.00000000000E+00  0.00000000000E+00  0.45593999997E+02  0.45594000000E+02  0.51100000000E-03 0.  1.
         11   -1    0    0    0    0 -0.00000000000E+00 -0.00000000000E+00 -0.45593999997E+02  0.45594000000E+02  0.51100000000E-03 0. -1.
    9900012    2    1    2    0    0 -0.30555176842E+02 -0.69977697981E+01  0.25895540976E+02  0.50528847815E+02  0.29999963418E+02 0.  0.
         12    1    1    2    0    0  0.30555176842E+02  0.69977697981E+01 -0.25895540976E+02  0.40659152185E+02  0.00000000000E+00 0. -1.
         11    1    3    3    0    0 -0.31025418587E+01 -0.49015354019E+01  0.20593319300E+02  0.21394756725E+02  0.51100000000E-03 0. -1.
        -11    1    3    3    0    0 -0.82108701157E+00 -0.27510189212E+00  0.20719258693E+01  0.22456050411E+01  0.51100000000E-03 0.  1.
        -12    1    3    3    0    0 -0.26631547972E+02 -0.18211325040E+01  0.32302958065E+01  0.26888486048E+02  0.00000000000E+00 0.  1.
</event>
<event>
 7    1  0.5479172E-013  0.5052885E+02  0.7816164E-02  0.1300439E+00
        -11   -1    0    0    0    0  0.00000000000E+00  0.00000000000E+00  0.45593999997E+02  0.45594000000E+02  0.51100000000E-03 0. -1.
         11   -1    0    0    0    0 -0.00000000000E+00 -0.00000000000E+00 -0.45593999997E+02  0.45594000000E+02  0.51100000000E-03 0.  1.
    9900012    2    1    2    0    0  0.30344526097E+02  0.34040703873E+01 -0.26847498367E+02  0.50528854315E+02  0.29999983177E+02 0.  0.
         12    1    1    2    0    0 -0.30344526097E+02 -0.34040703873E+01  0.26847498367E+02  0.40659145685E+02  0.00000000000E+00 0. -1.
         11    1    3    3    0    0  0.68455442835E+01 -0.45019186624E+01 -0.70452012958E+01  0.10805721158E+02  0.51100000000E-03 0. -1.
        -11    1    3    3    0    0  0.15483497554E+02 -0.42724435658E+01 -0.19334743199E+02  0.25136124708E+02  0.51100000000E-03 0.  1.
         12    1    3    3    0    0  0.80154842599E+01  0.12178432615E+02 -0.46755387244E+00  0.14587008450E+02  0.00000000000E+00 0. -1.
</event>
<event>
 7    1  0.5479172E-013  0.5052886E+02  0.7816164E-02  0.1300439E+00
        -11   -1    0    0    0    0  0.00000000000E+00  0.00000000000E+00  0.45593999997E+02  0.45594000000E+02  0.51100000000E-03 0.  1.
         11   -1    0    0    0    0 -0.00000000000E+00 -0.00000000000E+00 -0.45593999997E+02  0.45594000000E+02  0.51100000000E-03 0. -1.
    9900012    2    1    2    0    0 -0.17349417947E+02  0.35692703023E+02 -0.88427413133E+01  0.50528862945E+02  0.30000009406E+02 0.  0.
         12    1    1    2    0    0  0.17349417947E+02 -0.35692703023E+02  0.88427413133E+01  0.40659137055E+02  0.00000000000E+00 0. -1.
         11    1    3    3    0    0 -0.29635244963E+01  0.63453194068E+01 -0.28144657794E+01  0.75476336490E+01  0.51100000000E-03 0. -1.
        -11    1    3    3    0    0 -0.21687058530E+02  0.17151414062E+02 -0.76137033116E+01  0.28678702732E+02  0.51100000000E-03 0.  1.
         12    1    3    3    0    0  0.73011650792E+01  0.12195969554E+02  0.15854277777E+01  0.14302526564E+02  0.00000000000E+00 0. -1.
</event>
<event>
 7    1  0.5479172E-013  0.5052887E+02  0.7816164E-02  0.1300439E+00
        -11   -1    0    0    0    0  0.00000000000E+00  0.00000000000E+00  0.45593999997E+02  0.45594000000E+02  0.51100000000E-03 0.  1.
         11   -1    0    0    0    0 -0.00000000000E+00 -0.00000000000E+00 -0.45593999997E+02  0.45594000000E+02  0.51100000000E-03 0. -1.
    9900012    2    1    2    0    0 -0.49077496333E+01  0.24498361141E+02  0.32076613749E+02  0.50528869972E+02  0.30000030766E+02 0.  0.
         12    1    1    2    0    0  0.49077496333E+01 -0.24498361141E+02 -0.32076613749E+02  0.40659130028E+02  0.00000000000E+00 0. -1.
         11    1    3    3    0    0  0.30722523921E+01  0.39542211885E+01  0.11852447519E+02  0.12866822157E+02  0.51100000000E-03 0. -1.
        -11    1    3    3    0    0  0.19020029969E+01  0.61980198204E+01  0.19139840181E+02  0.20208081243E+02  0.51100000000E-03 0.  1.
         12    1    3    3    0    0 -0.98820050223E+01  0.14346120132E+02  0.10843260483E+01  0.17453966571E+02  0.00000000000E+00 0. -1.
</event>
<event>
 7    1  0.5479172E-013  0.5052887E+02  0.7816164E-02  0.1300439E+00
        -11   -1    0    0    0    0  0.00000000000E+00  0.00000000000E+00  0.45593999997E+02  0.45594000000E+02  0.51100000000E-03 0.  1.
         11   -1    0    0    0    0 -0.00000000000E+00 -0.00000000000E+00 -0.45593999997E+02  0.45594000000E+02  0.51100000000E-03 0. -1.
    9900012    2    1    2    0    0  0.16669160034E+02  0.24532599295E+02  0.27811073868E+02  0.50528866289E+02  0.30000019573E+02 0.  0.
         12    1    1    2    0    0 -0.16669160034E+02 -0.24532599295E+02 -0.27811073868E+02  0.40659133711E+02  0.00000000000E+00 0. -1.
         11    1    3    3    0    0  0.85736535788E+01 -0.14208380361E-01  0.58058634680E+01  0.10354505707E+02  0.51100000000E-03 0. -1.
        -11    1    3    3    0    0  0.32445723914E+01 -0.36978317123E+01  0.25993375473E+01  0.55639702840E+01  0.51100000000E-03 0.  1.
        -12    1    3    3    0    0  0.48509340639E+01  0.28244639387E+02  0.19405872853E+02  0.34610390298E+02  0.00000000000E+00 0.  1.
</event>
<event>
 7    1  0.5479172E-013  0.5052885E+02  0.7816164E-02  0.1300439E+00
        -11   -1    0    0    0    0  0.00000000000E+00  0.00000000000E+00  0.45593999997E+02  0.45594000000E+02  0.51100000000E-03 0.  1.
         11   -1    0    0    0    0 -0.00000000000E+00 -0.00000000000E+00 -0.45593999997E+02  0.45594000000E+02  0.51100000000E-03 0. -1.
    9900012    2    1    2    0    0 -0.18657635261E+02 -0.26159095052E+02  0.24915078378E+02  0.50528846811E+02  0.29999960367E+02 0.  0.
         12    1    1    2    0    0  0.18657635261E+02  0.26159095052E+02 -0.24915078378E+02  0.40659153189E+02  0.00000000000E+00 0. -1.
         11    1    3    3    0    0 -0.16184274155E+02 -0.87170027333E+01  0.98884904756E+01  0.20873406783E+02  0.51100000000E-03 0. -1.
        -11    1    3    3    0    0 -0.64411532876E+01 -0.57956908343E+01 -0.17609361068E+01  0.88419106620E+01  0.51100000000E-03 0.  1.
         12    1    3    3    0    0  0.39677921816E+01 -0.11646401484E+02  0.16787524009E+02  0.20813529366E+02  0.00000000000E+00 0. -1.
</event>
<event>
 7    1  0.5479172E-013  0.5052886E+02  0.7816164E-02  0.1300439E+00
        -11   -1    0    0    0    0  0.00000000000E+00  0.00000000000E+00  0.45593999997E+02  0.45594000000E+02  0.51100000000E-03 0.  1.
         11   -1    0    0    0    0 -0.00000000000E+00 -0.00000000000E+00 -0.45593999997E+02  0.45594000000E+02  0.51100000000E-03 0. -1.
    9900012    2    1    2    0    0 -0.66497505814E+01 -0.38890692108E+02  0.98214245633E+01  0.50528862086E+02  0.30000006797E+02 0.  0.
         12    1    1    2    0    0  0.66497505814E+01  0.38890692108E+02 -0.98214245633E+01  0.40659137914E+02  0.00000000000E+00 0. -1.
         11    1    3    3    0    0 -0.64021451172E+01 -0.18706966827E+02  0.96400564392E+01  0.21997017034E+02  0.51100000000E-03 0.  1.
        -11    1    3    3    0    0 -0.78707606690E+01 -0.90241036589E+01 -0.63142380417E+01  0.13537094321E+02  0.51100000000E-03 0. -1.
        -12    1    3    3    0    0  0.76231552047E+01 -0.11159621622E+02  0.64956061658E+01  0.14994750731E+02  0.00000000000E+00 0.  1.
</event>
<event>
 7    1  0.5479172E-013  0.5052886E+02  0.7816164E-02  0.1300439E+00
        -11   -1    0    0    0    0  0.00000000000E+00  0.00000000000E+00  0.45593999997E+02  0.45594000000E+02  0.51100000000E-03 0.  1.
         11   -1    0    0    0    0 -0.00000000000E+00 -0.00000000000E+00 -0.45593999997E+02  0.45594000000E+02  0.51100000000E-03 0. -1.
    9900012    2    1    2    0    0 -0.18187632087E+02 -0.14057539624E+02  0.33537461865E+02  0.50528859213E+02  0.29999998062E+02 0.  0.
         12    1    1    2    0    0  0.18187632087E+02  0.14057539624E+02 -0.33537461865E+02  0.40659140787E+02  0.00000000000E+00 0. -1.
         11    1    3    3    0    0 -0.57995304724E+01 -0.63136556904E+01 -0.36283805757E+01  0.93092399120E+01  0.51100000000E-03 0. -1.
        -11    1    3    3    0    0 -0.24367169063E+01 -0.34939183858E+01  0.25790652157E+01  0.49796217342E+01  0.51100000000E-03 0.  1.
        -12    1    3    3    0    0 -0.99513847081E+01 -0.42499655478E+01  0.34586777225E+02  0.36239997566E+02  0.00000000000E+00 0.  1.
</event>
<event>
 7    1  0.5479172E-013  0.5052887E+02  0.7816164E-02  0.1300439E+00
        -11   -1    0    0    0    0  0.00000000000E+00  0.00000000000E+00  0.45593999997E+02  0.45594000000E+02  0.51100000000E-03 0.  1.
         11   -1    0    0    0    0 -0.00000000000E+00 -0.00000000000E+00 -0.45593999997E+02  0.45594000000E+02  0.51100000000E-03 0. -1.
    9900012    2    1    2    0    0 -0.99014275478E+01  0.77929001701E+01  0.38657437881E+02  0.50528867397E+02  0.30000022939E+02 0.  0.
         12    1    1    2    0    0  0.99014275478E+01 -0.77929001701E+01 -0.38657437881E+02  0.40659132603E+02  0.00000000000E+00 0. -1.
         11    1    3    3    0    0 -0.36609591853E+01 -0.41364630075E+01  0.49537767168E+01  0.74197609389E+01  0.51100000000E-03 0. -1.
        -11    1    3    3    0    0 -0.37293414615E+01  0.23361186419E+01 -0.28442560040E+01  0.52397738999E+01  0.51100000000E-03 0.  1.
        -12    1    3    3    0    0 -0.25111269011E+01  0.95932445358E+01  0.36547917168E+02  0.37869332558E+02  0.00000000000E+00 0.  1.
</event>
<event>
 7    1  0.5479172E-013  0.5052886E+02  0.7816164E-02  0.1300439E+00
        -11   -1    0    0    0    0  0.00000000000E+00  0.00000000000E+00  0.45593999997E+02  0.45594000000E+02  0.51100000000E-03 0.  1.
         11   -1    0    0    0    0 -0.00000000000E+00 -0.00000000000E+00 -0.45593999997E+02  0.45594000000E+02  0.51100000000E-03 0. -1.
    9900012    2    1    2    0    0  0.71855175400E+01  0.75406613342E+01  0.39302321524E+02  0.50528859418E+02  0.29999998687E+02 0.  0.
         12    1    1    2    0    0 -0.71855175400E+01 -0.75406613342E+01 -0.39302321524E+02  0.40659140582E+02  0.00000000000E+00 0. -1.
         11    1    3    3    0    0  0.42339452103E+01  0.21263923845E+01  0.31973781251E+01  0.57158607184E+01  0.51100000000E-03 0. -1.
        -11    1    3    3    0    0 -0.33121264953E+01  0.13178174092E+02  0.10012129028E+02  0.16878305076E+02  0.51100000000E-03 0.  1.
        -12    1    3    3    0    0  0.62636988250E+01 -0.77639051422E+01  0.26092814371E+02  0.27934693623E+02  0.00000000000E+00 0.  1.
</event>
<event>
 7    1  0.5479172E-013  0.5052879E+02  0.7816164E-02  0.1300439E+00
        -11   -1    0    0    0    0  0.00000000000E+00  0.00000000000E+00  0.45593999997E+02  0.45594000000E+02  0.51100000000E-03 0.  1.
         11   -1    0    0    0    0 -0.00000000000E+00 -0.00000000000E+00 -0.45593999997E+02  0.45594000000E+02  0.51100000000E-03 0. -1.
    9900012    2    1    2    0    0  0.36303503733E+02  0.27881997421E+00  0.18307074308E+02  0.50528793250E+02  0.29999797561E+02 0.  0.
         12    1    1    2    0    0 -0.36303503733E+02 -0.27881997421E+00 -0.18307074308E+02  0.40659206750E+02  0.00000000000E+00 0. -1.
         11    1    3    3    0    0  0.12091795832E+02 -0.14751961748E+01  0.35584214604E+01  0.12690551357E+02  0.51100000000E-03 0. -1.
        -11    1    3    3    0    0  0.28977936915E+02  0.21292440621E+01  0.15604710475E+02  0.32981229471E+02  0.51100000000E-03 0.  1.
         12    1    3    3    0    0 -0.47662290144E+01 -0.37522791308E+00 -0.85605762741E+00  0.48570124219E+01  0.00000000000E+00 0. -1.
</event>
<event>
 7    1  0.5479172E-013  0.5052887E+02  0.7816164E-02  0.1300439E+00
        -11   -1    0    0    0    0  0.00000000000E+00  0.00000000000E+00  0.45593999997E+02  0.45594000000E+02  0.51100000000E-03 0.  1.
         11   -1    0    0    0    0 -0.00000000000E+00 -0.00000000000E+00 -0.45593999997E+02  0.45594000000E+02  0.51100000000E-03 0. -1.
    9900012    2    1    2    0    0 -0.21820621708E+02  0.77616296695E+01  0.33418297597E+02  0.50528867679E+02  0.30000023796E+02 0.  0.
         12    1    1    2    0    0  0.21820621708E+02 -0.77616296695E+01 -0.33418297597E+02  0.40659132321E+02  0.00000000000E+00 0. -1.
         11    1    3    3    0    0  0.11654297099E+01 -0.91347411390E+00  0.20541179475E+00  0.14949433541E+01  0.51100000000E-03 0. -1.
        -11    1    3    3    0    0 -0.99452523171E+00 -0.81004163102E+01  0.10126145721E+02  0.13005562359E+02  0.51100000000E-03 0.  1.
        -12    1    3    3    0    0 -0.21991526186E+02  0.16775520094E+02  0.23086740081E+02  0.36028361966E+02  0.00000000000E+00 0.  1.
</event>
<event>
 7    1  0.5479172E-013  0.5052886E+02  0.7816164E-02  0.1300439E+00
        -11   -1    0    0    0    0  0.00000000000E+00  0.00000000000E+00  0.45593999997E+02  0.45594000000E+02  0.51100000000E-03 0.  1.
         11   -1    0    0    0    0 -0.00000000000E+00 -0.00000000000E+00 -0.45593999997E+02  0.45594000000E+02  0.51100000000E-03 0. -1.
    9900012    2    1    2    0    0 -0.17927634852E+02 -0.12319472163E+02  0.34351071821E+02  0.50528860548E+02  0.30000002121E+02 0.  0.
         12    1    1    2    0    0  0.17927634852E+02  0.12319472163E+02 -0.34351071821E+02  0.40659139452E+02  0.00000000000E+00 0. -1.
         11    1    3    3    0    0 -0.18929557171E+00  0.48512641148E+00  0.51280560454E+01  0.51544291163E+01  0.51100000000E-03 0. -1.
        -11    1    3    3    0    0 -0.76597081209E+01 -0.10536758104E+02  0.32106820914E+02  0.34648843405E+02  0.51100000000E-03 0.  1.
         12    1    3    3    0    0 -0.10078631159E+02 -0.22678404701E+01 -0.28838051383E+01  0.10725588027E+02  0.00000000000E+00 0. -1.
</event>
<event>
 7    1  0.5479172E-013  0.5052886E+02  0.7816164E-02  0.1300439E+00
        -11   -1    0    0    0    0  0.00000000000E+00  0.00000000000E+00  0.45593999997E+02  0.45594000000E+02  0.51100000000E-03 0.  1.
         11   -1    0    0    0    0 -0.00000000000E+00 -0.00000000000E+00 -0.45593999997E+02  0.45594000000E+02  0.51100000000E-03 0. -1.
    9900012    2    1    2    0    0 -0.92488711083E+01  0.20983418254E+02  0.33575594916E+02  0.50528855489E+02  0.29999986743E+02 0.  0.
         12    1    1    2    0    0  0.92488711083E+01 -0.20983418254E+02 -0.33575594916E+02  0.40659144511E+02  0.00000000000E+00 0. -1.
         11    1    3    3    0    0 -0.33649951860E+01  0.14803123584E+02  0.12957499039E+01  0.15235964968E+02  0.51100000000E-03 0.  1.
        -11    1    3    3    0    0 -0.72033239240E+01 -0.26581503512E+00  0.12288780738E+02  0.14246847563E+02  0.51100000000E-03 0. -1.
        -12    1    3    3    0    0  0.13194480016E+01  0.64461097057E+01  0.19991064274E+02  0.21046042958E+02  0.00000000000E+00 0.  1.
</event>
<event>
 7    1  0.5479172E-013  0.5052887E+02  0.7816164E-02  0.1300439E+00
        -11   -1    0    0    0    0  0.00000000000E+00  0.00000000000E+00  0.45593999997E+02  0.45594000000E+02  0.51100000000E-03 0.  1.
         11   -1    0    0    0    0 -0.00000000000E+00 -0.00000000000E+00 -0.45593999997E+02  0.45594000000E+02  0.51100000000E-03 0. -1.
    9900012    2    1    2    0    0  0.95680046001E+01 -0.21036121066E+02  0.33452943478E+02  0.50528873978E+02  0.30000042942E+02 0.  0.
         12    1    1    2    0    0 -0.95680046001E+01  0.21036121066E+02 -0.33452943478E+02  0.40659126022E+02  0.00000000000E+00 0. -1.
         11    1    3    3    0    0 -0.21597480077E+01  0.94814607226E+00  0.10629086716E+02  0.10887652507E+02  0.51100000000E-03 0. -1.
        -11    1    3    3    0    0 -0.14694985490E+01 -0.11646030207E+02  0.19177523299E+02  0.22484813669E+02  0.51100000000E-03 0.  1.
         12    1    3    3    0    0  0.13197251157E+02 -0.10338236931E+02  0.36463334630E+01  0.17156407802E+02  0.00000000000E+00 0. -1.
</event>
<event>
 7    1  0.5479172E-013  0.5052886E+02  0.7816164E-02  0.1300439E+00
        -11   -1    0    0    0    0  0.00000000000E+00  0.00000000000E+00  0.45593999997E+02  0.45594000000E+02  0.51100000000E-03 0.  1.
         11   -1    0    0    0    0 -0.00000000000E+00 -0.00000000000E+00 -0.45593999997E+02  0.45594000000E+02  0.51100000000E-03 0. -1.
    9900012    2    1    2    0    0 -0.96896559815E+01 -0.20871101995E+02  0.33521237882E+02  0.50528859322E+02  0.29999998395E+02 0.  0.
         12    1    1    2    0    0  0.96896559815E+01  0.20871101995E+02 -0.33521237882E+02  0.40659140678E+02  0.00000000000E+00 0. -1.
         11    1    3    3    0    0 -0.10431531649E+02 -0.34264888489E+01  0.86553623195E+01  0.13981165027E+02  0.51100000000E-03 0. -1.
        -11    1    3    3    0    0 -0.41829574353E+01 -0.15228138495E+02  0.59498917147E+01  0.16875856914E+02  0.51100000000E-03 0.  1.
         12    1    3    3    0    0  0.49248331030E+01 -0.22164746516E+01  0.18915983848E+02  0.19671837380E+02  0.00000000000E+00 0. -1.
</event>
<event>
 7    1  0.5479172E-013  0.5052890E+02  0.7816164E-02  0.1300439E+00
        -11   -1    0    0    0    0  0.00000000000E+00  0.00000000000E+00  0.45593999997E+02  0.45594000000E+02  0.51100000000E-03 0.  1.
         11   -1    0    0    0    0 -0.00000000000E+00 -0.00000000000E+00 -0.45593999997E+02  0.45594000000E+02  0.51100000000E-03 0. -1.
    9900012    2    1    2    0    0 -0.36482240540E+02  0.17612069356E+02 -0.34674816012E+01  0.50528901504E+02  0.30000126612E+02 0.  0.
         12    1    1    2    0    0  0.36482240540E+02 -0.17612069356E+02  0.34674816012E+01  0.40659098496E+02  0.00000000000E+00 0. -1.
         11    1    3    3    0    0 -0.91211307817E+01 -0.57703473926E+01  0.16712968462E+01  0.10921775001E+02  0.51100000000E-03 0. -1.
        -11    1    3    3    0    0 -0.46820186236E+01  0.10284468000E+00 -0.53444957184E+01  0.71060192911E+01  0.51100000000E-03 0.  1.
        -12    1    3    3    0    0 -0.22679091135E+02  0.23279572068E+02  0.20571727095E+00  0.32501107212E+02  0.00000000000E+00 0.  1.
</event>
<event>
 7    1  0.5479172E-013  0.5052886E+02  0.7816164E-02  0.1300439E+00
        -11   -1    0    0    0    0  0.00000000000E+00  0.00000000000E+00  0.45593999997E+02  0.45594000000E+02  0.51100000000E-03 0.  1.
         11   -1    0    0    0    0 -0.00000000000E+00 -0.00000000000E+00 -0.45593999997E+02  0.45594000000E+02  0.51100000000E-03 0. -1.
    9900012    2    1    2    0    0  0.97175472345E+01  0.50247522003E+01  0.39159757110E+02  0.50528862825E+02  0.30000009043E+02 0.  0.
         12    1    1    2    0    0 -0.97175472345E+01 -0.50247522003E+01 -0.39159757110E+02  0.40659137175E+02  0.00000000000E+00 0. -1.
         11    1    3    3    0    0  0.11744171728E+01  0.33756923724E+01  0.54925151386E+01  0.65530357467E+01  0.51100000000E-03 0. -1.
        -11    1    3    3    0    0  0.82327322415E+01  0.59815073904E+00  0.38318369204E+02  0.39197360666E+02  0.51100000000E-03 0.  1.
         12    1    3    3    0    0  0.31039782029E+00  0.10509090888E+01 -0.46511272329E+01  0.47784664126E+01  0.00000000000E+00 0. -1.
</event>
<event>
 7    1  0.5479172E-013  0.5052887E+02  0.7816164E-02  0.1300439E+00
        -11   -1    0    0    0    0  0.00000000000E+00  0.00000000000E+00  0.45593999997E+02  0.45594000000E+02  0.51100000000E-03 0.  1.
         11   -1    0    0    0    0 -0.00000000000E+00 -0.00000000000E+00 -0.45593999997E+02  0.45594000000E+02  0.51100000000E-03 0. -1.
    9900012    2    1    2    0    0  0.22995061699E+02 -0.32023818486E+02  0.99432074473E+01  0.50528865881E+02  0.30000018331E+02 0.  0.
         12    1    1    2    0    0 -0.22995061699E+02  0.32023818486E+02 -0.99432074473E+01  0.40659134119E+02  0.00000000000E+00 0. -1.
         11    1    3    3    0    0  0.93701194141E+01 -0.12211218447E+02  0.76150593083E+01  0.17172714471E+02  0.51100000000E-03 0. -1.
        -11    1    3    3    0    0  0.48591183487E+01 -0.15021767212E+02  0.11706070518E+02  0.19654429743E+02  0.51100000000E-03 0.  1.
         12    1    3    3    0    0  0.87658239364E+01 -0.47908328280E+01 -0.93779223794E+01  0.13701721666E+02  0.00000000000E+00 0. -1.
</event>
<event>
 7    1  0.5479172E-013  0.5052887E+02  0.7816164E-02  0.1300439E+00
        -11   -1    0    0    0    0  0.00000000000E+00  0.00000000000E+00  0.45593999997E+02  0.45594000000E+02  0.51100000000E-03 0. -1.
         11   -1    0    0    0    0 -0.00000000000E+00 -0.00000000000E+00 -0.45593999997E+02  0.45594000000E+02  0.51100000000E-03 0.  1.
    9900012    2    1    2    0    0  0.27557659178E+02  0.28229577291E+02 -0.98403062624E+01  0.50528865224E+02  0.30000016335E+02 0.  0.
         12    1    1    2    0    0 -0.27557659178E+02 -0.28229577291E+02  0.98403062624E+01  0.40659134776E+02  0.00000000000E+00 0. -1.
         11    1    3    3    0    0  0.10983566467E+02  0.31857328138E+01  0.12674228504E+01  0.11506258595E+02  0.51100000000E-03 0. -1.
        -11    1    3    3    0    0  0.14169062477E+02  0.37941780681E+01 -0.97113858005E+01  0.17591734795E+02  0.51100000000E-03 0.  1.
         12    1    3    3    0    0  0.24050302336E+01  0.21249666409E+02 -0.13963433123E+01  0.21430871834E+02  0.00000000000E+00 0. -1.
</event>
<event>
 7    1  0.5479172E-013  0.5052886E+02  0.7816164E-02  0.1300439E+00
        -11   -1    0    0    0    0  0.00000000000E+00  0.00000000000E+00  0.45593999997E+02  0.45594000000E+02  0.51100000000E-03 0. -1.
         11   -1    0    0    0    0 -0.00000000000E+00 -0.00000000000E+00 -0.45593999997E+02  0.45594000000E+02  0.51100000000E-03 0.  1.
    9900012    2    1    2    0    0  0.39602503323E+02  0.58905152106E+00  0.91902129245E+01  0.50528864929E+02  0.30000015437E+02 0.  0.
         12    1    1    2    0    0 -0.39602503323E+02 -0.58905152106E+00 -0.91902129245E+01  0.40659135071E+02  0.00000000000E+00 0. -1.
         11    1    3    3    0    0  0.12228440264E+02 -0.47221574347E+01  0.33787989540E+01  0.13536979159E+02  0.51100000000E-03 0. -1.
        -11    1    3    3    0    0  0.69683467973E+01 -0.87223705634E+01 -0.12638982692E+01  0.11235436993E+02  0.51100000000E-03 0.  1.
         12    1    3    3    0    0  0.20405716262E+02  0.14033579519E+02  0.70753122397E+01  0.25756448776E+02  0.00000000000E+00 0. -1.
</event>
<event>
 7    1  0.5479172E-013  0.5052886E+02  0.7816164E-02  0.1300439E+00
        -11   -1    0    0    0    0  0.00000000000E+00  0.00000000000E+00  0.45593999997E+02  0.45594000000E+02  0.51100000000E-03 0. -1.
         11   -1    0    0    0    0 -0.00000000000E+00 -0.00000000000E+00 -0.45593999997E+02  0.45594000000E+02  0.51100000000E-03 0.  1.
    9900012    2    1    2    0    0 -0.21317992196E+02  0.31830793677E+02 -0.13620198790E+02  0.50528855488E+02  0.29999986742E+02 0.  0.
         12    1    1    2    0    0  0.21317992196E+02 -0.31830793677E+02  0.13620198790E+02  0.40659144512E+02  0.00000000000E+00 0. -1.
         11    1    3    3    0    0  0.24917588286E+01  0.30957805848E+01  0.58126536963E+01  0.70412827484E+01  0.51100000000E-03 0. -1.
        -11    1    3    3    0    0 -0.18132623268E+01  0.94698495280E+01 -0.54563453432E+01  0.11078703675E+02  0.51100000000E-03 0.  1.
         12    1    3    3    0    0 -0.21996488698E+02  0.19265163564E+02 -0.13976507143E+02  0.32408869065E+02  0.00000000000E+00 0. -1.
</event>
<event>
 7    1  0.5479172E-013  0.5052888E+02  0.7816164E-02  0.1300439E+00
        -11   -1    0    0    0    0  0.00000000000E+00  0.00000000000E+00  0.45593999997E+02  0.45594000000E+02  0.51100000000E-03 0. -1.
         11   -1    0    0    0    0 -0.00000000000E+00 -0.00000000000E+00 -0.45593999997E+02  0.45594000000E+02  0.51100000000E-03 0.  1.
    9900012    2    1    2    0    0 -0.15640556369E+02 -0.70989345907E+01 -0.36852976795E+02  0.50528883255E+02  0.30000071141E+02 0.  0.
         12    1    1    2    0    0  0.15640556369E+02  0.70989345907E+01  0.36852976795E+02  0.40659116745E+02  0.00000000000E+00 0. -1.
         11    1    3    3    0    0 -0.12485053841E+02 -0.40474986677E+00 -0.32566407633E+01  0.12909147965E+02  0.51100000000E-03 0. -1.
        -11    1    3    3    0    0 -0.49391422224E+01  0.36521976058E+01 -0.15871963925E+02  0.17019192470E+02  0.51100000000E-03 0.  1.
        -12    1    3    3    0    0  0.17836396939E+01 -0.10346382330E+02 -0.17724372106E+02  0.20600542819E+02  0.00000000000E+00 0.  1.
</event>
<event>
 7    1  0.5479172E-013  0.5052885E+02  0.7816164E-02  0.1300439E+00
        -11   -1    0    0    0    0  0.00000000000E+00  0.00000000000E+00  0.45593999997E+02  0.45594000000E+02  0.51100000000E-03 0. -1.
         11   -1    0    0    0    0 -0.00000000000E+00 -0.00000000000E+00 -0.45593999997E+02  0.45594000000E+02  0.51100000000E-03 0.  1.
    9900012    2    1    2    0    0 -0.36261733164E+02  0.17648160814E+02 -0.51764083308E+01  0.50528854960E+02  0.29999985137E+02 0.  0.
         12    1    1    2    0    0  0.36261733164E+02 -0.17648160814E+02  0.51764083308E+01  0.40659145040E+02  0.00000000000E+00 0. -1.
         11    1    3    3    0    0 -0.34137645547E+01  0.80327114384E+01  0.76168197174E+00  0.87611872012E+01  0.51100000000E-03 0. -1.
        -11    1    3    3    0    0 -0.17453394052E+02  0.16814459537E+02 -0.19651213617E+01  0.24314783892E+02  0.51100000000E-03 0.  1.
         12    1    3    3    0    0 -0.15394574557E+02 -0.71990101610E+01 -0.39729689408E+01  0.17452883867E+02  0.00000000000E+00 0. -1.
</event>
<event>
 7    1  0.5479172E-013  0.5052886E+02  0.7816164E-02  0.1300439E+00
        -11   -1    0    0    0    0  0.00000000000E+00  0.00000000000E+00  0.45593999997E+02  0.45594000000E+02  0.51100000000E-03 0.  1.
         11   -1    0    0    0    0 -0.00000000000E+00 -0.00000000000E+00 -0.45593999997E+02  0.45594000000E+02  0.51100000000E-03 0. -1.
    9900012    2    1    2    0    0  0.15113959473E+02  0.25490190815E+02  0.27838531819E+02  0.50528862619E+02  0.30000008417E+02 0.  0.
         12    1    1    2    0    0 -0.15113959473E+02 -0.25490190815E+02 -0.27838531819E+02  0.40659137381E+02  0.00000000000E+00 0. -1.
         11    1    3    3    0    0  0.10165113146E+02  0.79568591949E+01  0.32705886440E+01  0.13316827094E+02  0.51100000000E-03 0. -1.
        -11    1    3    3    0    0  0.31812103460E+01  0.10829761515E+01 -0.33593917671E+01  0.47516786419E+01  0.51100000000E-03 0.  1.
        -12    1    3    3    0    0  0.17676359816E+01  0.16450355468E+02  0.27927334942E+02  0.32460356883E+02  0.00000000000E+00 0.  1.
</event>
<event>
 7    1  0.5479172E-013  0.5052886E+02  0.7816164E-02  0.1300439E+00
        -11   -1    0    0    0    0  0.00000000000E+00  0.00000000000E+00  0.45593999997E+02  0.45594000000E+02  0.51100000000E-03 0.  1.
         11   -1    0    0    0    0 -0.00000000000E+00 -0.00000000000E+00 -0.45593999997E+02  0.45594000000E+02  0.51100000000E-03 0. -1.
    9900012    2    1    2    0    0 -0.39527736227E+01  0.31651423173E+02  0.25213663759E+02  0.50528857752E+02  0.29999993624E+02 0.  0.
         12    1    1    2    0    0  0.39527736227E+01 -0.31651423173E+02 -0.25213663759E+02  0.40659142248E+02  0.00000000000E+00 0. -1.
         11    1    3    3    0    0 -0.41014547843E+01  0.12005292579E+02 -0.28608574599E+01  0.13005133099E+02  0.51100000000E-03 0. -1.
        -11    1    3    3    0    0 -0.10452141239E+01 -0.18910820792E+01  0.52736181963E-01  0.21613526693E+01  0.51100000000E-03 0.  1.
        -12    1    3    3    0    0  0.11938952855E+01  0.21537212673E+02  0.28021785037E+02  0.35362371984E+02  0.00000000000E+00 0.  1.
</event>
<event>
 7    1  0.5479172E-013  0.5052888E+02  0.7816164E-02  0.1300439E+00
        -11   -1    0    0    0    0  0.00000000000E+00  0.00000000000E+00  0.45593999997E+02  0.45594000000E+02  0.51100000000E-03 0.  1.
         11   -1    0    0    0    0 -0.00000000000E+00 -0.00000000000E+00 -0.45593999997E+02  0.45594000000E+02  0.51100000000E-03 0. -1.
    9900012    2    1    2    0    0  0.37302907227E+02 -0.13373550045E+02 -0.90997611523E+01  0.50528875792E+02  0.30000048456E+02 0.  0.
         12    1    1    2    0    0 -0.37302907227E+02  0.13373550045E+02  0.90997611523E+01  0.40659124208E+02  0.00000000000E+00 0. -1.
         11    1    3    3    0    0  0.10475346523E+02 -0.87382343021E+01  0.74155763765E+00  0.13661607939E+02  0.51100000000E-03 0. -1.
        -11    1    3    3    0    0 -0.71952624678E+00 -0.59308805985E+01  0.27191250200E+01  0.65640463000E+01  0.51100000000E-03 0.  1.
        -12    1    3    3    0    0  0.27547086950E+02  0.12955648560E+01 -0.12560443810E+02  0.30303221552E+02  0.00000000000E+00 0.  1.
</event>
<event>
 7    1  0.5479172E-013  0.5052885E+02  0.7816164E-02  0.1300439E+00
        -11   -1    0    0    0    0  0.00000000000E+00  0.00000000000E+00  0.45593999997E+02  0.45594000000E+02  0.51100000000E-03 0.  1.
         11   -1    0    0    0    0 -0.00000000000E+00 -0.00000000000E+00 -0.45593999997E+02  0.45594000000E+02  0.51100000000E-03 0. -1.
    9900012    2    1    2    0    0 -0.27416169532E+02  0.10298902034E+02  0.28203768313E+02  0.50528852420E+02  0.29999977415E+02 0.  0.
         12    1    1    2    0    0  0.27416169532E+02 -0.10298902034E+02 -0.28203768313E+02  0.40659147580E+02  0.00000000000E+00 0. -1.
         11    1    3    3    0    0  0.34124300564E+01 -0.30407133193E+00 -0.31064693751E+01  0.46246394999E+01  0.51100000000E-03 0. -1.
        -11    1    3    3    0    0 -0.80925924442E+01 -0.67238699831E+00  0.88943472757E+01  0.12043735735E+02  0.51100000000E-03 0.  1.
         12    1    3    3    0    0 -0.22736007144E+02  0.11275360364E+02  0.22415890412E+02  0.33860477185E+02  0.00000000000E+00 0. -1.
</event>
<event>
 7    1  0.5479172E-013  0.5052884E+02  0.7816164E-02  0.1300439E+00
        -11   -1    0    0    0    0  0.00000000000E+00  0.00000000000E+00  0.45593999997E+02  0.45594000000E+02  0.51100000000E-03 0.  1.
         11   -1    0    0    0    0 -0.00000000000E+00 -0.00000000000E+00 -0.45593999997E+02  0.45594000000E+02  0.51100000000E-03 0. -1.
    9900012    2    1    2    0    0  0.24595900059E+02  0.30774093287E+01  0.32229468813E+02  0.50528838574E+02  0.29999935330E+02 0.  0.
         12    1    1    2    0    0 -0.24595900059E+02 -0.30774093287E+01 -0.32229468813E+02  0.40659161426E+02  0.00000000000E+00 0. -1.
         11    1    3    3    0    0  0.81624511724E+01 -0.36475352414E+01 -0.77391276766E+00  0.89737987336E+01  0.51100000000E-03 0. -1.
        -11    1    3    3    0    0  0.62742070853E+01 -0.45082503918E+00  0.49873681386E-02  0.62903849564E+01  0.51100000000E-03 0.  1.
        -12    1    3    3    0    0  0.10159241801E+02  0.71757696092E+01  0.32998394213E+02  0.35264654884E+02  0.00000000000E+00 0.  1.
</event>
<event>
 7    1  0.5479172E-013  0.5052885E+02  0.7816164E-02  0.1300439E+00
        -11   -1    0    0    0    0  0.00000000000E+00  0.00000000000E+00  0.45593999997E+02  0.45594000000E+02  0.51100000000E-03 0.  1.
         11   -1    0    0    0    0 -0.00000000000E+00 -0.00000000000E+00 -0.45593999997E+02  0.45594000000E+02  0.51100000000E-03 0. -1.
    9900012    2    1    2    0    0 -0.19500720091E+02 -0.24903292133E+02  0.25548278908E+02  0.50528848529E+02  0.29999965590E+02 0.  0.
         12    1    1    2    0    0  0.19500720091E+02  0.24903292133E+02 -0.25548278908E+02  0.40659151471E+02  0.00000000000E+00 0. -1.
         11    1    3    3    0    0  0.15960166028E+01  0.10078591937E+01  0.67461442779E+01  0.70052488914E+01  0.51100000000E-03 0. -1.
        -11    1    3    3    0    0 -0.89090278804E+01  0.13679561375E+01  0.69457826578E+01  0.11379190602E+02  0.51100000000E-03 0.  1.
        -12    1    3    3    0    0 -0.12187708814E+02 -0.27279107465E+02  0.11856351972E+02  0.32144409036E+02  0.00000000000E+00 0.  1.
</event>
<event>
 7    1  0.5479172E-013  0.5052886E+02  0.7816164E-02  0.1300439E+00
        -11   -1    0    0    0    0  0.00000000000E+00  0.00000000000E+00  0.45593999997E+02  0.45594000000E+02  0.51100000000E-03 0.  1.
         11   -1    0    0    0    0 -0.00000000000E+00 -0.00000000000E+00 -0.45593999997E+02  0.45594000000E+02  0.51100000000E-03 0. -1.
    9900012    2    1    2    0    0 -0.13490105896E+02 -0.35543280813E+02  0.14417290337E+02  0.50528855535E+02  0.29999986883E+02 0.  0.
         12    1    1    2    0    0  0.13490105896E+02  0.35543280813E+02 -0.14417290337E+02  0.40659144465E+02  0.00000000000E+00 0. -1.
         11    1    3    3    0    0 -0.86651798675E+01 -0.19714588090E+01  0.60923006397E+01  0.10774419674E+02  0.51100000000E-03 0. -1.
        -11    1    3    3    0    0 -0.67251677100E+01 -0.12657119696E+02  0.11677487957E+02  0.18487679276E+02  0.51100000000E-03 0.  1.
         12    1    3    3    0    0  0.19002416816E+01 -0.20914702307E+02 -0.33524982604E+01  0.21266756585E+02  0.00000000000E+00 0. -1.
</event>
<event>
 7    1  0.5479172E-013  0.5052899E+02  0.7816164E-02  0.1300438E+00
        -11   -1    0    0    0    0  0.00000000000E+00  0.00000000000E+00  0.45593999997E+02  0.45594000000E+02  0.51100000000E-03 0. -1.
         11   -1    0    0    0    0 -0.00000000000E+00 -0.00000000000E+00 -0.45593999997E+02  0.45594000000E+02  0.51100000000E-03 0.  1.
    9900012    2    1    2    0    0  0.18186303977E+02 -0.21654096642E+02 -0.29214951187E+02  0.50528992062E+02  0.30000401868E+02 0.  0.
         12    1    1    2    0    0 -0.18186303977E+02  0.21654096642E+02  0.29214951187E+02  0.40659007938E+02  0.00000000000E+00 0. -1.
         11    1    3    3    0    0  0.55640829242E+01 -0.93888366374E+00 -0.16283153114E+02  0.17233154003E+02  0.51100000000E-03 0.  1.
        -11    1    3    3    0    0  0.10811002217E+02 -0.38236464111E+01  0.73742930392E+00  0.11490946134E+02  0.51100000000E-03 0. -1.
         12    1    3    3    0    0  0.18112188358E+01 -0.16891566567E+02 -0.13669227377E+02  0.21804891925E+02  0.00000000000E+00 0. -1.
</event>
<event>
 7    1  0.5479172E-013  0.5052873E+02  0.7816164E-02  0.1300439E+00
        -11   -1    0    0    0    0  0.00000000000E+00  0.00000000000E+00  0.45593999997E+02  0.45594000000E+02  0.51100000000E-03 0. -1.
         11   -1    0    0    0    0 -0.00000000000E+00 -0.00000000000E+00 -0.45593999997E+02  0.45594000000E+02  0.51100000000E-03 0.  1.
    9900012    2    1    2    0    0  0.26903732590E+02 -0.12544726761E+00 -0.30485242386E+02  0.50528725933E+02  0.29999592943E+02 0.  0.
         12    1    1    2    0    0 -0.26903732590E+02  0.12544726761E+00  0.30485242386E+02  0.40659274067E+02  0.00000000000E+00 0. -1.
         11    1    3    3    0    0  0.13109391122E+02 -0.27613844290E+00 -0.19400865462E+02  0.23416361139E+02  0.51100000000E-03 0. -1.
        -11    1    3    3    0    0  0.63471263517E+01  0.78605716309E+01 -0.12746548031E+02  0.16264964994E+02  0.51100000000E-03 0.  1.
         12    1    3    3    0    0  0.74472151160E+01 -0.77098804556E+01  0.16621711074E+01  0.10847399800E+02  0.00000000000E+00 0. -1.
</event>
<event>
 7    1  0.5479172E-013  0.5052885E+02  0.7816164E-02  0.1300439E+00
        -11   -1    0    0    0    0  0.00000000000E+00  0.00000000000E+00  0.45593999997E+02  0.45594000000E+02  0.51100000000E-03 0.  1.
         11   -1    0    0    0    0 -0.00000000000E+00 -0.00000000000E+00 -0.45593999997E+02  0.45594000000E+02  0.51100000000E-03 0. -1.
    9900012    2    1    2    0    0  0.19299090742E+02 -0.29729499187E+02  0.19921551417E+02  0.50528852982E+02  0.29999979124E+02 0.  0.
         12    1    1    2    0    0 -0.19299090742E+02  0.29729499187E+02 -0.19921551417E+02  0.40659147018E+02  0.00000000000E+00 0. -1.
         11    1    3    3    0    0  0.11528359692E+02 -0.26182788021E+02  0.12697429352E+02  0.31299619457E+02  0.51100000000E-03 0. -1.
        -11    1    3    3    0    0  0.21462283010E+01 -0.88362281085E+01  0.70504614382E+01  0.11506269155E+02  0.51100000000E-03 0.  1.
         12    1    3    3    0    0  0.56245027488E+01  0.52895169425E+01  0.17366062676E+00  0.77229643706E+01  0.00000000000E+00 0. -1.
</event>
<event>
 7    1  0.5479172E-013  0.5052885E+02  0.7816164E-02  0.1300439E+00
        -11   -1    0    0    0    0  0.00000000000E+00  0.00000000000E+00  0.45593999997E+02  0.45594000000E+02  0.51100000000E-03 0.  1.
         11   -1    0    0    0    0 -0.00000000000E+00 -0.00000000000E+00 -0.45593999997E+02  0.45594000000E+02  0.51100000000E-03 0. -1.
    9900012    2    1    2    0    0 -0.22225721901E+02  0.19766636938E+02  0.27721173355E+02  0.50528854632E+02  0.29999984140E+02 0.  0.
         12    1    1    2    0    0  0.22225721901E+02 -0.19766636938E+02 -0.27721173355E+02  0.40659145368E+02  0.00000000000E+00 0. -1.
         11    1    3    3    0    0 -0.18922189675E+02  0.77895536206E+01  0.53882151338E+01  0.21160323019E+02  0.51100000000E-03 0. -1.
        -11    1    3    3    0    0 -0.73105343409E+01  0.65498129133E+01  0.19914264135E+02  0.22201844019E+02  0.51100000000E-03 0.  1.
         12    1    3    3    0    0  0.40070021144E+01  0.54272704040E+01  0.24186940860E+01  0.71666875937E+01  0.00000000000E+00 0. -1.
</event>
<event>
 7    1  0.5479172E-013  0.5052887E+02  0.7816164E-02  0.1300439E+00
        -11   -1    0    0    0    0  0.00000000000E+00  0.00000000000E+00  0.45593999997E+02  0.45594000000E+02  0.51100000000E-03 0.  1.
         11   -1    0    0    0    0 -0.00000000000E+00 -0.00000000000E+00 -0.45593999997E+02  0.45594000000E+02  0.51100000000E-03 0. -1.
    9900012    2    1    2    0    0 -0.50720821640E+01  0.28142029126E+02 -0.28904412941E+02  0.50528869312E+02  0.30000028760E+02 0.  0.
         12    1    1    2    0    0  0.50720821640E+01 -0.28142029126E+02  0.28904412941E+02  0.40659130688E+02  0.00000000000E+00 0. -1.
         11    1    3    3    0    0 -0.97328707838E+00  0.84623918487E+00 -0.14586150507E+02  0.14643059631E+02  0.51100000000E-03 0. -1.
        -11    1    3    3    0    0  0.46692639428E+01  0.16081322462E+02 -0.13702493414E+02  0.21637219875E+02  0.51100000000E-03 0.  1.
        -12    1    3    3    0    0 -0.87680590284E+01  0.11214467479E+02 -0.61576902098E+00  0.14248589806E+02  0.00000000000E+00 0.  1.
</event>
<event>
 7    1  0.5479172E-013  0.5052885E+02  0.7816164E-02  0.1300439E+00
        -11   -1    0    0    0    0  0.00000000000E+00  0.00000000000E+00  0.45593999997E+02  0.45594000000E+02  0.51100000000E-03 0. -1.
         11   -1    0    0    0    0 -0.00000000000E+00 -0.00000000000E+00 -0.45593999997E+02  0.45594000000E+02  0.51100000000E-03 0.  1.
    9900012    2    1    2    0    0  0.21410673837E+02 -0.16048180002E+02 -0.30613808511E+02  0.50528852111E+02  0.29999976477E+02 0.  0.
         12    1    1    2    0    0 -0.21410673837E+02  0.16048180002E+02  0.30613808511E+02  0.40659147889E+02  0.00000000000E+00 0. -1.
         11    1    3    3    0    0  0.27041508184E+01 -0.29564514747E+01  0.69955119986E+00  0.40672360533E+01  0.51100000000E-03 0. -1.
        -11    1    3    3    0    0  0.18155069568E+01 -0.98653158669E+01  0.76977023060E+00  0.10060470622E+02  0.51100000000E-03 0.  1.
        -12    1    3    3    0    0  0.16891016062E+02 -0.32264126599E+01 -0.32083129941E+02  0.36401145436E+02  0.00000000000E+00 0.  1.
</event>
<event>
 7    1  0.5479172E-013  0.5052883E+02  0.7816164E-02  0.1300439E+00
        -11   -1    0    0    0    0  0.00000000000E+00  0.00000000000E+00  0.45593999997E+02  0.45594000000E+02  0.51100000000E-03 0.  1.
         11   -1    0    0    0    0 -0.00000000000E+00 -0.00000000000E+00 -0.45593999997E+02  0.45594000000E+02  0.51100000000E-03 0. -1.
    9900012    2    1    2    0    0  0.18932481378E+02 -0.80984405411E+01  0.35059153347E+02  0.50528833460E+02  0.29999919784E+02 0.  0.
         12    1    1    2    0    0 -0.18932481378E+02  0.80984405411E+01 -0.35059153347E+02  0.40659166540E+02  0.00000000000E+00 0. -1.
         11    1    3    3    0    0 -0.19456267046E+01  0.23410979185E+01  0.58816764770E+01  0.66227125242E+01  0.51100000000E-03 0. -1.
        -11    1    3    3    0    0  0.19027948543E+02  0.40353029235E+00  0.26428119114E+02  0.32567946552E+02  0.51100000000E-03 0.  1.
         12    1    3    3    0    0  0.18501595391E+01 -0.10843068752E+02  0.27493577568E+01  0.11338174384E+02  0.00000000000E+00 0. -1.
</event>
<event>
 7    1  0.5479172E-013  0.5052886E+02  0.7816164E-02  0.1300439E+00
        -11   -1    0    0    0    0  0.00000000000E+00  0.00000000000E+00  0.45593999997E+02  0.45594000000E+02  0.51100000000E-03 0.  1.
         11   -1    0    0    0    0 -0.00000000000E+00 -0.00000000000E+00 -0.45593999997E+02  0.45594000000E+02  0.51100000000E-03 0. -1.
    9900012    2    1    2    0    0  0.35476569389E+02  0.19307807343E+02 -0.46676683361E+01  0.50528861695E+02  0.30000005607E+02 0.  0.
         12    1    1    2    0    0 -0.35476569389E+02 -0.19307807343E+02  0.46676683361E+01  0.40659138305E+02  0.00000000000E+00 0. -1.
         11    1    3    3    0    0  0.25274006100E+02  0.22817753528E+01 -0.39110978506E+01  0.25676420502E+02  0.51100000000E-03 0. -1.
        -11    1    3    3    0    0  0.13938753016E+02  0.13341206140E+02  0.99540171742E+00  0.19320130480E+02  0.51100000000E-03 0.  1.
         12    1    3    3    0    0 -0.37361897273E+01  0.36848258509E+01 -0.17519722029E+01  0.55323107134E+01  0.00000000000E+00 0. -1.
</event>
<event>
 7    1  0.5479172E-013  0.5052887E+02  0.7816164E-02  0.1300439E+00
        -11   -1    0    0    0    0  0.00000000000E+00  0.00000000000E+00  0.45593999997E+02  0.45594000000E+02  0.51100000000E-03 0.  1.
         11   -1    0    0    0    0 -0.00000000000E+00 -0.00000000000E+00 -0.45593999997E+02  0.45594000000E+02  0.51100000000E-03 0. -1.
    9900012    2    1    2    0    0 -0.32341270658E+02 -0.24059538563E+02  0.53240758955E+01  0.50528868581E+02  0.30000026539E+02 0.  0.
         12    1    1    2    0    0  0.32341270658E+02  0.24059538563E+02 -0.53240758955E+01  0.40659131419E+02  0.00000000000E+00 0. -1.
         11    1    3    3    0    0 -0.15549901400E+02 -0.32771964395E+00 -0.11854575888E+01  0.15598466068E+02  0.51100000000E-03 0. -1.
        -11    1    3    3    0    0 -0.83764652897E+01  0.76431372023E+00  0.13141558080E+01  0.85133044091E+01  0.51100000000E-03 0.  1.
        -12    1    3    3    0    0 -0.84149039681E+01 -0.24496132639E+02  0.51953776762E+01  0.26417098104E+02  0.00000000000E+00 0.  1.
</event>
<event>
 7    1  0.5479172E-013  0.5052881E+02  0.7816164E-02  0.1300439E+00
        -11   -1    0    0    0    0  0.00000000000E+00  0.00000000000E+00  0.45593999997E+02  0.45594000000E+02  0.51100000000E-03 0. -1.
         11   -1    0    0    0    0 -0.00000000000E+00 -0.00000000000E+00 -0.45593999997E+02  0.45594000000E+02  0.51100000000E-03 0.  1.
    9900012    2    1    2    0    0 -0.12566645770E+02 -0.36481962823E+02  0.12818573577E+02  0.50528806380E+02  0.29999837471E+02 0.  0.
         12    1    1    2    0    0  0.12566645770E+02  0.36481962823E+02 -0.12818573577E+02  0.40659193620E+02  0.00000000000E+00 0. -1.
         11    1    3    3    0    0  0.17452871960E+00 -0.41361043252E+01 -0.32794303794E+01  0.52813334620E+01  0.51100000000E-03 0. -1.
        -11    1    3    3    0    0 -0.81341714931E+01 -0.17801828502E+02 -0.40382400926E+01  0.19984424615E+02  0.51100000000E-03 0.  1.
        -12    1    3    3    0    0 -0.46070029961E+01 -0.14544029996E+02  0.20136244049E+02  0.25263048303E+02  0.00000000000E+00 0.  1.
</event>
<event>
 7    1  0.5479172E-013  0.5052887E+02  0.7816164E-02  0.1300439E+00
        -11   -1    0    0    0    0  0.00000000000E+00  0.00000000000E+00  0.45593999997E+02  0.45594000000E+02  0.51100000000E-03 0. -1.
         11   -1    0    0    0    0 -0.00000000000E+00 -0.00000000000E+00 -0.45593999997E+02  0.45594000000E+02  0.51100000000E-03 0.  1.
    9900012    2    1    2    0    0  0.21243813555E+02 -0.32734987862E+02  0.11414286320E+02  0.50528868469E+02  0.30000026197E+02 0.  0.
         12    1    1    2    0    0 -0.21243813555E+02  0.32734987862E+02 -0.11414286320E+02  0.40659131531E+02  0.00000000000E+00 0. -1.
         11    1    3    3    0    0  0.29007769589E+00 -0.90499499028E+00 -0.68532785654E+01  0.69188574460E+01  0.51100000000E-03 0.  1.
        -11    1    3    3    0    0  0.44846674079E+01 -0.10387759691E+01  0.12788539255E+01  0.47777363780E+01  0.51100000000E-03 0. -1.
        -12    1    3    3    0    0  0.16469068451E+02 -0.30791216903E+02  0.16988710960E+02  0.38832274645E+02  0.00000000000E+00 0.  1.
</event>
<event>
 7    1  0.5479172E-013  0.5052886E+02  0.7816164E-02  0.1300439E+00
        -11   -1    0    0    0    0  0.00000000000E+00  0.00000000000E+00  0.45593999997E+02  0.45594000000E+02  0.51100000000E-03 0.  1.
         11   -1    0    0    0    0 -0.00000000000E+00 -0.00000000000E+00 -0.45593999997E+02  0.45594000000E+02  0.51100000000E-03 0. -1.
    9900012    2    1    2    0    0  0.26983928176E+02 -0.15681695872E+01  0.30373906995E+02  0.50528858816E+02  0.29999996856E+02 0.  0.
         12    1    1    2    0    0 -0.26983928176E+02  0.15681695872E+01 -0.30373906995E+02  0.40659141184E+02  0.00000000000E+00 0. -1.
         11    1    3    3    0    0  0.64436209925E+01 -0.24310749144E+01 -0.28139705321E+00  0.68927179905E+01  0.51100000000E-03 0. -1.
        -11    1    3    3    0    0  0.21333545982E+02  0.52567349650E+01  0.13228738241E+02  0.25646694960E+02  0.51100000000E-03 0.  1.
         12    1    3    3    0    0 -0.79323879796E+00 -0.43938296378E+01  0.17426565808E+02  0.17989445865E+02  0.00000000000E+00 0. -1.
</event>
<event>
 7    1  0.5479172E-013  0.5052886E+02  0.7816164E-02  0.1300439E+00
        -11   -1    0    0    0    0  0.00000000000E+00  0.00000000000E+00  0.45593999997E+02  0.45594000000E+02  0.51100000000E-03 0.  1.
         11   -1    0    0    0    0 -0.00000000000E+00 -0.00000000000E+00 -0.45593999997E+02  0.45594000000E+02  0.51100000000E-03 0. -1.
    9900012    2    1    2    0    0 -0.23158290499E+02  0.33414451093E+02  0.57739133970E+00  0.50528863985E+02  0.30000012569E+02 0.  0.
         12    1    1    2    0    0  0.23158290499E+02 -0.33414451093E+02 -0.57739133970E+00  0.40659136015E+02  0.00000000000E+00 0. -1.
         11    1    3    3    0    0 -0.48061103493E+01  0.97336088012E+01  0.61665656054E+01  0.12484725412E+02  0.51100000000E-03 0.  1.
        -11    1    3    3    0    0 -0.77524418597E+01  0.19884163338E+02  0.57103237844E+01  0.22092716095E+02  0.51100000000E-03 0. -1.
         12    1    3    3    0    0 -0.10599738290E+02  0.37966789534E+01 -0.11299498050E+02  0.15951422478E+02  0.00000000000E+00 0. -1.
</event>
<event>
 7    1  0.5479172E-013  0.5052884E+02  0.7816164E-02  0.1300439E+00
        -11   -1    0    0    0    0  0.00000000000E+00  0.00000000000E+00  0.45593999997E+02  0.45594000000E+02  0.51100000000E-03 0.  1.
         11   -1    0    0    0    0 -0.00000000000E+00 -0.00000000000E+00 -0.45593999997E+02  0.45594000000E+02  0.51100000000E-03 0. -1.
    9900012    2    1    2    0    0  0.17962664254E+02 -0.22642861277E+02  0.28597386488E+02  0.50528843739E+02  0.29999951028E+02 0.  0.
         12    1    1    2    0    0 -0.17962664254E+02  0.22642861277E+02 -0.28597386488E+02  0.40659156261E+02  0.00000000000E+00 0. -1.
         11    1    3    3    0    0  0.14082452663E+02 -0.13830614846E+02  0.17618686119E+02  0.26457881262E+02  0.51100000000E-03 0.  1.
        -11    1    3    3    0    0  0.20838323247E+01  0.50764058689E+01 -0.10771543841E+01  0.55921834315E+01  0.51100000000E-03 0. -1.
         12    1    3    3    0    0  0.17963792665E+01 -0.13888652300E+02  0.12055854753E+02  0.18478779045E+02  0.00000000000E+00 0. -1.
</event>
<event>
 7    1  0.5479172E-013  0.5052887E+02  0.7816164E-02  0.1300439E+00
        -11   -1    0    0    0    0  0.00000000000E+00  0.00000000000E+00  0.45593999997E+02  0.45594000000E+02  0.51100000000E-03 0. -1.
         11   -1    0    0    0    0 -0.00000000000E+00 -0.00000000000E+00 -0.45593999997E+02  0.45594000000E+02  0.51100000000E-03 0.  1.
    9900012    2    1    2    0    0 -0.97100164375E+00  0.32643470614E+02  0.24220366726E+02  0.50528865943E+02  0.30000018521E+02 0.  0.
         12    1    1    2    0    0  0.97100164375E+00 -0.32643470614E+02 -0.24220366726E+02  0.40659134057E+02  0.00000000000E+00 0. -1.
         11    1    3    3    0    0 -0.84770423630E+01  0.33385403337E+01  0.41743946100E-01  0.91108639328E+01  0.51100000000E-03 0. -1.
        -11    1    3    3    0    0  0.87575182154E+01  0.68458601480E+01  0.86452757324E+01  0.14081928817E+02  0.51100000000E-03 0.  1.
         12    1    3    3    0    0 -0.12514774962E+01  0.22459070132E+02  0.15533347047E+02  0.27336073193E+02  0.00000000000E+00 0. -1.
</event>
<event>
 7    1  0.5479172E-013  0.5052885E+02  0.7816164E-02  0.1300439E+00
        -11   -1    0    0    0    0  0.00000000000E+00  0.00000000000E+00  0.45593999997E+02  0.45594000000E+02  0.51100000000E-03 0.  1.
         11   -1    0    0    0    0 -0.00000000000E+00 -0.00000000000E+00 -0.45593999997E+02  0.45594000000E+02  0.51100000000E-03 0. -1.
    9900012    2    1    2    0    0  0.17332716966E+02 -0.29749486709E+02  0.21626636926E+02  0.50528850211E+02  0.29999970700E+02 0.  0.
         12    1    1    2    0    0 -0.17332716966E+02  0.29749486709E+02 -0.21626636926E+02  0.40659149789E+02  0.00000000000E+00 0. -1.
         11    1    3    3    0    0  0.24464534522E+01 -0.41626169661E+01  0.21403716237E+00  0.48330452790E+01  0.51100000000E-03 0. -1.
        -11    1    3    3    0    0  0.19550026996E+02 -0.17437912190E+02  0.24443347521E+02  0.35829618688E+02  0.51100000000E-03 0.  1.
        -12    1    3    3    0    0 -0.46637634819E+01 -0.81489575533E+01 -0.30307477573E+01  0.98661862434E+01  0.00000000000E+00 0.  1.
</event>
<event>
 7    1  0.5479172E-013  0.5052886E+02  0.7816164E-02  0.1300439E+00
        -11   -1    0    0    0    0  0.00000000000E+00  0.00000000000E+00  0.45593999997E+02  0.45594000000E+02  0.51100000000E-03 0.  1.
         11   -1    0    0    0    0 -0.00000000000E+00 -0.00000000000E+00 -0.45593999997E+02  0.45594000000E+02  0.51100000000E-03 0. -1.
    9900012    2    1    2    0    0 -0.13018301473E+02  0.37822685198E+02  0.72893238688E+01  0.50528856732E+02  0.29999990524E+02 0.  0.
         12    1    1    2    0    0  0.13018301473E+02 -0.37822685198E+02 -0.72893238688E+01  0.40659143268E+02  0.00000000000E+00 0. -1.
         11    1    3    3    0    0  0.36114738288E+01  0.30615303938E+00  0.56220756869E+01  0.66891111659E+01  0.51100000000E-03 0. -1.
        -11    1    3    3    0    0 -0.20083209763E+01  0.99655431794E+01  0.67990010401E+01  0.12229955822E+02  0.51100000000E-03 0.  1.
         12    1    3    3    0    0 -0.14621454325E+02  0.27550988979E+02 -0.51317528582E+01  0.31609789744E+02  0.00000000000E+00 0. -1.
</event>
<event>
 7    1  0.5479172E-013  0.5052888E+02  0.7816164E-02  0.1300439E+00
        -11   -1    0    0    0    0  0.00000000000E+00  0.00000000000E+00  0.45593999997E+02  0.45594000000E+02  0.51100000000E-03 0. -1.
         11   -1    0    0    0    0 -0.00000000000E+00 -0.00000000000E+00 -0.45593999997E+02  0.45594000000E+02  0.51100000000E-03 0.  1.
    9900012    2    1    2    0    0  0.29441010410E+02  0.21696980286E+02  0.17766030749E+02  0.50528881760E+02  0.30000066599E+02 0.  0.
         12    1    1    2    0    0 -0.29441010410E+02 -0.21696980286E+02 -0.17766030749E+02  0.40659118240E+02  0.00000000000E+00 0. -1.
         11    1    3    3    0    0  0.79183800362E+01  0.19256981847E+02  0.45388588495E+01  0.21310404317E+02  0.51100000000E-03 0. -1.
        -11    1    3    3    0    0  0.18713453198E+02  0.60926124430E+01  0.58693590472E+01  0.20536860346E+02  0.51100000000E-03 0.  1.
        -12    1    3    3    0    0  0.28091771758E+01 -0.36526140039E+01  0.73578128521E+01  0.86816170978E+01  0.00000000000E+00 0.  1.
</event>
<event>
 7    1  0.5479172E-013  0.5052886E+02  0.7816164E-02  0.1300439E+00
        -11   -1    0    0    0    0  0.00000000000E+00  0.00000000000E+00  0.45593999997E+02  0.45594000000E+02  0.51100000000E-03 0. -1.
         11   -1    0    0    0    0 -0.00000000000E+00 -0.00000000000E+00 -0.45593999997E+02  0.45594000000E+02  0.51100000000E-03 0.  1.
    9900012    2    1    2    0    0  0.23480671217E+02 -0.23936266458E+01 -0.33107313746E+02  0.50528860895E+02  0.30000003175E+02 0.  0.
         12    1    1    2    0    0 -0.23480671217E+02  0.23936266458E+01  0.33107313746E+02  0.40659139105E+02  0.00000000000E+00 0. -1.
         11    1    3    3    0    0  0.69773075283E+01 -0.44430355262E+01 -0.14142037482E+01  0.83918625784E+01  0.51100000000E-03 0. -1.
        -11    1    3    3    0    0  0.12415651471E+02  0.11810074484E+02 -0.20815296757E+02  0.26961135735E+02  0.51100000000E-03 0.  1.
         12    1    3    3    0    0  0.40877122178E+01 -0.97606656034E+01 -0.10877813241E+02  0.15175862582E+02  0.00000000000E+00 0. -1.
</event>
<event>
 7    1  0.5479172E-013  0.5052886E+02  0.7816164E-02  0.1300439E+00
        -11   -1    0    0    0    0  0.00000000000E+00  0.00000000000E+00  0.45593999997E+02  0.45594000000E+02  0.51100000000E-03 0. -1.
         11   -1    0    0    0    0 -0.00000000000E+00 -0.00000000000E+00 -0.45593999997E+02  0.45594000000E+02  0.51100000000E-03 0.  1.
    9900012    2    1    2    0    0 -0.11793599060E+02 -0.13084778905E+02 -0.36645128771E+02  0.50528857358E+02  0.29999992424E+02 0.  0.
         12    1    1    2    0    0  0.11793599060E+02  0.13084778905E+02  0.36645128771E+02  0.40659142642E+02  0.00000000000E+00 0. -1.
         11    1    3    3    0    0 -0.14128090896E+02 -0.14214357297E+02 -0.11604286865E+02  0.23158376014E+02  0.51100000000E-03 0. -1.
        -11    1    3    3    0    0  0.20028059326E+01 -0.21354621515E+01 -0.98076272207E+00  0.30876084568E+01  0.51100000000E-03 0.  1.
         12    1    3    3    0    0  0.33168590290E+00  0.32650405435E+01 -0.24060079184E+02  0.24282872886E+02  0.00000000000E+00 0. -1.
</event>
<event>
 7    1  0.5479172E-013  0.5052886E+02  0.7816164E-02  0.1300439E+00
        -11   -1    0    0    0    0  0.00000000000E+00  0.00000000000E+00  0.45593999997E+02  0.45594000000E+02  0.51100000000E-03 0. -1.
         11   -1    0    0    0    0 -0.00000000000E+00 -0.00000000000E+00 -0.45593999997E+02  0.45594000000E+02  0.51100000000E-03 0.  1.
    9900012    2    1    2    0    0  0.24170654302E+02  0.31385753628E+02  0.91586009909E+01  0.50528855490E+02  0.29999986748E+02 0.  0.
         12    1    1    2    0    0 -0.24170654302E+02 -0.31385753628E+02 -0.91586009909E+01  0.40659144510E+02  0.00000000000E+00 0. -1.
         11    1    3    3    0    0  0.51289061078E+01 -0.23321220356E+01  0.23411796617E+01  0.61012780236E+01  0.51100000000E-03 0. -1.
        -11    1    3    3    0    0  0.17653398313E+02  0.10762623939E+02  0.54906303792E+01  0.21392138001E+02  0.51100000000E-03 0.  1.
         12    1    3    3    0    0  0.13883498810E+01  0.22955251725E+02  0.13267909500E+01  0.23035439465E+02  0.00000000000E+00 0. -1.
</event>
<event>
 7    1  0.5479172E-013  0.5052886E+02  0.7816164E-02  0.1300439E+00
        -11   -1    0    0    0    0  0.00000000000E+00  0.00000000000E+00  0.45593999997E+02  0.45594000000E+02  0.51100000000E-03 0.  1.
         11   -1    0    0    0    0 -0.00000000000E+00 -0.00000000000E+00 -0.45593999997E+02  0.45594000000E+02  0.51100000000E-03 0. -1.
    9900012    2    1    2    0    0 -0.15848160112E+02  0.38681309532E+01  0.37242972296E+02  0.50528860788E+02  0.30000002851E+02 0.  0.
         12    1    1    2    0    0  0.15848160112E+02 -0.38681309532E+01 -0.37242972296E+02  0.40659139212E+02  0.00000000000E+00 0. -1.
         11    1    3    3    0    0  0.55675655408E+01  0.13883210833E+01  0.89822517877E+01  0.10658614775E+02  0.51100000000E-03 0. -1.
        -11    1    3    3    0    0  0.24713727483E+01  0.24177741904E+01  0.73538791444E+01  0.81260601787E+01  0.51100000000E-03 0.  1.
         12    1    3    3    0    0 -0.23887098401E+02  0.62035679435E-01  0.20906841364E+02  0.31744185834E+02  0.00000000000E+00 0. -1.
</event>
<event>
 7    1  0.5479172E-013  0.5052886E+02  0.7816164E-02  0.1300439E+00
        -11   -1    0    0    0    0  0.00000000000E+00  0.00000000000E+00  0.45593999997E+02  0.45594000000E+02  0.51100000000E-03 0.  1.
         11   -1    0    0    0    0 -0.00000000000E+00 -0.00000000000E+00 -0.45593999997E+02  0.45594000000E+02  0.51100000000E-03 0. -1.
    9900012    2    1    2    0    0 -0.12306747058E+02  0.14227884107E+02  0.36045488436E+02  0.50528856552E+02  0.29999989976E+02 0.  0.
         12    1    1    2    0    0  0.12306747058E+02 -0.14227884107E+02 -0.36045488436E+02  0.40659143448E+02  0.00000000000E+00 0. -1.
         11    1    3    3    0    0  0.47047701814E+01  0.58425215922E+01  0.11462158855E+02  0.13698576820E+02  0.51100000000E-03 0. -1.
        -11    1    3    3    0    0 -0.19840003667E+01  0.48878602772E+01  0.20074183648E+02  0.20755728967E+02  0.51100000000E-03 0.  1.
         12    1    3    3    0    0 -0.15027516873E+02  0.34975022381E+01  0.45091459329E+01  0.16074550765E+02  0.00000000000E+00 0. -1.
</event>
<event>
 7    1  0.5479172E-013  0.5052886E+02  0.7816164E-02  0.1300439E+00
        -11   -1    0    0    0    0  0.00000000000E+00  0.00000000000E+00  0.45593999997E+02  0.45594000000E+02  0.51100000000E-03 0.  1.
         11   -1    0    0    0    0 -0.00000000000E+00 -0.00000000000E+00 -0.45593999997E+02  0.45594000000E+02  0.51100000000E-03 0. -1.
    9900012    2    1    2    0    0 -0.89016396685E-01  0.26978311681E+02  0.30419209929E+02  0.50528861325E+02  0.30000004483E+02 0.  0.
         12    1    1    2    0    0  0.89016396685E-01 -0.26978311681E+02 -0.30419209929E+02  0.40659138675E+02  0.00000000000E+00 0. -1.
         11    1    3    3    0    0 -0.76798860340E+01  0.18203853594E+02  0.22420990986E+02  0.29884139141E+02  0.51100000000E-03 0. -1.
        -11    1    3    3    0    0  0.53016927457E+01  0.36319066866E+01  0.12085776134E+02  0.13688121754E+02  0.51100000000E-03 0.  1.
         12    1    3    3    0    0  0.22891768917E+01  0.51425514012E+01 -0.40875571902E+01  0.69566004297E+01  0.00000000000E+00 0. -1.
</event>
<event>
 7    1  0.5479172E-013  0.5052886E+02  0.7816164E-02  0.1300439E+00
        -11   -1    0    0    0    0  0.00000000000E+00  0.00000000000E+00  0.45593999997E+02  0.45594000000E+02  0.51100000000E-03 0.  1.
         11   -1    0    0    0    0 -0.00000000000E+00 -0.00000000000E+00 -0.45593999997E+02  0.45594000000E+02  0.51100000000E-03 0. -1.
    9900012    2    1    2    0    0  0.25843340693E+02 -0.18882581197E+00  0.31388722817E+02  0.50528857936E+02  0.29999994181E+02 0.  0.
         12    1    1    2    0    0 -0.25843340693E+02  0.18882581197E+00 -0.31388722817E+02  0.40659142064E+02  0.00000000000E+00 0. -1.
         11    1    3    3    0    0  0.18068017631E+02 -0.44771123131E+01  0.61873050534E+01  0.19615823711E+02  0.51100000000E-03 0. -1.
        -11    1    3    3    0    0  0.77931423722E+01 -0.45180458613E+01  0.11209855843E+02  0.14380774483E+02  0.51100000000E-03 0.  1.
         12    1    3    3    0    0 -0.17819310754E-01  0.88063323624E+01  0.13991561920E+02  0.16532259742E+02  0.00000000000E+00 0. -1.
</event>
<event>
 7    1  0.5479172E-013  0.5052886E+02  0.7816164E-02  0.1300439E+00
        -11   -1    0    0    0    0  0.00000000000E+00  0.00000000000E+00  0.45593999997E+02  0.45594000000E+02  0.51100000000E-03 0.  1.
         11   -1    0    0    0    0 -0.00000000000E+00 -0.00000000000E+00 -0.45593999997E+02  0.45594000000E+02  0.51100000000E-03 0. -1.
    9900012    2    1    2    0    0  0.69035427548E+01  0.39417683025E+02  0.71939764197E+01  0.50528856694E+02  0.29999990408E+02 0.  0.
         12    1    1    2    0    0 -0.69035427548E+01 -0.39417683025E+02 -0.71939764197E+01  0.40659143306E+02  0.00000000000E+00 0. -1.
         11    1    3    3    0    0  0.73238239180E+01  0.13705393344E+02  0.78980486100E+01  0.17431447891E+02  0.51100000000E-03 0.  1.
        -11    1    3    3    0    0 -0.83107104068E+01  0.18182923721E+02  0.52521484845E+01  0.20670551189E+02  0.51100000000E-03 0. -1.
         12    1    3    3    0    0  0.78904292436E+01  0.75293659608E+01 -0.59562206749E+01  0.12426857614E+02  0.00000000000E+00 0. -1.
</event>
<event>
 7    1  0.5479172E-013  0.5052886E+02  0.7816164E-02  0.1300439E+00
        -11   -1    0    0    0    0  0.00000000000E+00  0.00000000000E+00  0.45593999997E+02  0.45594000000E+02  0.51100000000E-03 0.  1.
         11   -1    0    0    0    0 -0.00000000000E+00 -0.00000000000E+00 -0.45593999997E+02  0.45594000000E+02  0.51100000000E-03 0. -1.
    9900012    2    1    2    0    0 -0.17100310152E+02 -0.32521380297E+02 -0.17409898130E+02  0.50528864045E+02  0.30000012750E+02 0.  0.
         12    1    1    2    0    0  0.17100310152E+02  0.32521380297E+02  0.17409898130E+02  0.40659135955E+02  0.00000000000E+00 0. -1.
         11    1    3    3    0    0 -0.46566799204E+01 -0.13101173356E+01 -0.72984915323E-01  0.48380163676E+01  0.51100000000E-03 0. -1.
        -11    1    3    3    0    0 -0.18686272086E+02 -0.12539859406E+02 -0.10669902556E+02  0.24905253647E+02  0.51100000000E-03 0.  1.
        -12    1    3    3    0    0  0.62426418542E+01 -0.18671403556E+02 -0.66670106580E+01  0.20785594030E+02  0.00000000000E+00 0.  1.
</event>
<event>
 7    1  0.5479172E-013  0.5052886E+02  0.7816164E-02  0.1300439E+00
        -11   -1    0    0    0    0  0.00000000000E+00  0.00000000000E+00  0.45593999997E+02  0.45594000000E+02  0.51100000000E-03 0. -1.
         11   -1    0    0    0    0 -0.00000000000E+00 -0.00000000000E+00 -0.45593999997E+02  0.45594000000E+02  0.51100000000E-03 0.  1.
    9900012    2    1    2    0    0  0.28954556411E+02 -0.85849455295E+00 -0.28531778658E+02  0.50528859044E+02  0.29999997550E+02 0.  0.
         12    1    1    2    0    0 -0.28954556411E+02  0.85849455295E+00  0.28531778658E+02  0.40659140956E+02  0.00000000000E+00 0. -1.
         11    1    3    3    0    0  0.27335241554E+01  0.85121693366E+01 -0.89119159144E+01  0.12623447495E+02  0.51100000000E-03 0. -1.
        -11    1    3    3    0    0  0.53591072991E+01 -0.49439930967E+01 -0.14104050926E+02  0.15877258944E+02  0.51100000000E-03 0.  1.
         12    1    3    3    0    0  0.20861924957E+02 -0.44266707928E+01 -0.55158118181E+01  0.22028152606E+02  0.00000000000E+00 0. -1.
</event>
<event>
 7    1  0.5479172E-013  0.5052886E+02  0.7816164E-02  0.1300439E+00
        -11   -1    0    0    0    0  0.00000000000E+00  0.00000000000E+00  0.45593999997E+02  0.45594000000E+02  0.51100000000E-03 0.  1.
         11   -1    0    0    0    0 -0.00000000000E+00 -0.00000000000E+00 -0.45593999997E+02  0.45594000000E+02  0.51100000000E-03 0. -1.
    9900012    2    1    2    0    0 -0.31554452230E+02 -0.69050407980E+01  0.24694186439E+02  0.50528857266E+02  0.29999992146E+02 0.  0.
         12    1    1    2    0    0  0.31554452230E+02  0.69050407980E+01 -0.24694186439E+02  0.40659142734E+02  0.00000000000E+00 0. -1.
         11    1    3    3    0    0 -0.19802390351E+02 -0.78949569411E+00  0.80485295261E+01  0.21390109744E+02  0.51100000000E-03 0. -1.
        -11    1    3    3    0    0 -0.13160706632E+02 -0.79515821550E+01  0.34721079218E+01  0.15763482848E+02  0.51100000000E-03 0.  1.
         12    1    3    3    0    0  0.14086447525E+01  0.18360370512E+01  0.13173548991E+02  0.13375264675E+02  0.00000000000E+00 0. -1.
</event>
<event>
 7    1  0.5479172E-013  0.5052888E+02  0.7816164E-02  0.1300439E+00
        -11   -1    0    0    0    0  0.00000000000E+00  0.00000000000E+00  0.45593999997E+02  0.45594000000E+02  0.51100000000E-03 0. -1.
         11   -1    0    0    0    0 -0.00000000000E+00 -0.00000000000E+00 -0.45593999997E+02  0.45594000000E+02  0.51100000000E-03 0.  1.
    9900012    2    1    2    0    0  0.25092629412E+02 -0.42845531609E+01 -0.31704356347E+02  0.50528884687E+02  0.30000075495E+02 0.  0.
         12    1    1    2    0    0 -0.25092629412E+02  0.42845531609E+01  0.31704356347E+02  0.40659115313E+02  0.00000000000E+00 0. -1.
         11    1    3    3    0    0  0.23621636813E+01 -0.27589898917E+01 -0.16312584794E+02  0.16712039534E+02  0.51100000000E-03 0. -1.
        -11    1    3    3    0    0  0.11845885810E+02 -0.10562777626E+02 -0.68133255407E+01  0.17271904556E+02  0.51100000000E-03 0.  1.
         12    1    3    3    0    0  0.10884579921E+02  0.90372143564E+01 -0.85784460129E+01  0.16544940597E+02  0.00000000000E+00 0. -1.
</event>
<event>
 7    1  0.5479172E-013  0.5052886E+02  0.7816164E-02  0.1300439E+00
        -11   -1    0    0    0    0  0.00000000000E+00  0.00000000000E+00  0.45593999997E+02  0.45594000000E+02  0.51100000000E-03 0. -1.
         11   -1    0    0    0    0 -0.00000000000E+00 -0.00000000000E+00 -0.45593999997E+02  0.45594000000E+02  0.51100000000E-03 0.  1.
    9900012    2    1    2    0    0 -0.34771608898E+02 -0.16315388373E+02  0.13338267610E+02  0.50528855076E+02  0.29999985490E+02 0.  0.
         12    1    1    2    0    0  0.34771608898E+02  0.16315388373E+02 -0.13338267610E+02  0.40659144924E+02  0.00000000000E+00 0. -1.
         11    1    3    3    0    0 -0.56961917602E+01  0.61452299090E+01  0.42401186246E+01  0.93909029074E+01  0.51100000000E-03 0. -1.
        -11    1    3    3    0    0 -0.18398349297E+02 -0.21978695681E+02  0.10130009118E+02  0.30400319171E+02  0.51100000000E-03 0.  1.
         12    1    3    3    0    0 -0.10677067841E+02 -0.48192260073E+00 -0.10318601331E+01  0.10737632998E+02  0.00000000000E+00 0. -1.
</event>
<event>
 7    1  0.5479172E-013  0.5052885E+02  0.7816164E-02  0.1300439E+00
        -11   -1    0    0    0    0  0.00000000000E+00  0.00000000000E+00  0.45593999997E+02  0.45594000000E+02  0.51100000000E-03 0.  1.
         11   -1    0    0    0    0 -0.00000000000E+00 -0.00000000000E+00 -0.45593999997E+02  0.45594000000E+02  0.51100000000E-03 0. -1.
    9900012    2    1    2    0    0  0.16664299866E+02  0.19449030316E+02  0.31578516788E+02  0.50528851057E+02  0.29999973273E+02 0.  0.
         12    1    1    2    0    0 -0.16664299866E+02 -0.19449030316E+02 -0.31578516788E+02  0.40659148943E+02  0.00000000000E+00 0. -1.
         11    1    3    3    0    0 -0.27272127777E+01  0.20808105786E+01  0.18389033918E+01  0.38921752459E+01  0.51100000000E-03 0. -1.
        -11    1    3    3    0    0 -0.51408246891E+01  0.73300646931E+01  0.10958367590E+02  0.14150750771E+02  0.51100000000E-03 0.  1.
         12    1    3    3    0    0  0.24532337332E+02  0.10038155045E+02  0.18781245806E+02  0.32485925040E+02  0.00000000000E+00 0. -1.
</event>
<event>
 7    1  0.5479172E-013  0.5052888E+02  0.7816164E-02  0.1300439E+00
        -11   -1    0    0    0    0  0.00000000000E+00  0.00000000000E+00  0.45593999997E+02  0.45594000000E+02  0.51100000000E-03 0.  1.
         11   -1    0    0    0    0 -0.00000000000E+00 -0.00000000000E+00 -0.45593999997E+02  0.45594000000E+02  0.51100000000E-03 0. -1.
    9900012    2    1    2    0    0 -0.12896568680E+02 -0.26147630786E+02  0.28339801191E+02  0.50528875428E+02  0.30000047351E+02 0.  0.
         12    1    1    2    0    0  0.12896568680E+02  0.26147630786E+02 -0.28339801191E+02  0.40659124572E+02  0.00000000000E+00 0. -1.
         11    1    3    3    0    0 -0.97496443139E+01  0.67782087304E+00  0.44501000398E+01  0.10738640324E+02  0.51100000000E-03 0. -1.
        -11    1    3    3    0    0  0.66238259765E+00 -0.77549366462E+01  0.17774991192E+02  0.19404332125E+02  0.51100000000E-03 0.  1.
         12    1    3    3    0    0 -0.38093069633E+01 -0.19070515012E+02  0.61147099600E+01  0.20385902979E+02  0.00000000000E+00 0. -1.
</event>
<event>
 7    1  0.5479172E-013  0.5052886E+02  0.7816164E-02  0.1300439E+00
        -11   -1    0    0    0    0  0.00000000000E+00  0.00000000000E+00  0.45593999997E+02  0.45594000000E+02  0.51100000000E-03 0.  1.
         11   -1    0    0    0    0 -0.00000000000E+00 -0.00000000000E+00 -0.45593999997E+02  0.45594000000E+02  0.51100000000E-03 0. -1.
    9900012    2    1    2    0    0  0.31348443487E+02 -0.15021603846E+02  0.21090099248E+02  0.50528858624E+02  0.29999996273E+02 0.  0.
         12    1    1    2    0    0 -0.31348443487E+02  0.15021603846E+02 -0.21090099248E+02  0.40659141376E+02  0.00000000000E+00 0. -1.
         11    1    3    3    0    0  0.63309138684E+01  0.55184039310E+01 -0.15693162986E+01  0.85437700262E+01  0.51100000000E-03 0. -1.
        -11    1    3    3    0    0  0.13945994295E+01 -0.86711820679E+01  0.41574945625E+01  0.97169474282E+01  0.51100000000E-03 0.  1.
        -12    1    3    3    0    0  0.23622930189E+02 -0.11868825709E+02  0.18501920984E+02  0.32268141169E+02  0.00000000000E+00 0.  1.
</event>
<event>
 7    1  0.5479172E-013  0.5052886E+02  0.7816164E-02  0.1300439E+00
        -11   -1    0    0    0    0  0.00000000000E+00  0.00000000000E+00  0.45593999997E+02  0.45594000000E+02  0.51100000000E-03 0. -1.
         11   -1    0    0    0    0 -0.00000000000E+00 -0.00000000000E+00 -0.45593999997E+02  0.45594000000E+02  0.51100000000E-03 0.  1.
    9900012    2    1    2    0    0  0.36792875164E+02 -0.15825114393E+02  0.70011258823E+01  0.50528859920E+02  0.30000000213E+02 0.  0.
         12    1    1    2    0    0 -0.36792875164E+02  0.15825114393E+02 -0.70011258823E+01  0.40659140080E+02  0.00000000000E+00 0. -1.
         11    1    3    3    0    0  0.50166754244E+01 -0.53777401413E+01  0.87923510713E+01  0.11462659332E+02  0.51100000000E-03 0. -1.
        -11    1    3    3    0    0  0.15997275873E+02  0.38090802417E+01 -0.57783136177E+01  0.17430170285E+02  0.51100000000E-03 0.  1.
         12    1    3    3    0    0  0.15778923867E+02 -0.14256454494E+02  0.39870884288E+01  0.21636030303E+02  0.00000000000E+00 0. -1.
</event>
<event>
 7    1  0.5479172E-013  0.5052882E+02  0.7816164E-02  0.1300439E+00
        -11   -1    0    0    0    0  0.00000000000E+00  0.00000000000E+00  0.45593999997E+02  0.45594000000E+02  0.51100000000E-03 0.  1.
         11   -1    0    0    0    0 -0.00000000000E+00 -0.00000000000E+00 -0.45593999997E+02  0.45594000000E+02  0.51100000000E-03 0. -1.
    9900012    2    1    2    0    0  0.18811745546E+02  0.82790694155E+01  0.35081963461E+02  0.50528819964E+02  0.29999878764E+02 0.  0.
         12    1    1    2    0    0 -0.18811745546E+02 -0.82790694155E+01 -0.35081963461E+02  0.40659180036E+02  0.00000000000E+00 0. -1.
         11    1    3    3    0    0 -0.32166384455E+01  0.37449262814E+01  0.11088572558E+01  0.50597233538E+01  0.51100000000E-03 0. -1.
        -11    1    3    3    0    0  0.13934071524E+02  0.11033580224E+02  0.12847272426E+02  0.21930587107E+02  0.51100000000E-03 0.  1.
        -12    1    3    3    0    0  0.80943124681E+01 -0.64994370898E+01  0.21125833779E+02  0.23538509504E+02  0.00000000000E+00 0.  1.
</event>
<event>
 7    1  0.5479172E-013  0.5052886E+02  0.7816164E-02  0.1300439E+00
        -11   -1    0    0    0    0  0.00000000000E+00  0.00000000000E+00  0.45593999997E+02  0.45594000000E+02  0.51100000000E-03 0. -1.
         11   -1    0    0    0    0 -0.00000000000E+00 -0.00000000000E+00 -0.45593999997E+02  0.45594000000E+02  0.51100000000E-03 0.  1.
    9900012    2    1    2    0    0 -0.20402473805E+02  0.14054691533E+02 -0.32239264991E+02  0.50528862053E+02  0.30000006696E+02 0.  0.
         12    1    1    2    0    0  0.20402473805E+02 -0.14054691533E+02  0.32239264991E+02  0.40659137947E+02  0.00000000000E+00 0. -1.
         11    1    3    3    0    0 -0.15415102534E+02  0.13432042305E+02 -0.30244024317E+02  0.36506795994E+02  0.51100000000E-03 0. -1.
        -11    1    3    3    0    0 -0.70725176354E+01  0.48886196827E+01  0.58590507231E+00  0.86175630616E+01  0.51100000000E-03 0.  1.
         12    1    3    3    0    0  0.20851463645E+01 -0.42659704548E+01 -0.25811457462E+01  0.54045029971E+01  0.00000000000E+00 0. -1.
</event>
<event>
 7    1  0.5479172E-013  0.5052886E+02  0.7816164E-02  0.1300439E+00
        -11   -1    0    0    0    0  0.00000000000E+00  0.00000000000E+00  0.45593999997E+02  0.45594000000E+02  0.51100000000E-03 0. -1.
         11   -1    0    0    0    0 -0.00000000000E+00 -0.00000000000E+00 -0.45593999997E+02  0.45594000000E+02  0.51100000000E-03 0.  1.
    9900012    2    1    2    0    0  0.32745940855E+02  0.11062314592E+02 -0.21412480100E+02  0.50528858953E+02  0.29999997275E+02 0.  0.
         12    1    1    2    0    0 -0.32745940855E+02 -0.11062314592E+02  0.21412480100E+02  0.40659141047E+02  0.00000000000E+00 0. -1.
         11    1    3    3    0    0 -0.62923037327E+00  0.21877489175E+00 -0.16468009148E+01  0.17764421832E+01  0.51100000000E-03 0. -1.
        -11    1    3    3    0    0  0.26756510437E+02  0.18472855547E+02 -0.20802414806E+02  0.38599193060E+02  0.51100000000E-03 0.  1.
        -12    1    3    3    0    0  0.66186607909E+01 -0.76293158473E+01  0.10367356209E+01  0.10153223710E+02  0.00000000000E+00 0.  1.
</event>
<event>
 7    1  0.5479172E-013  0.5052886E+02  0.7816164E-02  0.1300439E+00
        -11   -1    0    0    0    0  0.00000000000E+00  0.00000000000E+00  0.45593999997E+02  0.45594000000E+02  0.51100000000E-03 0. -1.
         11   -1    0    0    0    0 -0.00000000000E+00 -0.00000000000E+00 -0.45593999997E+02  0.45594000000E+02  0.51100000000E-03 0.  1.
    9900012    2    1    2    0    0  0.30152852400E+02  0.14383702849E+02  0.23174989775E+02  0.50528861217E+02  0.30000004156E+02 0.  0.
         12    1    1    2    0    0 -0.30152852400E+02 -0.14383702849E+02 -0.23174989775E+02  0.40659138783E+02  0.00000000000E+00 0. -1.
         11    1    3    3    0    0  0.12650883060E+02  0.10844959714E+02  0.10986466037E+02  0.19958968652E+02  0.51100000000E-03 0.  1.
        -11    1    3    3    0    0  0.94590119253E+01  0.87734067446E+01  0.15727199724E+02  0.20341838263E+02  0.51100000000E-03 0. -1.
         12    1    3    3    0    0  0.80429574141E+01 -0.52346636096E+01 -0.35386759861E+01  0.10228054302E+02  0.00000000000E+00 0. -1.
</event>
<event>
 7    1  0.5479172E-013  0.5052886E+02  0.7816164E-02  0.1300439E+00
        -11   -1    0    0    0    0  0.00000000000E+00  0.00000000000E+00  0.45593999997E+02  0.45594000000E+02  0.51100000000E-03 0.  1.
         11   -1    0    0    0    0 -0.00000000000E+00 -0.00000000000E+00 -0.45593999997E+02  0.45594000000E+02  0.51100000000E-03 0. -1.
    9900012    2    1    2    0    0  0.27445228659E+02 -0.13235539222E+02  0.26921096474E+02  0.50528861913E+02  0.30000006269E+02 0.  0.
         12    1    1    2    0    0 -0.27445228659E+02  0.13235539222E+02 -0.26921096474E+02  0.40659138087E+02  0.00000000000E+00 0. -1.
         11    1    3    3    0    0  0.23608724788E+01  0.42142735261E+01  0.68083881355E+01  0.83479320481E+01  0.51100000000E-03 0. -1.
        -11    1    3    3    0    0  0.45527520913E+00  0.13607811120E+01  0.92208645236E+01  0.93318456682E+01  0.51100000000E-03 0.  1.
        -12    1    3    3    0    0  0.24629080971E+02 -0.18810593860E+02  0.10891843815E+02  0.32849084196E+02  0.00000000000E+00 0.  1.
</event>
<event>
 7    1  0.5479172E-013  0.5052886E+02  0.7816164E-02  0.1300439E+00
        -11   -1    0    0    0    0  0.00000000000E+00  0.00000000000E+00  0.45593999997E+02  0.45594000000E+02  0.51100000000E-03 0.  1.
         11   -1    0    0    0    0 -0.00000000000E+00 -0.00000000000E+00 -0.45593999997E+02  0.45594000000E+02  0.51100000000E-03 0. -1.
    9900012    2    1    2    0    0  0.37253963706E+02 -0.11140144887E+02  0.11882982516E+02  0.50528856952E+02  0.29999991192E+02 0.  0.
         12    1    1    2    0    0 -0.37253963706E+02  0.11140144887E+02 -0.11882982516E+02  0.40659143048E+02  0.00000000000E+00 0. -1.
         11    1    3    3    0    0 -0.22823506352E+01 -0.38257675472E+01 -0.50455322299E+00  0.44833242090E+01  0.51100000000E-03 0. -1.
        -11    1    3    3    0    0  0.21730506553E+02 -0.11284935259E+02  0.93165266970E+00  0.24503727386E+02  0.51100000000E-03 0.  1.
        -12    1    3    3    0    0  0.17805807788E+02  0.39705579188E+01  0.11455883069E+02  0.21541805357E+02  0.00000000000E+00 0.  1.
</event>
<event>
 7    1  0.5479172E-013  0.5052886E+02  0.7816164E-02  0.1300439E+00
        -11   -1    0    0    0    0  0.00000000000E+00  0.00000000000E+00  0.45593999997E+02  0.45594000000E+02  0.51100000000E-03 0.  1.
         11   -1    0    0    0    0 -0.00000000000E+00 -0.00000000000E+00 -0.45593999997E+02  0.45594000000E+02  0.51100000000E-03 0. -1.
    9900012    2    1    2    0    0  0.24646877749E+02 -0.31431441941E+02  0.76000875250E+01  0.50528862581E+02  0.30000008301E+02 0.  0.
         12    1    1    2    0    0 -0.24646877749E+02  0.31431441941E+02 -0.76000875250E+01  0.40659137419E+02  0.00000000000E+00 0. -1.
         11    1    3    3    0    0 -0.38543142764E+01 -0.14928012349E+02 -0.53450544273E+00  0.15426826879E+02  0.51100000000E-03 0.  1.
        -11    1    3    3    0    0  0.54864744863E+01 -0.25895958649E+00  0.36050723754E+01  0.65700083294E+01  0.51100000000E-03 0. -1.
        -12    1    3    3    0    0  0.23014717539E+02 -0.16244470005E+02  0.45295205924E+01  0.28532027372E+02  0.00000000000E+00 0.  1.
</event>
<event>
 7    1  0.5479172E-013  0.5052886E+02  0.7816164E-02  0.1300439E+00
        -11   -1    0    0    0    0  0.00000000000E+00  0.00000000000E+00  0.45593999997E+02  0.45594000000E+02  0.51100000000E-03 0. -1.
         11   -1    0    0    0    0 -0.00000000000E+00 -0.00000000000E+00 -0.45593999997E+02  0.45594000000E+02  0.51100000000E-03 0.  1.
    9900012    2    1    2    0    0 -0.26226589016E+02 -0.24219245115E+02 -0.19461756198E+02  0.50528858842E+02  0.29999996937E+02 0.  0.
         12    1    1    2    0    0  0.26226589016E+02  0.24219245115E+02  0.19461756198E+02  0.40659141158E+02  0.00000000000E+00 0. -1.
         11    1    3    3    0    0 -0.11991567931E+02 -0.39716445208E+01  0.45532022154E+01  0.13427706890E+02  0.51100000000E-03 0. -1.
        -11    1    3    3    0    0 -0.10037866863E+02 -0.45236718381E+01 -0.50570373491E+01  0.12115940123E+02  0.51100000000E-03 0.  1.
        -12    1    3    3    0    0 -0.41971542226E+01 -0.15723928756E+02 -0.18957921065E+02  0.24985211830E+02  0.00000000000E+00 0.  1.
</event>
<event>
 7    1  0.5479172E-013  0.5052886E+02  0.7816164E-02  0.1300439E+00
        -11   -1    0    0    0    0  0.00000000000E+00  0.00000000000E+00  0.45593999997E+02  0.45594000000E+02  0.51100000000E-03 0. -1.
         11   -1    0    0    0    0 -0.00000000000E+00 -0.00000000000E+00 -0.45593999997E+02  0.45594000000E+02  0.51100000000E-03 0.  1.
    9900012    2    1    2    0    0 -0.27483722147E+01 -0.37392675961E+02 -0.15728941262E+02  0.50528863775E+02  0.30000011930E+02 0.  0.
         12    1    1    2    0    0  0.27483722147E+01  0.37392675961E+02  0.15728941262E+02  0.40659136225E+02  0.00000000000E+00 0. -1.
         11    1    3    3    0    0 -0.89830782689E+01 -0.19438489980E+02  0.27773750643E+01  0.21593156332E+02  0.51100000000E-03 0.  1.
        -11    1    3    3    0    0  0.48839522823E+01 -0.73354218790E+00 -0.34874410990E+01  0.60459341476E+01  0.51100000000E-03 0. -1.
        -12    1    3    3    0    0  0.13507537718E+01 -0.17220643793E+02 -0.15018875228E+02  0.22889773295E+02  0.00000000000E+00 0.  1.
</event>
<event>
 7    1  0.5479172E-013  0.5052886E+02  0.7816164E-02  0.1300439E+00
        -11   -1    0    0    0    0  0.00000000000E+00  0.00000000000E+00  0.45593999997E+02  0.45594000000E+02  0.51100000000E-03 0.  1.
         11   -1    0    0    0    0 -0.00000000000E+00 -0.00000000000E+00 -0.45593999997E+02  0.45594000000E+02  0.51100000000E-03 0. -1.
    9900012    2    1    2    0    0  0.21297489499E+01 -0.40189123459E+02  0.57848450907E+01  0.50528857022E+02  0.29999991403E+02 0.  0.
         12    1    1    2    0    0 -0.21297489499E+01  0.40189123459E+02 -0.57848450907E+01  0.40659142978E+02  0.00000000000E+00 0. -1.
         11    1    3    3    0    0  0.73527693420E+01 -0.21641377878E+02  0.74207552572E+01  0.24030814849E+02  0.51100000000E-03 0. -1.
        -11    1    3    3    0    0  0.23461392569E+01 -0.17605284816E+02 -0.45471164557E+01  0.18333758239E+02  0.51100000000E-03 0.  1.
         12    1    3    3    0    0 -0.75691596490E+01 -0.94246076568E+00  0.29112062893E+01  0.81642839334E+01  0.00000000000E+00 0. -1.
</event>
<event>
 7    1  0.5479172E-013  0.5052886E+02  0.7816164E-02  0.1300439E+00
        -11   -1    0    0    0    0  0.00000000000E+00  0.00000000000E+00  0.45593999997E+02  0.45594000000E+02  0.51100000000E-03 0.  1.
         11   -1    0    0    0    0 -0.00000000000E+00 -0.00000000000E+00 -0.45593999997E+02  0.45594000000E+02  0.51100000000E-03 0. -1.
    9900012    2    1    2    0    0 -0.35645698157E+02  0.10885472819E+01 -0.19528561498E+02  0.50528862694E+02  0.30000008644E+02 0.  0.
         12    1    1    2    0    0  0.35645698157E+02 -0.10885472819E+01  0.19528561498E+02  0.40659137306E+02  0.00000000000E+00 0. -1.
         11    1    3    3    0    0 -0.14164057236E+02 -0.33720682413E+01 -0.77865709391E+01  0.16511270358E+02  0.51100000000E-03 0. -1.
        -11    1    3    3    0    0 -0.20919389809E+02  0.51852952508E+01 -0.17761807164E+02  0.27928300178E+02  0.51100000000E-03 0.  1.
         12    1    3    3    0    0 -0.56225111277E+00 -0.72467972765E+00  0.60198166053E+01  0.60892921578E+01  0.00000000000E+00 0. -1.
</event>
<event>
 7    1  0.5479172E-013  0.5052887E+02  0.7816164E-02  0.1300439E+00
        -11   -1    0    0    0    0  0.00000000000E+00  0.00000000000E+00  0.45593999997E+02  0.45594000000E+02  0.51100000000E-03 0.  1.
         11   -1    0    0    0    0 -0.00000000000E+00 -0.00000000000E+00 -0.45593999997E+02  0.45594000000E+02  0.51100000000E-03 0. -1.
    9900012    2    1    2    0    0 -0.12577974623E+02 -0.29662234967E+02  0.24801429831E+02  0.50528873712E+02  0.30000042134E+02 0.  0.
         12    1    1    2    0    0  0.12577974623E+02  0.29662234967E+02 -0.24801429831E+02  0.40659126288E+02  0.00000000000E+00 0. -1.
         11    1    3    3    0    0 -0.23906483060E+01 -0.66087718270E+01  0.95883369772E+00  0.70929843300E+01  0.51100000000E-03 0. -1.
        -11    1    3    3    0    0 -0.14875438406E+02 -0.26024559582E+02  0.23083537023E+02  0.37833927248E+02  0.51100000000E-03 0.  1.
        -12    1    3    3    0    0  0.46881120886E+01  0.29710964414E+01  0.75905910957E+00  0.56019621341E+01  0.00000000000E+00 0.  1.
</event>
<event>
 7    1  0.5479172E-013  0.5052886E+02  0.7816164E-02  0.1300439E+00
        -11   -1    0    0    0    0  0.00000000000E+00  0.00000000000E+00  0.45593999997E+02  0.45594000000E+02  0.51100000000E-03 0.  1.
         11   -1    0    0    0    0 -0.00000000000E+00 -0.00000000000E+00 -0.45593999997E+02  0.45594000000E+02  0.51100000000E-03 0. -1.
    9900012    2    1    2    0    0  0.25220401354E+02 -0.90538260881E+01  0.30579823073E+02  0.50528856005E+02  0.29999988311E+02 0.  0.
         12    1    1    2    0    0 -0.25220401354E+02  0.90538260881E+01 -0.30579823073E+02  0.40659143995E+02  0.00000000000E+00 0. -1.
         11    1    3    3    0    0 -0.37311743579E+01 -0.11686421182E+01  0.12166132698E+01  0.40948180178E+01  0.51100000000E-03 0. -1.
        -11    1    3    3    0    0 -0.94311171692E+00 -0.37979130885E+01 -0.54369876725E+00  0.39508495477E+01  0.51100000000E-03 0.  1.
        -12    1    3    3    0    0  0.29894687429E+02 -0.40872708814E+01  0.29906908570E+02  0.42483188439E+02  0.00000000000E+00 0.  1.
</event>
<event>
 7    1  0.5479172E-013  0.5052886E+02  0.7816164E-02  0.1300439E+00
        -11   -1    0    0    0    0  0.00000000000E+00  0.00000000000E+00  0.45593999997E+02  0.45594000000E+02  0.51100000000E-03 0. -1.
         11   -1    0    0    0    0 -0.00000000000E+00 -0.00000000000E+00 -0.45593999997E+02  0.45594000000E+02  0.51100000000E-03 0.  1.
    9900012    2    1    2    0    0  0.18810897187E+02 -0.35480650379E+02 -0.63591671695E+01  0.50528863126E+02  0.30000009957E+02 0.  0.
         12    1    1    2    0    0 -0.18810897187E+02  0.35480650379E+02  0.63591671695E+01  0.40659136874E+02  0.00000000000E+00 0. -1.
         11    1    3    3    0    0  0.92119035545E+00 -0.84255487199E+01  0.26410072974E+00  0.84798710108E+01  0.51100000000E-03 0. -1.
        -11    1    3    3    0    0  0.98501628684E+01 -0.30831590146E+02 -0.71640065611E+01  0.33150198336E+02  0.51100000000E-03 0.  1.
        -12    1    3    3    0    0  0.80395439628E+01  0.37764884870E+01  0.54073866185E+00  0.88987937790E+01  0.00000000000E+00 0.  1.
</event>
<event>
 7    1  0.5479172E-013  0.5052886E+02  0.7816164E-02  0.1300439E+00
        -11   -1    0    0    0    0  0.00000000000E+00  0.00000000000E+00  0.45593999997E+02  0.45594000000E+02  0.51100000000E-03 0.  1.
         11   -1    0    0    0    0 -0.00000000000E+00 -0.00000000000E+00 -0.45593999997E+02  0.45594000000E+02  0.51100000000E-03 0. -1.
    9900012    2    1    2    0    0 -0.28300131958E+02 -0.12243252290E+02  0.26502277034E+02  0.50528863469E+02  0.30000011001E+02 0.  0.
         12    1    1    2    0    0  0.28300131958E+02  0.12243252290E+02 -0.26502277034E+02  0.40659136531E+02  0.00000000000E+00 0. -1.
         11    1    3    3    0    0  0.36738530739E+01  0.18152395652E+01  0.16943935088E+01  0.44343275377E+01  0.51100000000E-03 0. -1.
        -11    1    3    3    0    0 -0.43967184646E+01  0.33457348269E+01  0.70692549827E+01  0.89721480739E+01  0.51100000000E-03 0.  1.
        -12    1    3    3    0    0 -0.27577266567E+02 -0.17404226682E+02  0.17738628542E+02  0.37122387858E+02  0.00000000000E+00 0.  1.
</event>
<event>
 7    1  0.5479172E-013  0.5052886E+02  0.7816164E-02  0.1300439E+00
        -11   -1    0    0    0    0  0.00000000000E+00  0.00000000000E+00  0.45593999997E+02  0.45594000000E+02  0.51100000000E-03 0. -1.
         11   -1    0    0    0    0 -0.00000000000E+00 -0.00000000000E+00 -0.45593999997E+02  0.45594000000E+02  0.51100000000E-03 0.  1.
    9900012    2    1    2    0    0 -0.25295128894E+02 -0.31410978098E+02  0.51645457079E+01  0.50528860520E+02  0.30000002037E+02 0.  0.
         12    1    1    2    0    0  0.25295128894E+02  0.31410978098E+02 -0.51645457079E+01  0.40659139480E+02  0.00000000000E+00 0. -1.
         11    1    3    3    0    0 -0.32253784506E+01 -0.23533789768E+01 -0.66137577369E+01  0.77254935390E+01  0.51100000000E-03 0. -1.
        -11    1    3    3    0    0 -0.24925699062E+02 -0.21227460670E+02  0.83257268943E+01  0.33781848511E+02  0.51100000000E-03 0.  1.
         12    1    3    3    0    0  0.28559486182E+01 -0.78301384512E+01  0.34525765505E+01  0.90215184705E+01  0.00000000000E+00 0. -1.
</event>
<event>
 7    1  0.5479172E-013  0.5052885E+02  0.7816164E-02  0.1300439E+00
        -11   -1    0    0    0    0  0.00000000000E+00  0.00000000000E+00  0.45593999997E+02  0.45594000000E+02  0.51100000000E-03 0.  1.
         11   -1    0    0    0    0 -0.00000000000E+00 -0.00000000000E+00 -0.45593999997E+02  0.45594000000E+02  0.51100000000E-03 0. -1.
    9900012    2    1    2    0    0  0.69877640257E-01  0.16611261687E+02  0.37111015342E+02  0.50528851491E+02  0.29999974593E+02 0.  0.
         12    1    1    2    0    0 -0.69877640257E-01 -0.16611261687E+02 -0.37111015342E+02  0.40659148509E+02  0.00000000000E+00 0. -1.
         11    1    3    3    0    0  0.65454786103E+01  0.10001040580E+02  0.35121958229E+02  0.37100081577E+02  0.51100000000E-03 0. -1.
        -11    1    3    3    0    0  0.11447633024E+00  0.22909699523E+01 -0.32417056166E+01  0.39711841708E+01  0.51100000000E-03 0.  1.
        -12    1    3    3    0    0 -0.65900773003E+01  0.43192511542E+01  0.52307627301E+01  0.94575857435E+01  0.00000000000E+00 0.  1.
</event>
<event>
 7    1  0.5479172E-013  0.5052888E+02  0.7816164E-02  0.1300439E+00
        -11   -1    0    0    0    0  0.00000000000E+00  0.00000000000E+00  0.45593999997E+02  0.45594000000E+02  0.51100000000E-03 0.  1.
         11   -1    0    0    0    0 -0.00000000000E+00 -0.00000000000E+00 -0.45593999997E+02  0.45594000000E+02  0.51100000000E-03 0. -1.
    9900012    2    1    2    0    0  0.58213543685E+01  0.39939933501E+02  0.49069031471E+01  0.50528878597E+02  0.30000056984E+02 0.  0.
         12    1    1    2    0    0 -0.58213543685E+01 -0.39939933501E+02 -0.49069031471E+01  0.40659121403E+02  0.00000000000E+00 0. -1.
         11    1    3    3    0    0  0.12560203719E+01  0.94125416020E+01  0.80509905965E+01  0.12449577360E+02  0.51100000000E-03 0. -1.
        -11    1    3    3    0    0  0.38876155090E+01  0.27903755303E+02  0.57737922579E+01  0.28758821110E+02  0.51100000000E-03 0.  1.
         12    1    3    3    0    0  0.67771848753E+00  0.26236365964E+01 -0.89178797074E+01  0.93204801278E+01  0.00000000000E+00 0. -1.
</event>
<event>
 7    1  0.5479172E-013  0.5052886E+02  0.7816164E-02  0.1300439E+00
        -11   -1    0    0    0    0  0.00000000000E+00  0.00000000000E+00  0.45593999997E+02  0.45594000000E+02  0.51100000000E-03 0.  1.
         11   -1    0    0    0    0 -0.00000000000E+00 -0.00000000000E+00 -0.45593999997E+02  0.45594000000E+02  0.51100000000E-03 0. -1.
    9900012    2    1    2    0    0 -0.36637242214E+02 -0.13801139141E+02  0.10972996756E+02  0.50528860604E+02  0.30000002291E+02 0.  0.
         12    1    1    2    0    0  0.36637242214E+02  0.13801139141E+02 -0.10972996756E+02  0.40659139396E+02  0.00000000000E+00 0. -1.
         11    1    3    3    0    0 -0.15217196154E+02 -0.47657323177E+01  0.12020923889E+02  0.19969423495E+02  0.51100000000E-03 0. -1.
        -11    1    3    3    0    0 -0.13350815172E+01 -0.37698807687E+01  0.71850218936E+01  0.82230762821E+01  0.51100000000E-03 0.  1.
        -12    1    3    3    0    0 -0.20084964543E+02 -0.52655260547E+01 -0.82329490267E+01  0.22336360827E+02  0.00000000000E+00 0.  1.
</event>
<event>
 7    1  0.5479172E-013  0.5052885E+02  0.7816164E-02  0.1300439E+00
        -11   -1    0    0    0    0  0.00000000000E+00  0.00000000000E+00  0.45593999997E+02  0.45594000000E+02  0.51100000000E-03 0. -1.
         11   -1    0    0    0    0 -0.00000000000E+00 -0.00000000000E+00 -0.45593999997E+02  0.45594000000E+02  0.51100000000E-03 0.  1.
    9900012    2    1    2    0    0  0.29225313871E+02 -0.24177116786E+02 -0.14646310095E+02  0.50528851628E+02  0.29999975009E+02 0.  0.
         12    1    1    2    0    0 -0.29225313871E+02  0.24177116786E+02  0.14646310095E+02  0.40659148372E+02  0.00000000000E+00 0. -1.
         11    1    3    3    0    0 -0.36086349694E+01 -0.32783352490E+01 -0.40882130078E+01  0.63626420774E+01  0.51100000000E-03 0. -1.
        -11    1    3    3    0    0  0.90801654261E+00  0.19838940279E+01 -0.36957639872E+01  0.42917363928E+01  0.51100000000E-03 0.  1.
        -12    1    3    3    0    0  0.31925932298E+02 -0.22882675564E+02 -0.68623331000E+01  0.39874473158E+02  0.00000000000E+00 0.  1.
</event>
<event>
 7    1  0.5479172E-013  0.5052886E+02  0.7816164E-02  0.1300439E+00
        -11   -1    0    0    0    0  0.00000000000E+00  0.00000000000E+00  0.45593999997E+02  0.45594000000E+02  0.51100000000E-03 0.  1.
         11   -1    0    0    0    0 -0.00000000000E+00 -0.00000000000E+00 -0.45593999997E+02  0.45594000000E+02  0.51100000000E-03 0. -1.
    9900012    2    1    2    0    0  0.17868329642E+02  0.26745056323E+02  0.24871470904E+02  0.50528864411E+02  0.30000013863E+02 0.  0.
         12    1    1    2    0    0 -0.17868329642E+02 -0.26745056323E+02 -0.24871470904E+02  0.40659135589E+02  0.00000000000E+00 0. -1.
         11    1    3    3    0    0 -0.24402069939E+01  0.72236381221E+01  0.11353428529E+02  0.13676106812E+02  0.51100000000E-03 0. -1.
        -11    1    3    3    0    0 -0.12611067512E+01  0.10962486829E+02  0.52295098786E+01  0.12211235873E+02  0.51100000000E-03 0.  1.
         12    1    3    3    0    0  0.21569643387E+02  0.85589313725E+01  0.82885324966E+01  0.24641521727E+02  0.00000000000E+00 0. -1.
</event>
<event>
 7    1  0.5479172E-013  0.5052882E+02  0.7816164E-02  0.1300439E+00
        -11   -1    0    0    0    0  0.00000000000E+00  0.00000000000E+00  0.45593999997E+02  0.45594000000E+02  0.51100000000E-03 0. -1.
         11   -1    0    0    0    0 -0.00000000000E+00 -0.00000000000E+00 -0.45593999997E+02  0.45594000000E+02  0.51100000000E-03 0.  1.
    9900012    2    1    2    0    0 -0.24014847098E+02 -0.25284769930E+02  0.20907815245E+02  0.50528816414E+02  0.29999867972E+02 0.  0.
         12    1    1    2    0    0  0.24014847098E+02  0.25284769930E+02 -0.20907815245E+02  0.40659183586E+02  0.00000000000E+00 0. -1.
         11    1    3    3    0    0 -0.62557044077E+01 -0.18570809520E+02  0.15059072318E+02  0.24714053961E+02  0.51100000000E-03 0. -1.
        -11    1    3    3    0    0 -0.77663044501E+01 -0.11503554221E+02  0.17054431733E+01  0.13984126044E+02  0.51100000000E-03 0.  1.
         12    1    3    3    0    0 -0.99928382404E+01  0.47895938118E+01  0.41432997543E+01  0.11830636409E+02  0.00000000000E+00 0. -1.
</event>
<event>
 7    1  0.5479172E-013  0.5052886E+02  0.7816164E-02  0.1300439E+00
        -11   -1    0    0    0    0  0.00000000000E+00  0.00000000000E+00  0.45593999997E+02  0.45594000000E+02  0.51100000000E-03 0.  1.
         11   -1    0    0    0    0 -0.00000000000E+00 -0.00000000000E+00 -0.45593999997E+02  0.45594000000E+02  0.51100000000E-03 0. -1.
    9900012    2    1    2    0    0  0.33506869658E+02 -0.21161674919E+00  0.23030645599E+02  0.50528859175E+02  0.29999997948E+02 0.  0.
         12    1    1    2    0    0 -0.33506869658E+02  0.21161674919E+00 -0.23030645599E+02  0.40659140825E+02  0.00000000000E+00 0. -1.
         11    1    3    3    0    0  0.62678006965E+01  0.17356195943E+01 -0.42430837650E+01  0.77654015379E+01  0.51100000000E-03 0. -1.
        -11    1    3    3    0    0  0.84910737278E+01 -0.67662014210E+01  0.21847666387E+01  0.11074882403E+02  0.51100000000E-03 0.  1.
        -12    1    3    3    0    0  0.18747995234E+02  0.48189650775E+01  0.25088962725E+02  0.31688575234E+02  0.00000000000E+00 0.  1.
</event>
<event>
 7    1  0.5479172E-013  0.5052886E+02  0.7816164E-02  0.1300439E+00
        -11   -1    0    0    0    0  0.00000000000E+00  0.00000000000E+00  0.45593999997E+02  0.45594000000E+02  0.51100000000E-03 0.  1.
         11   -1    0    0    0    0 -0.00000000000E+00 -0.00000000000E+00 -0.45593999997E+02  0.45594000000E+02  0.51100000000E-03 0. -1.
    9900012    2    1    2    0    0 -0.32686352963E+02  0.19869251276E+02  0.13783356202E+02  0.50528859275E+02  0.29999998252E+02 0.  0.
         12    1    1    2    0    0  0.32686352963E+02 -0.19869251276E+02 -0.13783356202E+02  0.40659140725E+02  0.00000000000E+00 0. -1.
         11    1    3    3    0    0 -0.22422141807E+01  0.14513177448E+02  0.18763751199E+01  0.14804750181E+02  0.51100000000E-03 0. -1.
        -11    1    3    3    0    0 -0.15263735973E+02  0.93060102243E+01  0.48448338312E+01  0.18521767660E+02  0.51100000000E-03 0.  1.
        -12    1    3    3    0    0 -0.15180402810E+02 -0.39499363968E+01  0.70621472506E+01  0.17202341434E+02  0.00000000000E+00 0.  1.
</event>
<event>
 7    1  0.5479172E-013  0.5052893E+02  0.7816164E-02  0.1300439E+00
        -11   -1    0    0    0    0  0.00000000000E+00  0.00000000000E+00  0.45593999997E+02  0.45594000000E+02  0.51100000000E-03 0. -1.
         11   -1    0    0    0    0 -0.00000000000E+00 -0.00000000000E+00 -0.45593999997E+02  0.45594000000E+02  0.51100000000E-03 0.  1.
    9900012    2    1    2    0    0 -0.23203743747E+02  0.33173505579E+02 -0.37768917699E+01  0.50528928347E+02  0.30000208202E+02 0.  0.
         12    1    1    2    0    0  0.23203743747E+02 -0.33173505579E+02  0.37768917699E+01  0.40659071653E+02  0.00000000000E+00 0. -1.
         11    1    3    3    0    0 -0.17950468475E+02  0.97273824000E+01  0.76655640271E+00  0.20431076717E+02  0.51100000000E-03 0. -1.
        -11    1    3    3    0    0 -0.10682439561E+02  0.12575972429E+02 -0.66053620627E+01  0.17773587307E+02  0.51100000000E-03 0.  1.
         12    1    3    3    0    0  0.54291642898E+01  0.10870150750E+02  0.20619138901E+01  0.12324264323E+02  0.00000000000E+00 0. -1.
</event>
<event>
 7    1  0.5479172E-013  0.5052886E+02  0.7816164E-02  0.1300439E+00
        -11   -1    0    0    0    0  0.00000000000E+00  0.00000000000E+00  0.45593999997E+02  0.45594000000E+02  0.51100000000E-03 0. -1.
         11   -1    0    0    0    0 -0.00000000000E+00 -0.00000000000E+00 -0.45593999997E+02  0.45594000000E+02  0.51100000000E-03 0.  1.
    9900012    2    1    2    0    0  0.20878685351E+02  0.22350004033E+02 -0.26790358689E+02  0.50528862024E+02  0.30000006609E+02 0.  0.
         12    1    1    2    0    0 -0.20878685351E+02 -0.22350004033E+02  0.26790358689E+02  0.40659137976E+02  0.00000000000E+00 0. -1.
         11    1    3    3    0    0  0.93481457000E+01  0.73045157698E+01 -0.44280312804E+01  0.12662987007E+02  0.51100000000E-03 0. -1.
        -11    1    3    3    0    0  0.83043168050E+01 -0.58734198683E+00  0.21648824264E+01  0.86019395713E+01  0.51100000000E-03 0.  1.
        -12    1    3    3    0    0  0.32262228456E+01  0.15632830250E+02 -0.24527209835E+02  0.29263935446E+02  0.00000000000E+00 0.  1.
</event>
<event>
 7    1  0.5479172E-013  0.5052886E+02  0.7816164E-02  0.1300439E+00
        -11   -1    0    0    0    0  0.00000000000E+00  0.00000000000E+00  0.45593999997E+02  0.45594000000E+02  0.51100000000E-03 0. -1.
         11   -1    0    0    0    0 -0.00000000000E+00 -0.00000000000E+00 -0.45593999997E+02  0.45594000000E+02  0.51100000000E-03 0.  1.
    9900012    2    1    2    0    0  0.27703964723E+02  0.21417982556E+02 -0.20662182622E+02  0.50528862911E+02  0.30000009303E+02 0.  0.
         12    1    1    2    0    0 -0.27703964723E+02 -0.21417982556E+02  0.20662182622E+02  0.40659137089E+02  0.00000000000E+00 0. -1.
         11    1    3    3    0    0 -0.18200196559E-01  0.84046460838E+01 -0.29475957572E+01  0.89065553415E+01  0.51100000000E-03 0. -1.
        -11    1    3    3    0    0  0.11856876108E+02  0.15917798032E+02 -0.15821357626E+02  0.25382615362E+02  0.51100000000E-03 0.  1.
         12    1    3    3    0    0  0.15865288812E+02 -0.29044615595E+01 -0.18932292387E+01  0.16239692207E+02  0.00000000000E+00 0. -1.
</event>
<event>
 7    1  0.5479172E-013  0.5052886E+02  0.7816164E-02  0.1300439E+00
        -11   -1    0    0    0    0  0.00000000000E+00  0.00000000000E+00  0.45593999997E+02  0.45594000000E+02  0.51100000000E-03 0. -1.
         11   -1    0    0    0    0 -0.00000000000E+00 -0.00000000000E+00 -0.45593999997E+02  0.45594000000E+02  0.51100000000E-03 0.  1.
    9900012    2    1    2    0    0  0.87638377407E+01  0.38155465889E+02  0.10978203700E+02  0.50528863442E+02  0.30000010919E+02 0.  0.
         12    1    1    2    0    0 -0.87638377407E+01 -0.38155465889E+02 -0.10978203700E+02  0.40659136558E+02  0.00000000000E+00 0. -1.
         11    1    3    3    0    0  0.90770557085E+01  0.15431760483E+02  0.94968476743E+01  0.20266284513E+02  0.51100000000E-03 0. -1.
        -11    1    3    3    0    0 -0.63851106180E+01  0.23070280736E+02  0.26014508935E+01  0.24078518182E+02  0.51100000000E-03 0.  1.
        -12    1    3    3    0    0  0.60718926503E+01 -0.34657532997E+00 -0.11200948682E+01  0.61840607475E+01  0.00000000000E+00 0.  1.
</event>
<event>
 7    1  0.5479172E-013  0.5052881E+02  0.7816164E-02  0.1300439E+00
        -11   -1    0    0    0    0  0.00000000000E+00  0.00000000000E+00  0.45593999997E+02  0.45594000000E+02  0.51100000000E-03 0. -1.
         11   -1    0    0    0    0 -0.00000000000E+00 -0.00000000000E+00 -0.45593999997E+02  0.45594000000E+02  0.51100000000E-03 0.  1.
    9900012    2    1    2    0    0 -0.48323312563E+01 -0.69810951222E+01 -0.39762830791E+02  0.50528808826E+02  0.29999844906E+02 0.  0.
         12    1    1    2    0    0  0.48323312563E+01  0.69810951222E+01  0.39762830791E+02  0.40659191174E+02  0.00000000000E+00 0. -1.
         11    1    3    3    0    0  0.97135987877E+00 -0.11849499889E+02 -0.16077552612E+02  0.19996046757E+02  0.51100000000E-03 0.  1.
        -11    1    3    3    0    0 -0.25938510208E+01  0.31128527388E+01  0.20484470226E+01  0.45402698991E+01  0.51100000000E-03 0. -1.
         12    1    3    3    0    0 -0.32098401143E+01  0.17555520282E+01 -0.25733725201E+02  0.25992492170E+02  0.00000000000E+00 0. -1.
</event>
<event>
 7    1  0.5479172E-013  0.5052886E+02  0.7816164E-02  0.1300439E+00
        -11   -1    0    0    0    0  0.00000000000E+00  0.00000000000E+00  0.45593999997E+02  0.45594000000E+02  0.51100000000E-03 0.  1.
         11   -1    0    0    0    0 -0.00000000000E+00 -0.00000000000E+00 -0.45593999997E+02  0.45594000000E+02  0.51100000000E-03 0. -1.
    9900012    2    1    2    0    0 -0.44730621583E+01 -0.95406974485E+00  0.40401083157E+02  0.50528855218E+02  0.29999985920E+02 0.  0.
         12    1    1    2    0    0  0.44730621583E+01  0.95406974485E+00 -0.40401083157E+02  0.40659144782E+02  0.00000000000E+00 0. -1.
         11    1    3    3    0    0  0.34218419971E+01 -0.27512676522E+01  0.13005878847E+02  0.13727030312E+02  0.51100000000E-03 0. -1.
        -11    1    3    3    0    0  0.58621508146E+01  0.75599334928E+01  0.12281251128E+02  0.15567483294E+02  0.51100000000E-03 0.  1.
         12    1    3    3    0    0 -0.13757054970E+02 -0.57627355855E+01  0.15113953182E+02  0.21234341611E+02  0.00000000000E+00 0. -1.
</event>
<event>
 7    1  0.5479172E-013  0.5052887E+02  0.7816164E-02  0.1300439E+00
        -11   -1    0    0    0    0  0.00000000000E+00  0.00000000000E+00  0.45593999997E+02  0.45594000000E+02  0.51100000000E-03 0.  1.
         11   -1    0    0    0    0 -0.00000000000E+00 -0.00000000000E+00 -0.45593999997E+02  0.45594000000E+02  0.51100000000E-03 0. -1.
    9900012    2    1    2    0    0  0.76467627977E+01  0.31785313952E+02  0.24174074560E+02  0.50528867629E+02  0.30000023644E+02 0.  0.
         12    1    1    2    0    0 -0.76467627977E+01 -0.31785313952E+02 -0.24174074560E+02  0.40659132371E+02  0.00000000000E+00 0. -1.
         11    1    3    3    0    0 -0.38236890691E+01  0.58175882534E+01  0.18023007144E+01  0.71911903959E+01  0.51100000000E-03 0. -1.
        -11    1    3    3    0    0 -0.34635994563E+01  0.20846577517E+02  0.14992971509E+02  0.25910721918E+02  0.51100000000E-03 0.  1.
         12    1    3    3    0    0  0.14934051323E+02  0.51211481819E+01  0.73788023367E+01  0.17426955315E+02  0.00000000000E+00 0. -1.
</event>
<event>
 7    1  0.5479172E-013  0.5052888E+02  0.7816164E-02  0.1300439E+00
        -11   -1    0    0    0    0  0.00000000000E+00  0.00000000000E+00  0.45593999997E+02  0.45594000000E+02  0.51100000000E-03 0.  1.
         11   -1    0    0    0    0 -0.00000000000E+00 -0.00000000000E+00 -0.45593999997E+02  0.45594000000E+02  0.51100000000E-03 0. -1.
    9900012    2    1    2    0    0 -0.27022357065E+01 -0.29605833916E+02  0.27737273228E+02  0.50528882870E+02  0.30000069972E+02 0.  0.
         12    1    1    2    0    0  0.27022357065E+01  0.29605833916E+02 -0.27737273228E+02  0.40659117130E+02  0.00000000000E+00 0. -1.
         11    1    3    3    0    0 -0.10818890263E+02 -0.31031852620E+01  0.71974343048E+01  0.13359685855E+02  0.51100000000E-03 0. -1.
        -11    1    3    3    0    0 -0.13055241252E+01 -0.30624365862E+01  0.86096374224E+01  0.92308595425E+01  0.51100000000E-03 0.  1.
         12    1    3    3    0    0  0.94221786820E+01 -0.23440212068E+02  0.11930201500E+02  0.27938337473E+02  0.00000000000E+00 0. -1.
</event>
<event>
 7    1  0.5479172E-013  0.5052887E+02  0.7816164E-02  0.1300439E+00
        -11   -1    0    0    0    0  0.00000000000E+00  0.00000000000E+00  0.45593999997E+02  0.45594000000E+02  0.51100000000E-03 0.  1.
         11   -1    0    0    0    0 -0.00000000000E+00 -0.00000000000E+00 -0.45593999997E+02  0.45594000000E+02  0.51100000000E-03 0. -1.
    9900012    2    1    2    0    0 -0.31612857066E+02 -0.18237063420E+02  0.17922103257E+02  0.50528868194E+02  0.30000025362E+02 0.  0.
         12    1    1    2    0    0  0.31612857066E+02  0.18237063420E+02 -0.17922103257E+02  0.40659131806E+02  0.00000000000E+00 0. -1.
         11    1    3    3    0    0 -0.31719560862E+01  0.26795179930E+00 -0.14054793462E+01  0.34797235570E+01  0.51100000000E-03 0. -1.
        -11    1    3    3    0    0 -0.21100769587E+02 -0.16372448422E+02  0.48152935197E+00  0.26712008822E+02  0.51100000000E-03 0.  1.
        -12    1    3    3    0    0 -0.73401313925E+01 -0.21325667973E+01  0.18846053252E+02  0.20337135815E+02  0.00000000000E+00 0.  1.
</event>
<event>
 7    1  0.5479172E-013  0.5052886E+02  0.7816164E-02  0.1300439E+00
        -11   -1    0    0    0    0  0.00000000000E+00  0.00000000000E+00  0.45593999997E+02  0.45594000000E+02  0.51100000000E-03 0. -1.
         11   -1    0    0    0    0 -0.00000000000E+00 -0.00000000000E+00 -0.45593999997E+02  0.45594000000E+02  0.51100000000E-03 0.  1.
    9900012    2    1    2    0    0 -0.32459925357E+02  0.24388149827E+02  0.21764600122E+01  0.50528860998E+02  0.30000003491E+02 0.  0.
         12    1    1    2    0    0  0.32459925357E+02 -0.24388149827E+02 -0.21764600122E+01  0.40659139002E+02  0.00000000000E+00 0. -1.
         11    1    3    3    0    0 -0.13359072640E+02  0.90355650734E+01  0.10300120420E+02  0.19136319890E+02  0.51100000000E-03 0. -1.
        -11    1    3    3    0    0  0.18206576216E+01  0.77772466477E+01 -0.31928324434E+01  0.86020078392E+01  0.51100000000E-03 0.  1.
         12    1    3    3    0    0 -0.20921510339E+02  0.75753381062E+01 -0.49308279648E+01  0.22790533269E+02  0.00000000000E+00 0. -1.
</event>
<event>
 7    1  0.5479172E-013  0.5052886E+02  0.7816164E-02  0.1300439E+00
        -11   -1    0    0    0    0  0.00000000000E+00  0.00000000000E+00  0.45593999997E+02  0.45594000000E+02  0.51100000000E-03 0.  1.
         11   -1    0    0    0    0 -0.00000000000E+00 -0.00000000000E+00 -0.45593999997E+02  0.45594000000E+02  0.51100000000E-03 0. -1.
    9900012    2    1    2    0    0  0.19713899212E+02 -0.34167709329E+02  0.98536882514E+01  0.50528863818E+02  0.30000012060E+02 0.  0.
         12    1    1    2    0    0 -0.19713899212E+02  0.34167709329E+02 -0.98536882514E+01  0.40659136182E+02  0.00000000000E+00 0. -1.
         11    1    3    3    0    0  0.75538743558E+01 -0.43112013856E+01  0.23228290758E+01  0.90023891466E+01  0.51100000000E-03 0. -1.
        -11    1    3    3    0    0  0.63983859121E+01  0.30172756302E+01 -0.82339345330E+00  0.71218867969E+01  0.51100000000E-03 0.  1.
        -12    1    3    3    0    0  0.57616389438E+01 -0.32873783574E+02  0.83542526289E+01  0.34404587874E+02  0.00000000000E+00 0.  1.
</event>
<event>
 7    1  0.5479172E-013  0.5052886E+02  0.7816164E-02  0.1300439E+00
        -11   -1    0    0    0    0  0.00000000000E+00  0.00000000000E+00  0.45593999997E+02  0.45594000000E+02  0.51100000000E-03 0. -1.
         11   -1    0    0    0    0 -0.00000000000E+00 -0.00000000000E+00 -0.45593999997E+02  0.45594000000E+02  0.51100000000E-03 0.  1.
    9900012    2    1    2    0    0 -0.60119511725E+01  0.37843145276E+02 -0.13598479339E+02  0.50528857835E+02  0.29999993876E+02 0.  0.
         12    1    1    2    0    0  0.60119511725E+01 -0.37843145276E+02  0.13598479339E+02  0.40659142165E+02  0.00000000000E+00 0. -1.
         11    1    3    3    0    0  0.11353631705E+01  0.35618216536E+01  0.48233466583E+01  0.61024827954E+01  0.51100000000E-03 0. -1.
        -11    1    3    3    0    0  0.52946563712E+01  0.23038108364E+02 -0.10106459228E+02  0.25708526629E+02  0.51100000000E-03 0.  1.
        -12    1    3    3    0    0 -0.12441970714E+02  0.11243215258E+02 -0.83153667697E+01  0.18717848410E+02  0.00000000000E+00 0.  1.
</event>
<event>
 7    1  0.5479172E-013  0.5052886E+02  0.7816164E-02  0.1300439E+00
        -11   -1    0    0    0    0  0.00000000000E+00  0.00000000000E+00  0.45593999997E+02  0.45594000000E+02  0.51100000000E-03 0.  1.
         11   -1    0    0    0    0 -0.00000000000E+00 -0.00000000000E+00 -0.45593999997E+02  0.45594000000E+02  0.51100000000E-03 0. -1.
    9900012    2    1    2    0    0  0.31030979323E+02  0.74767773236E+01  0.25186141890E+02  0.50528860557E+02  0.30000002149E+02 0.  0.
         12    1    1    2    0    0 -0.31030979323E+02 -0.74767773236E+01 -0.25186141890E+02  0.40659139443E+02  0.00000000000E+00 0. -1.
         11    1    3    3    0    0  0.12796497596E+02  0.15889835400E+02  0.15749337724E+02  0.25773607795E+02  0.51100000000E-03 0. -1.
        -11    1    3    3    0    0  0.63561499318E+01  0.22621327728E+01  0.14571433525E+01  0.69022571416E+01  0.51100000000E-03 0.  1.
        -12    1    3    3    0    0  0.11878331795E+02 -0.10675190849E+02  0.79796608137E+01  0.17852995620E+02  0.00000000000E+00 0.  1.
</event>
<event>
 7    1  0.5479172E-013  0.5052886E+02  0.7816164E-02  0.1300439E+00
        -11   -1    0    0    0    0  0.00000000000E+00  0.00000000000E+00  0.45593999997E+02  0.45594000000E+02  0.51100000000E-03 0. -1.
         11   -1    0    0    0    0 -0.00000000000E+00 -0.00000000000E+00 -0.45593999997E+02  0.45594000000E+02  0.51100000000E-03 0.  1.
    9900012    2    1    2    0    0  0.21918496711E+02 -0.19432301403E+02 -0.28198071263E+02  0.50528855164E+02  0.29999985755E+02 0.  0.
         12    1    1    2    0    0 -0.21918496711E+02  0.19432301403E+02  0.28198071263E+02  0.40659144836E+02  0.00000000000E+00 0. -1.
         11    1    3    3    0    0  0.25609832734E+01 -0.12150370029E+02 -0.30670139009E+01  0.12790492629E+02  0.51100000000E-03 0. -1.
        -11    1    3    3    0    0 -0.13461999666E+01 -0.30136281277E+01 -0.12900534923E+02  0.13316080895E+02  0.51100000000E-03 0.  1.
         12    1    3    3    0    0  0.20703713405E+02 -0.42683032457E+01 -0.12230522439E+02  0.24422281639E+02  0.00000000000E+00 0. -1.
</event>
<event>
 7    1  0.5479172E-013  0.5052890E+02  0.7816164E-02  0.1300439E+00
        -11   -1    0    0    0    0  0.00000000000E+00  0.00000000000E+00  0.45593999997E+02  0.45594000000E+02  0.51100000000E-03 0.  1.
         11   -1    0    0    0    0 -0.00000000000E+00 -0.00000000000E+00 -0.45593999997E+02  0.45594000000E+02  0.51100000000E-03 0. -1.
    9900012    2    1    2    0    0 -0.56605340448E+00  0.26672763793E+02  0.30682339662E+02  0.50528896321E+02  0.30000110858E+02 0.  0.
         12    1    1    2    0    0  0.56605340448E+00 -0.26672763793E+02 -0.30682339662E+02  0.40659103679E+02  0.00000000000E+00 0. -1.
         11    1    3    3    0    0  0.26410486848E+01 -0.19164741149E+01  0.12215526702E+01  0.34842793194E+01  0.51100000000E-03 0. -1.
        -11    1    3    3    0    0 -0.22520177795E+01 -0.95875190220E+00  0.12957736361E+02  0.13186876853E+02  0.51100000000E-03 0.  1.
         12    1    3    3    0    0 -0.95508430982E+00  0.29547989810E+02  0.16503050631E+02  0.33857740149E+02  0.00000000000E+00 0. -1.
</event>
<event>
 7    1  0.5479172E-013  0.5052887E+02  0.7816164E-02  0.1300439E+00
        -11   -1    0    0    0    0  0.00000000000E+00  0.00000000000E+00  0.45593999997E+02  0.45594000000E+02  0.51100000000E-03 0. -1.
         11   -1    0    0    0    0 -0.00000000000E+00 -0.00000000000E+00 -0.45593999997E+02  0.45594000000E+02  0.51100000000E-03 0.  1.
    9900012    2    1    2    0    0 -0.19289211811E+02 -0.62908685863E+01 -0.35235156869E+02  0.50528868191E+02  0.30000025353E+02 0.  0.
         12    1    1    2    0    0  0.19289211811E+02  0.62908685863E+01  0.35235156869E+02  0.40659131809E+02  0.00000000000E+00 0. -1.
         11    1    3    3    0    0 -0.13800254614E+02 -0.75273883067E+01 -0.40346643420E+01  0.16229205734E+02  0.51100000000E-03 0. -1.
        -11    1    3    3    0    0 -0.33429334627E+01 -0.58747014298E+01 -0.16447518677E+02  0.17782243725E+02  0.51100000000E-03 0.  1.
         12    1    3    3    0    0 -0.21460237339E+01  0.71112211502E+01 -0.14752973851E+02  0.16517418732E+02  0.00000000000E+00 0. -1.
</event>
<event>
 7    1  0.5479172E-013  0.5052886E+02  0.7816164E-02  0.1300439E+00
        -11   -1    0    0    0    0  0.00000000000E+00  0.00000000000E+00  0.45593999997E+02  0.45594000000E+02  0.51100000000E-03 0.  1.
         11   -1    0    0    0    0 -0.00000000000E+00 -0.00000000000E+00 -0.45593999997E+02  0.45594000000E+02  0.51100000000E-03 0. -1.
    9900012    2    1    2    0    0  0.25411479319E+01  0.35516444319E+02  0.19628809219E+02  0.50528863250E+02  0.30000010334E+02 0.  0.
         12    1    1    2    0    0 -0.25411479319E+01 -0.35516444319E+02 -0.19628809219E+02  0.40659136750E+02  0.00000000000E+00 0. -1.
         11    1    3    3    0    0 -0.59754107522E+01  0.49108811806E+01  0.93977271703E+01  0.12171259748E+02  0.51100000000E-03 0. -1.
        -11    1    3    3    0    0  0.34424626428E+01  0.69583197082E-01  0.62664087627E+01  0.71500538397E+01  0.51100000000E-03 0.  1.
        -12    1    3    3    0    0  0.50740960413E+01  0.30535979942E+02  0.39646732863E+01  0.31207549662E+02  0.00000000000E+00 0.  1.
</event>
<event>
 7    1  0.5479172E-013  0.5052885E+02  0.7816164E-02  0.1300439E+00
        -11   -1    0    0    0    0  0.00000000000E+00  0.00000000000E+00  0.45593999997E+02  0.45594000000E+02  0.51100000000E-03 0.  1.
         11   -1    0    0    0    0 -0.00000000000E+00 -0.00000000000E+00 -0.45593999997E+02  0.45594000000E+02  0.51100000000E-03 0. -1.
    9900012    2    1    2    0    0  0.39914479886E+02  0.75271148911E+01  0.18285034762E+01  0.50528848655E+02  0.29999965971E+02 0.  0.
         12    1    1    2    0    0 -0.39914479886E+02 -0.75271148911E+01 -0.18285034762E+01  0.40659151345E+02  0.00000000000E+00 0. -1.
         11    1    3    3    0    0  0.26182305868E+02  0.37806394549E+01  0.67561035102E+01  0.27302954238E+02  0.51100000000E-03 0. -1.
        -11    1    3    3    0    0  0.54552441790E+01  0.23736759964E+01  0.66532661413E+01  0.89252438284E+01  0.51100000000E-03 0.  1.
         12    1    3    3    0    0  0.82769298391E+01  0.13727994398E+01 -0.11580866175E+02  0.14300650588E+02  0.00000000000E+00 0. -1.
</event>
<event>
 7    1  0.5479172E-013  0.5052886E+02  0.7816164E-02  0.1300439E+00
        -11   -1    0    0    0    0  0.00000000000E+00  0.00000000000E+00  0.45593999997E+02  0.45594000000E+02  0.51100000000E-03 0.  1.
         11   -1    0    0    0    0 -0.00000000000E+00 -0.00000000000E+00 -0.45593999997E+02  0.45594000000E+02  0.51100000000E-03 0. -1.
    9900012    2    1    2    0    0 -0.39843355461E+02  0.72564179522E+01  0.36079505503E+01  0.50528857325E+02  0.29999992326E+02 0.  0.
         12    1    1    2    0    0  0.39843355461E+02 -0.72564179522E+01 -0.36079505503E+01  0.40659142675E+02  0.00000000000E+00 0. -1.
         11    1    3    3    0    0 -0.17473082798E+02 -0.46031643614E+01 -0.52361723390E+01  0.18812635265E+02  0.51100000000E-03 0. -1.
        -11    1    3    3    0    0 -0.19922086194E+02  0.17826256315E+01  0.69488468548E+01  0.21174365288E+02  0.51100000000E-03 0.  1.
        -12    1    3    3    0    0 -0.24481864688E+01  0.10076956682E+02  0.18952760346E+01  0.10541856772E+02  0.00000000000E+00 0.  1.
</event>
<event>
 7    1  0.5479172E-013  0.5052886E+02  0.7816164E-02  0.1300439E+00
        -11   -1    0    0    0    0  0.00000000000E+00  0.00000000000E+00  0.45593999997E+02  0.45594000000E+02  0.51100000000E-03 0.  1.
         11   -1    0    0    0    0 -0.00000000000E+00 -0.00000000000E+00 -0.45593999997E+02  0.45594000000E+02  0.51100000000E-03 0. -1.
    9900012    2    1    2    0    0 -0.32312477629E+02  0.23965219116E+02  0.58938991849E+01  0.50528856067E+02  0.29999988501E+02 0.  0.
         12    1    1    2    0    0  0.32312477629E+02 -0.23965219116E+02 -0.58938991849E+01  0.40659143933E+02  0.00000000000E+00 0. -1.
         11    1    3    3    0    0 -0.60800290887E+01  0.25512466082E+01 -0.18308571522E+01  0.68430732240E+01  0.51100000000E-03 0. -1.
        -11    1    3    3    0    0 -0.10966685898E+02  0.36195686363E+01 -0.92038865374E+01  0.14767565959E+02  0.51100000000E-03 0.  1.
        -12    1    3    3    0    0 -0.15265762641E+02  0.17794403871E+02  0.16928642875E+02  0.28918216884E+02  0.00000000000E+00 0.  1.
</event>
<event>
 7    1  0.5479172E-013  0.5052886E+02  0.7816164E-02  0.1300439E+00
        -11   -1    0    0    0    0  0.00000000000E+00  0.00000000000E+00  0.45593999997E+02  0.45594000000E+02  0.51100000000E-03 0.  1.
         11   -1    0    0    0    0 -0.00000000000E+00 -0.00000000000E+00 -0.45593999997E+02  0.45594000000E+02  0.51100000000E-03 0. -1.
    9900012    2    1    2    0    0 -0.43730939909E+01 -0.13268900915E+02  0.38183476233E+02  0.50528861546E+02  0.30000005156E+02 0.  0.
         12    1    1    2    0    0  0.43730939909E+01  0.13268900915E+02 -0.38183476233E+02  0.40659138454E+02  0.00000000000E+00 0. -1.
         11    1    3    3    0    0 -0.28173229026E+01 -0.91061576671E+01  0.22232613353E+01  0.97878652944E+01  0.51100000000E-03 0. -1.
        -11    1    3    3    0    0 -0.34573925637E+01 -0.99518051045E+01  0.11775433427E+02  0.15800405717E+02  0.51100000000E-03 0.  1.
        -12    1    3    3    0    0  0.19016214754E+01  0.57890618565E+01  0.24184781471E+02  0.24940590535E+02  0.00000000000E+00 0.  1.
</event>
<event>
 7    1  0.5479172E-013  0.5052892E+02  0.7816164E-02  0.1300439E+00
        -11   -1    0    0    0    0  0.00000000000E+00  0.00000000000E+00  0.45593999997E+02  0.45594000000E+02  0.51100000000E-03 0. -1.
         11   -1    0    0    0    0 -0.00000000000E+00 -0.00000000000E+00 -0.45593999997E+02  0.45594000000E+02  0.51100000000E-03 0.  1.
    9900012    2    1    2    0    0 -0.26226231856E+02 -0.27724146204E+02 -0.14025604299E+02  0.50528916193E+02  0.30000171259E+02 0.  0.
         12    1    1    2    0    0  0.26226231856E+02  0.27724146204E+02  0.14025604299E+02  0.40659083807E+02  0.00000000000E+00 0. -1.
         11    1    3    3    0    0 -0.26549634944E+01 -0.19795392613E+01  0.39502165208E+01  0.51547664996E+01  0.51100000000E-03 0. -1.
        -11    1    3    3    0    0 -0.20172528762E+02 -0.15581810325E+02 -0.12630863126E+01  0.25520954468E+02  0.51100000000E-03 0.  1.
        -12    1    3    3    0    0 -0.33987395996E+01 -0.10162796618E+02 -0.16712734507E+02  0.19853195226E+02  0.00000000000E+00 0.  1.
</event>
<event>
 7    1  0.5479172E-013  0.5052886E+02  0.7816164E-02  0.1300439E+00
        -11   -1    0    0    0    0  0.00000000000E+00  0.00000000000E+00  0.45593999997E+02  0.45594000000E+02  0.51100000000E-03 0.  1.
         11   -1    0    0    0    0 -0.00000000000E+00 -0.00000000000E+00 -0.45593999997E+02  0.45594000000E+02  0.51100000000E-03 0. -1.
    9900012    2    1    2    0    0 -0.27776967360E+02 -0.66765734117E+01  0.28931456804E+02  0.50528859072E+02  0.29999997634E+02 0.  0.
         12    1    1    2    0    0  0.27776967360E+02  0.66765734117E+01 -0.28931456804E+02  0.40659140928E+02  0.00000000000E+00 0. -1.
         11    1    3    3    0    0 -0.18622159752E+00 -0.59317518788E+01  0.18855111032E+02  0.19767032431E+02  0.51100000000E-03 0. -1.
        -11    1    3    3    0    0 -0.96351570392E+01  0.29690140723E+01  0.67333795357E+01  0.12123930714E+02  0.51100000000E-03 0.  1.
        -12    1    3    3    0    0 -0.17955588723E+02 -0.37138356052E+01  0.33429662363E+01  0.18637895926E+02  0.00000000000E+00 0.  1.
</event>
<event>
 7    1  0.5479172E-013  0.5052885E+02  0.7816164E-02  0.1300439E+00
        -11   -1    0    0    0    0  0.00000000000E+00  0.00000000000E+00  0.45593999997E+02  0.45594000000E+02  0.51100000000E-03 0.  1.
         11   -1    0    0    0    0 -0.00000000000E+00 -0.00000000000E+00 -0.45593999997E+02  0.45594000000E+02  0.51100000000E-03 0. -1.
    9900012    2    1    2    0    0  0.36205925669E+02 -0.17801855403E+02 -0.50389736212E+01  0.50528851405E+02  0.29999974330E+02 0.  0.
         12    1    1    2    0    0 -0.36205925669E+02  0.17801855403E+02  0.50389736212E+01  0.40659148595E+02  0.00000000000E+00 0. -1.
         11    1    3    3    0    0  0.13923329063E+02 -0.94057088736E+01  0.16742862231E+01  0.16885783554E+02  0.51100000000E-03 0. -1.
        -11    1    3    3    0    0  0.23047488971E+02 -0.13697276262E+02 -0.26916156248E+01  0.26945257835E+02  0.51100000000E-03 0.  1.
         12    1    3    3    0    0 -0.76489236519E+00  0.53011297330E+01 -0.40216442195E+01  0.66978100155E+01  0.00000000000E+00 0. -1.
</event>
<event>
 7    1  0.5479172E-013  0.5052886E+02  0.7816164E-02  0.1300439E+00
        -11   -1    0    0    0    0  0.00000000000E+00  0.00000000000E+00  0.45593999997E+02  0.45594000000E+02  0.51100000000E-03 0.  1.
         11   -1    0    0    0    0 -0.00000000000E+00 -0.00000000000E+00 -0.45593999997E+02  0.45594000000E+02  0.51100000000E-03 0. -1.
    9900012    2    1    2    0    0 -0.14907827934E+02 -0.15658370918E+02  0.34434546513E+02  0.50528857030E+02  0.29999991427E+02 0.  0.
         12    1    1    2    0    0  0.14907827934E+02  0.15658370918E+02 -0.34434546513E+02  0.40659142970E+02  0.00000000000E+00 0. -1.
         11    1    3    3    0    0 -0.21341838798E+02 -0.54463488511E+01  0.14297898466E+02  0.26259602051E+02  0.51100000000E-03 0. -1.
        -11    1    3    3    0    0  0.30264184060E+01 -0.10603974972E+01  0.23414084939E+01  0.39706227744E+01  0.51100000000E-03 0.  1.
        -12    1    3    3    0    0  0.34075924571E+01 -0.91516245693E+01  0.17795239553E+02  0.20298632204E+02  0.00000000000E+00 0.  1.
</event>
<event>
 7    1  0.5479172E-013  0.5052886E+02  0.7816164E-02  0.1300439E+00
        -11   -1    0    0    0    0  0.00000000000E+00  0.00000000000E+00  0.45593999997E+02  0.45594000000E+02  0.51100000000E-03 0. -1.
         11   -1    0    0    0    0 -0.00000000000E+00 -0.00000000000E+00 -0.45593999997E+02  0.45594000000E+02  0.51100000000E-03 0.  1.
    9900012    2    1    2    0    0  0.16587169917E+02 -0.30879315537E+02 -0.20603373860E+02  0.50528863901E+02  0.30000012315E+02 0.  0.
         12    1    1    2    0    0 -0.16587169917E+02  0.30879315537E+02  0.20603373860E+02  0.40659136099E+02  0.00000000000E+00 0. -1.
         11    1    3    3    0    0  0.47417531317E+01 -0.16520353351E+02  0.63767845693E+00  0.17199213113E+02  0.51100000000E-03 0. -1.
        -11    1    3    3    0    0 -0.57970151742E+00 -0.93014762984E+01 -0.14665653688E+01  0.94342105881E+01  0.51100000000E-03 0.  1.
         12    1    3    3    0    0  0.12425118302E+02 -0.50574858871E+01 -0.19774486948E+02  0.23895440201E+02  0.00000000000E+00 0. -1.
</event>
<event>
 7    1  0.5479172E-013  0.5052886E+02  0.7816164E-02  0.1300439E+00
        -11   -1    0    0    0    0  0.00000000000E+00  0.00000000000E+00  0.45593999997E+02  0.45594000000E+02  0.51100000000E-03 0.  1.
         11   -1    0    0    0    0 -0.00000000000E+00 -0.00000000000E+00 -0.45593999997E+02  0.45594000000E+02  0.51100000000E-03 0. -1.
    9900012    2    1    2    0    0  0.20835513995E+02 -0.31116663928E+02  0.15836685202E+02  0.50528855695E+02  0.29999987370E+02 0.  0.
         12    1    1    2    0    0 -0.20835513995E+02  0.31116663928E+02 -0.15836685202E+02  0.40659144305E+02  0.00000000000E+00 0. -1.
         11    1    3    3    0    0  0.74216888902E+01 -0.62985132018E+01 -0.37707918793E+01  0.10438946604E+02  0.51100000000E-03 0. -1.
        -11    1    3    3    0    0  0.27643229107E+01 -0.73818035474E+01 -0.40245021640E+01  0.88503741558E+01  0.51100000000E-03 0.  1.
        -12    1    3    3    0    0  0.10649502194E+02 -0.17436347179E+02  0.23631979245E+02  0.31239534935E+02  0.00000000000E+00 0.  1.
</event>
<event>
 7    1  0.5479172E-013  0.5052886E+02  0.7816164E-02  0.1300439E+00
        -11   -1    0    0    0    0  0.00000000000E+00  0.00000000000E+00  0.45593999997E+02  0.45594000000E+02  0.51100000000E-03 0.  1.
         11   -1    0    0    0    0 -0.00000000000E+00 -0.00000000000E+00 -0.45593999997E+02  0.45594000000E+02  0.51100000000E-03 0. -1.
    9900012    2    1    2    0    0 -0.20657039102E+02  0.90937650935E+01  0.33819461859E+02  0.50528857996E+02  0.29999994366E+02 0.  0.
         12    1    1    2    0    0  0.20657039102E+02 -0.90937650935E+01 -0.33819461859E+02  0.40659142004E+02  0.00000000000E+00 0. -1.
         11    1    3    3    0    0  0.14678465551E+01  0.80031887390E+01  0.44853672210E+01  0.92910775947E+01  0.51100000000E-03 0. -1.
        -11    1    3    3    0    0 -0.22572087014E+01 -0.57245577853E+01  0.14395443562E+01  0.63196393231E+01  0.51100000000E-03 0.  1.
        -12    1    3    3    0    0 -0.19867676955E+02  0.68151341398E+01  0.27894550282E+02  0.34918141079E+02  0.00000000000E+00 0.  1.
</event>
<event>
 7    1  0.5479172E-013  0.5052886E+02  0.7816164E-02  0.1300439E+00
        -11   -1    0    0    0    0  0.00000000000E+00  0.00000000000E+00  0.45593999997E+02  0.45594000000E+02  0.51100000000E-03 0. -1.
         11   -1    0    0    0    0 -0.00000000000E+00 -0.00000000000E+00 -0.45593999997E+02  0.45594000000E+02  0.51100000000E-03 0.  1.
    9900012    2    1    2    0    0  0.36324379823E+02 -0.47268581996E+01 -0.17645440704E+02  0.50528864058E+02  0.30000012790E+02 0.  0.
         12    1    1    2    0    0 -0.36324379823E+02  0.47268581996E+01  0.17645440704E+02  0.40659135942E+02  0.00000000000E+00 0. -1.
         11    1    3    3    0    0  0.48558372573E+01  0.96350519400E+00 -0.12974414597E+02  0.13886789842E+02  0.51100000000E-03 0. -1.
        -11    1    3    3    0    0  0.25332909591E+01  0.30466531408E+01 -0.50440570716E+01  0.64142162769E+01  0.51100000000E-03 0.  1.
        -12    1    3    3    0    0  0.28935251606E+02 -0.87370165344E+01  0.37303096501E+00  0.30227857938E+02  0.00000000000E+00 0.  1.
</event>
<event>
 7    1  0.5479172E-013  0.5052887E+02  0.7816164E-02  0.1300439E+00
        -11   -1    0    0    0    0  0.00000000000E+00  0.00000000000E+00  0.45593999997E+02  0.45594000000E+02  0.51100000000E-03 0.  1.
         11   -1    0    0    0    0 -0.00000000000E+00 -0.00000000000E+00 -0.45593999997E+02  0.45594000000E+02  0.51100000000E-03 0. -1.
    9900012    2    1    2    0    0 -0.25546131543E+02  0.78269400035E-01  0.31631536860E+02  0.50528867114E+02  0.30000022079E+02 0.  0.
         12    1    1    2    0    0  0.25546131543E+02 -0.78269400035E-01 -0.31631536860E+02  0.40659132886E+02  0.00000000000E+00 0. -1.
         11    1    3    3    0    0  0.45970860176E+01  0.19956170472E+01  0.16365744130E+01  0.52720075230E+01  0.51100000000E-03 0. -1.
        -11    1    3    3    0    0 -0.15639871304E+02  0.65636764115E+01  0.17024761142E+02  0.24031852086E+02  0.51100000000E-03 0.  1.
        -12    1    3    3    0    0 -0.14503346256E+02 -0.84810240586E+01  0.12970201305E+02  0.21225007505E+02  0.00000000000E+00 0.  1.
</event>
<event>
 7    1  0.5479172E-013  0.5052884E+02  0.7816164E-02  0.1300439E+00
        -11   -1    0    0    0    0  0.00000000000E+00  0.00000000000E+00  0.45593999997E+02  0.45594000000E+02  0.51100000000E-03 0.  1.
         11   -1    0    0    0    0 -0.00000000000E+00 -0.00000000000E+00 -0.45593999997E+02  0.45594000000E+02  0.51100000000E-03 0. -1.
    9900012    2    1    2    0    0  0.31346466326E+02  0.10085802898E+02  0.23850423276E+02  0.50528842831E+02  0.29999948270E+02 0.  0.
         12    1    1    2    0    0 -0.31346466326E+02 -0.10085802898E+02 -0.23850423276E+02  0.40659157169E+02  0.00000000000E+00 0. -1.
         11    1    3    3    0    0  0.62757668834E+01  0.30465181170E+01  0.44816777484E+01  0.82916800657E+01  0.51100000000E-03 0.  1.
        -11    1    3    3    0    0  0.22513496543E+02 -0.66380640390E+01  0.10326841733E+02  0.25643031826E+02  0.51100000000E-03 0. -1.
         12    1    3    3    0    0  0.25572028996E+01  0.13677348820E+02  0.90419037949E+01  0.16594130940E+02  0.00000000000E+00 0. -1.
</event>
<event>
 7    1  0.5479172E-013  0.5052885E+02  0.7816164E-02  0.1300439E+00
        -11   -1    0    0    0    0  0.00000000000E+00  0.00000000000E+00  0.45593999997E+02  0.45594000000E+02  0.51100000000E-03 0.  1.
         11   -1    0    0    0    0 -0.00000000000E+00 -0.00000000000E+00 -0.45593999997E+02  0.45594000000E+02  0.51100000000E-03 0. -1.
    9900012    2    1    2    0    0  0.19488029072E+02  0.15699136333E+02  0.32045599474E+02  0.50528848455E+02  0.29999965363E+02 0.  0.
         12    1    1    2    0    0 -0.19488029072E+02 -0.15699136333E+02 -0.32045599474E+02  0.40659151545E+02  0.00000000000E+00 0. -1.
         11    1    3    3    0    0  0.22515391871E+01 -0.46433859806E+01  0.32879780356E+00  0.51709351507E+01  0.51100000000E-03 0. -1.
        -11    1    3    3    0    0  0.20060493631E+02  0.15391525065E+02  0.19684077158E+02  0.32043491420E+02  0.51100000000E-03 0.  1.
         12    1    3    3    0    0 -0.28240037466E+01  0.49509972489E+01  0.12032724512E+02  0.13314421884E+02  0.00000000000E+00 0. -1.
</event>
<event>
 7    1  0.5479172E-013  0.5052886E+02  0.7816164E-02  0.1300439E+00
        -11   -1    0    0    0    0  0.00000000000E+00  0.00000000000E+00  0.45593999997E+02  0.45594000000E+02  0.51100000000E-03 0. -1.
         11   -1    0    0    0    0 -0.00000000000E+00 -0.00000000000E+00 -0.45593999997E+02  0.45594000000E+02  0.51100000000E-03 0.  1.
    9900012    2    1    2    0    0  0.28258507121E+02 -0.14194888354E+01 -0.29199444558E+02  0.50528859136E+02  0.29999997831E+02 0.  0.
         12    1    1    2    0    0 -0.28258507121E+02  0.14194888354E+01  0.29199444558E+02  0.40659140864E+02  0.00000000000E+00 0. -1.
         11    1    3    3    0    0  0.89817341219E+01  0.40106126756E+01 -0.14785365851E+02  0.17758479819E+02  0.51100000000E-03 0. -1.
        -11    1    3    3    0    0  0.16002788043E+02  0.55351931623E+01 -0.12771634422E+02  0.21209484543E+02  0.51100000000E-03 0.  1.
         12    1    3    3    0    0  0.32739849564E+01 -0.10965294673E+02 -0.16424442853E+01  0.11560894775E+02  0.00000000000E+00 0. -1.
</event>
<event>
 7    1  0.5479172E-013  0.5052887E+02  0.7816164E-02  0.1300439E+00
        -11   -1    0    0    0    0  0.00000000000E+00  0.00000000000E+00  0.45593999997E+02  0.45594000000E+02  0.51100000000E-03 0.  1.
         11   -1    0    0    0    0 -0.00000000000E+00 -0.00000000000E+00 -0.45593999997E+02  0.45594000000E+02  0.51100000000E-03 0. -1.
    9900012    2    1    2    0    0  0.31236591997E+02  0.98346232991E+01  0.24098146716E+02  0.50528866092E+02  0.30000018972E+02 0.  0.
         12    1    1    2    0    0 -0.31236591997E+02 -0.98346232991E+01 -0.24098146716E+02  0.40659133908E+02  0.00000000000E+00 0. -1.
         11    1    3    3    0    0  0.58960145929E+01  0.58699346525E+01  0.62990348963E+00  0.83436142991E+01  0.51100000000E-03 0. -1.
        -11    1    3    3    0    0  0.13080345601E+02  0.14032783080E+02  0.13253972485E+02  0.23316994423E+02  0.51100000000E-03 0.  1.
        -12    1    3    3    0    0  0.12260231803E+02 -0.10068094434E+02  0.10214270741E+02  0.18868257370E+02  0.00000000000E+00 0.  1.
</event>
<event>
 7    1  0.5479172E-013  0.5052886E+02  0.7816164E-02  0.1300439E+00
        -11   -1    0    0    0    0  0.00000000000E+00  0.00000000000E+00  0.45593999997E+02  0.45594000000E+02  0.51100000000E-03 0. -1.
         11   -1    0    0    0    0 -0.00000000000E+00 -0.00000000000E+00 -0.45593999997E+02  0.45594000000E+02  0.51100000000E-03 0.  1.
    9900012    2    1    2    0    0 -0.34537780120E+02 -0.17032514393E+02 -0.13046105347E+02  0.50528859984E+02  0.30000000406E+02 0.  0.
         12    1    1    2    0    0  0.34537780120E+02  0.17032514393E+02  0.13046105347E+02  0.40659140016E+02  0.00000000000E+00 0. -1.
         11    1    3    3    0    0  0.35644472543E+01 -0.56895616074E+01 -0.30115380707E+01  0.73583800748E+01  0.51100000000E-03 0. -1.
        -11    1    3    3    0    0 -0.30774641196E+01  0.28481638373E+01 -0.81605363789E+00  0.42718574944E+01  0.51100000000E-03 0.  1.
        -12    1    3    3    0    0 -0.35024763254E+02 -0.14191116623E+02 -0.92185136385E+01  0.38898622414E+02  0.00000000000E+00 0.  1.
</event>
<event>
 7    1  0.5479172E-013  0.5052886E+02  0.7816164E-02  0.1300439E+00
        -11   -1    0    0    0    0  0.00000000000E+00  0.00000000000E+00  0.45593999997E+02  0.45594000000E+02  0.51100000000E-03 0.  1.
         11   -1    0    0    0    0 -0.00000000000E+00 -0.00000000000E+00 -0.45593999997E+02  0.45594000000E+02  0.51100000000E-03 0. -1.
    9900012    2    1    2    0    0  0.47823082440E+01  0.39932740227E+02  0.59725348535E+01  0.50528863429E+02  0.30000010878E+02 0.  0.
         12    1    1    2    0    0 -0.47823082440E+01 -0.39932740227E+02 -0.59725348535E+01  0.40659136571E+02  0.00000000000E+00 0. -1.
         11    1    3    3    0    0  0.28152178285E+01  0.15557415472E+02 -0.19130329481E+01  0.15925398673E+02  0.51100000000E-03 0. -1.
        -11    1    3    3    0    0  0.39310322318E+01  0.14421192400E+02 -0.70668225810E+01  0.16533716651E+02  0.51100000000E-03 0.  1.
        -12    1    3    3    0    0 -0.19639418163E+01  0.99541323549E+01  0.14952390383E+02  0.18069748104E+02  0.00000000000E+00 0.  1.
</event>
<event>
 7    1  0.5479172E-013  0.5052886E+02  0.7816164E-02  0.1300439E+00
        -11   -1    0    0    0    0  0.00000000000E+00  0.00000000000E+00  0.45593999997E+02  0.45594000000E+02  0.51100000000E-03 0.  1.
         11   -1    0    0    0    0 -0.00000000000E+00 -0.00000000000E+00 -0.45593999997E+02  0.45594000000E+02  0.51100000000E-03 0. -1.
    9900012    2    1    2    0    0 -0.21486358479E+02  0.40370215183E+01  0.34281253292E+02  0.50528862396E+02  0.30000007739E+02 0.  0.
         12    1    1    2    0    0  0.21486358479E+02 -0.40370215183E+01 -0.34281253292E+02  0.40659137604E+02  0.00000000000E+00 0. -1.
         11    1    3    3    0    0 -0.16505947790E+02  0.56060990478E+00  0.98549199907E+01  0.19232265707E+02  0.51100000000E-03 0. -1.
        -11    1    3    3    0    0 -0.11923343997E+02  0.31205914002E+01  0.12940422830E+02  0.17870611798E+02  0.51100000000E-03 0.  1.
         12    1    3    3    0    0  0.69429333087E+01  0.35582021340E+00  0.11485910471E+02  0.13425984891E+02  0.00000000000E+00 0. -1.
</event>
<event>
 7    1  0.5479172E-013  0.5052887E+02  0.7816164E-02  0.1300439E+00
        -11   -1    0    0    0    0  0.00000000000E+00  0.00000000000E+00  0.45593999997E+02  0.45594000000E+02  0.51100000000E-03 0.  1.
         11   -1    0    0    0    0 -0.00000000000E+00 -0.00000000000E+00 -0.45593999997E+02  0.45594000000E+02  0.51100000000E-03 0. -1.
    9900012    2    1    2    0    0 -0.22502173650E+02  0.31816170117E+02  0.11599497937E+02  0.50528870001E+02  0.30000030855E+02 0.  0.
         12    1    1    2    0    0  0.22502173650E+02 -0.31816170117E+02 -0.11599497937E+02  0.40659129999E+02  0.00000000000E+00 0. -1.
         11    1    3    3    0    0 -0.16646430140E+02  0.17347238972E+02 -0.38766091498E+00  0.24045386618E+02  0.51100000000E-03 0. -1.
        -11    1    3    3    0    0 -0.94476884884E+01  0.14591743504E+02  0.41651598750E+01  0.17875300090E+02  0.51100000000E-03 0.  1.
        -12    1    3    3    0    0  0.35919449785E+01 -0.12281235922E+00  0.78219989770E+01  0.86081832927E+01  0.00000000000E+00 0.  1.
</event>
<event>
 7    1  0.5479172E-013  0.5052888E+02  0.7816164E-02  0.1300439E+00
        -11   -1    0    0    0    0  0.00000000000E+00  0.00000000000E+00  0.45593999997E+02  0.45594000000E+02  0.51100000000E-03 0. -1.
         11   -1    0    0    0    0 -0.00000000000E+00 -0.00000000000E+00 -0.45593999997E+02  0.45594000000E+02  0.51100000000E-03 0.  1.
    9900012    2    1    2    0    0  0.39583604533E+02 -0.92850244445E+01 -0.30165766432E+00  0.50528875266E+02  0.30000046859E+02 0.  0.
         12    1    1    2    0    0 -0.39583604533E+02  0.92850244445E+01  0.30165766432E+00  0.40659124734E+02  0.00000000000E+00 0. -1.
         11    1    3    3    0    0  0.17970400012E+02 -0.43092701549E+01 -0.10929137908E+01  0.18512145923E+02  0.51100000000E-03 0. -1.
        -11    1    3    3    0    0  0.71955738822E+01 -0.72057331599E+01 -0.96869319898E+01  0.14054733206E+02  0.51100000000E-03 0.  1.
        -12    1    3    3    0    0  0.14417630639E+02  0.22299788703E+01  0.10478188116E+02  0.17961996136E+02  0.00000000000E+00 0.  1.
</event>
<event>
 7    1  0.5479172E-013  0.5052887E+02  0.7816164E-02  0.1300439E+00
        -11   -1    0    0    0    0  0.00000000000E+00  0.00000000000E+00  0.45593999997E+02  0.45594000000E+02  0.51100000000E-03 0. -1.
         11   -1    0    0    0    0 -0.00000000000E+00 -0.00000000000E+00 -0.45593999997E+02  0.45594000000E+02  0.51100000000E-03 0.  1.
    9900012    2    1    2    0    0 -0.13056179900E+02  0.27724436928E+02 -0.26721844595E+02  0.50528865539E+02  0.30000017292E+02 0.  0.
         12    1    1    2    0    0  0.13056179900E+02 -0.27724436928E+02  0.26721844595E+02  0.40659134461E+02  0.00000000000E+00 0. -1.
         11    1    3    3    0    0 -0.47417470334E+01 -0.48866812791E+01 -0.10466989751E+01  0.68890781573E+01  0.51100000000E-03 0. -1.
        -11    1    3    3    0    0 -0.40680336594E+01  0.48897111474E+01 -0.13210448033E+01  0.64964092076E+01  0.51100000000E-03 0.  1.
         12    1    3    3    0    0 -0.42463992074E+01  0.27721407060E+02 -0.24354100816E+02  0.37143378174E+02  0.00000000000E+00 0. -1.
</event>
<event>
 7    1  0.5479172E-013  0.5052887E+02  0.7816164E-02  0.1300439E+00
        -11   -1    0    0    0    0  0.00000000000E+00  0.00000000000E+00  0.45593999997E+02  0.45594000000E+02  0.51100000000E-03 0.  1.
         11   -1    0    0    0    0 -0.00000000000E+00 -0.00000000000E+00 -0.45593999997E+02  0.45594000000E+02  0.51100000000E-03 0. -1.
    9900012    2    1    2    0    0  0.23224106483E+01 -0.19442355508E+02  0.35633781118E+02  0.50528866516E+02  0.30000020262E+02 0.  0.
         12    1    1    2    0    0 -0.23224106483E+01  0.19442355508E+02 -0.35633781118E+02  0.40659133484E+02  0.00000000000E+00 0. -1.
         11    1    3    3    0    0 -0.38726296693E+01 -0.59610073086E+01  0.23153754929E+01  0.74760840433E+01  0.51100000000E-03 0.  1.
        -11    1    3    3    0    0  0.45436125227E+01 -0.10287353361E+02  0.18711961637E+01  0.11400676703E+02  0.51100000000E-03 0. -1.
        -12    1    3    3    0    0  0.16514277948E+01 -0.31939948378E+01  0.31447209461E+02  0.31652105770E+02  0.00000000000E+00 0.  1.
</event>
<event>
 7    1  0.5479172E-013  0.5052884E+02  0.7816164E-02  0.1300439E+00
        -11   -1    0    0    0    0  0.00000000000E+00  0.00000000000E+00  0.45593999997E+02  0.45594000000E+02  0.51100000000E-03 0.  1.
         11   -1    0    0    0    0 -0.00000000000E+00 -0.00000000000E+00 -0.45593999997E+02  0.45594000000E+02  0.51100000000E-03 0. -1.
    9900012    2    1    2    0    0 -0.13404466256E+02  0.19171301950E+02  0.33255804745E+02  0.50528842565E+02  0.29999947461E+02 0.  0.
         12    1    1    2    0    0  0.13404466256E+02 -0.19171301950E+02 -0.33255804745E+02  0.40659157435E+02  0.00000000000E+00 0. -1.
         11    1    3    3    0    0  0.35037524961E+01  0.83462440293E+01  0.60403513894E+01  0.10882183426E+02  0.51100000000E-03 0. -1.
        -11    1    3    3    0    0  0.38115050616E+01 -0.16097248518E+01  0.16115447061E+01  0.44402546700E+01  0.51100000000E-03 0.  1.
        -12    1    3    3    0    0 -0.20719723814E+02  0.12434782772E+02  0.25603908649E+02  0.35206404469E+02  0.00000000000E+00 0.  1.
</event>
<event>
 7    1  0.5479172E-013  0.5052887E+02  0.7816164E-02  0.1300439E+00
        -11   -1    0    0    0    0  0.00000000000E+00  0.00000000000E+00  0.45593999997E+02  0.45594000000E+02  0.51100000000E-03 0.  1.
         11   -1    0    0    0    0 -0.00000000000E+00 -0.00000000000E+00 -0.45593999997E+02  0.45594000000E+02  0.51100000000E-03 0. -1.
    9900012    2    1    2    0    0 -0.57874830141E+01 -0.19562394255E+01  0.40197554890E+02  0.50528865092E+02  0.30000015933E+02 0.  0.
         12    1    1    2    0    0  0.57874830141E+01  0.19562394255E+01 -0.40197554890E+02  0.40659134908E+02  0.00000000000E+00 0. -1.
         11    1    3    3    0    0 -0.26902070056E+01  0.40583849414E+01  0.33803898115E+02  0.34152763140E+02  0.51100000000E-03 0. -1.
        -11    1    3    3    0    0 -0.46204819363E+01 -0.28169366448E+01  0.99691936072E+01  0.11343227355E+02  0.51100000000E-03 0.  1.
         12    1    3    3    0    0  0.15232059278E+01 -0.31976877221E+01 -0.35755368322E+01  0.50328745966E+01  0.00000000000E+00 0. -1.
</event>
<event>
 7    1  0.5479172E-013  0.5052887E+02  0.7816164E-02  0.1300439E+00
        -11   -1    0    0    0    0  0.00000000000E+00  0.00000000000E+00  0.45593999997E+02  0.45594000000E+02  0.51100000000E-03 0.  1.
         11   -1    0    0    0    0 -0.00000000000E+00 -0.00000000000E+00 -0.45593999997E+02  0.45594000000E+02  0.51100000000E-03 0. -1.
    9900012    2    1    2    0    0 -0.19617815020E+02  0.22103491603E+01  0.35544631226E+02  0.50528866726E+02  0.30000020901E+02 0.  0.
         12    1    1    2    0    0  0.19617815020E+02 -0.22103491603E+01 -0.35544631226E+02  0.40659133274E+02  0.00000000000E+00 0. -1.
         11    1    3    3    0    0 -0.45424864324E+01  0.44651879975E+01  0.27888273514E+01  0.69533909065E+01  0.51100000000E-03 0. -1.
        -11    1    3    3    0    0 -0.26383856289E+01  0.97098629065E+01  0.19024358747E+02  0.21521355496E+02  0.51100000000E-03 0.  1.
         12    1    3    3    0    0 -0.12436942958E+02 -0.11964701744E+02  0.13731445128E+02  0.22054120324E+02  0.00000000000E+00 0. -1.
</event>
<event>
 7    1  0.5479172E-013  0.5052886E+02  0.7816164E-02  0.1300439E+00
        -11   -1    0    0    0    0  0.00000000000E+00  0.00000000000E+00  0.45593999997E+02  0.45594000000E+02  0.51100000000E-03 0.  1.
         11   -1    0    0    0    0 -0.00000000000E+00 -0.00000000000E+00 -0.45593999997E+02  0.45594000000E+02  0.51100000000E-03 0. -1.
    9900012    2    1    2    0    0  0.24379844153E+02  0.24361506718E+02  0.21570948186E+02  0.50528860608E+02  0.30000002303E+02 0.  0.
         12    1    1    2    0    0 -0.24379844153E+02 -0.24361506718E+02 -0.21570948186E+02  0.40659139392E+02  0.00000000000E+00 0. -1.
         11    1    3    3    0    0  0.28727878587E+01  0.13100239928E+02 -0.70444476696E+00  0.13430020065E+02  0.51100000000E-03 0. -1.
        -11    1    3    3    0    0  0.60855561364E+01 -0.29519362808E+01  0.11929373070E+02  0.13713419100E+02  0.51100000000E-03 0.  1.
         12    1    3    3    0    0  0.15421500158E+02  0.14213203070E+02  0.10346019883E+02  0.23385421443E+02  0.00000000000E+00 0. -1.
</event>
<event>
 7    1  0.5479172E-013  0.5052889E+02  0.7816164E-02  0.1300439E+00
        -11   -1    0    0    0    0  0.00000000000E+00  0.00000000000E+00  0.45593999997E+02  0.45594000000E+02  0.51100000000E-03 0.  1.
         11   -1    0    0    0    0 -0.00000000000E+00 -0.00000000000E+00 -0.45593999997E+02  0.45594000000E+02  0.51100000000E-03 0. -1.
    9900012    2    1    2    0    0  0.79992132488E+01  0.99837810640E+01  0.38594036790E+02  0.50528893115E+02  0.30000101112E+02 0.  0.
         12    1    1    2    0    0 -0.79992132488E+01 -0.99837810640E+01 -0.38594036790E+02  0.40659106885E+02  0.00000000000E+00 0. -1.
         11    1    3    3    0    0  0.17346023556E+01  0.26178702182E+01  0.26742266736E+02  0.26926026819E+02  0.51100000000E-03 0. -1.
        -11    1    3    3    0    0  0.48741175058E+01  0.19289525099E+01  0.15861751866E+02  0.16705479693E+02  0.51100000000E-03 0.  1.
         12    1    3    3    0    0  0.13904933873E+01  0.54369583359E+01 -0.40099818125E+01  0.68973866024E+01  0.00000000000E+00 0. -1.
</event>
<event>
 7    1  0.5479172E-013  0.5052886E+02  0.7816164E-02  0.1300439E+00
        -11   -1    0    0    0    0  0.00000000000E+00  0.00000000000E+00  0.45593999997E+02  0.45594000000E+02  0.51100000000E-03 0.  1.
         11   -1    0    0    0    0 -0.00000000000E+00 -0.00000000000E+00 -0.45593999997E+02  0.45594000000E+02  0.51100000000E-03 0. -1.
    9900012    2    1    2    0    0 -0.28803729524E+01 -0.25499081886E+02  0.31538321798E+02  0.50528862439E+02  0.30000007869E+02 0.  0.
         12    1    1    2    0    0  0.28803729524E+01  0.25499081886E+02 -0.31538321798E+02  0.40659137561E+02  0.00000000000E+00 0. -1.
         11    1    3    3    0    0  0.99949591932E+00 -0.21777167903E+02  0.79551736310E+01  0.23206223772E+02  0.51100000000E-03 0. -1.
        -11    1    3    3    0    0 -0.34822614337E+01 -0.46168863358E+01  0.26406663001E+01  0.63572716554E+01  0.51100000000E-03 0.  1.
         12    1    3    3    0    0 -0.39760743798E+00  0.89497235306E+00  0.20942481867E+02  0.20965367012E+02  0.00000000000E+00 0. -1.
</event>
<event>
 7    1  0.5479172E-013  0.5052885E+02  0.7816164E-02  0.1300439E+00
        -11   -1    0    0    0    0  0.00000000000E+00  0.00000000000E+00  0.45593999997E+02  0.45594000000E+02  0.51100000000E-03 0. -1.
         11   -1    0    0    0    0 -0.00000000000E+00 -0.00000000000E+00 -0.45593999997E+02  0.45594000000E+02  0.51100000000E-03 0.  1.
    9900012    2    1    2    0    0 -0.37438059829E+02 -0.13057128708E+02  0.90038575288E+01  0.50528851162E+02  0.29999973591E+02 0.  0.
         12    1    1    2    0    0  0.37438059829E+02  0.13057128708E+02 -0.90038575288E+01  0.40659148838E+02  0.00000000000E+00 0. -1.
         11    1    3    3    0    0 -0.54320760689E+01  0.65791222857E+00  0.41027769639E+01  0.68390845875E+01  0.51100000000E-03 0. -1.
        -11    1    3    3    0    0 -0.93336539358E+01 -0.11038475842E+02 -0.89354163098E+01  0.16994314037E+02  0.51100000000E-03 0.  1.
         12    1    3    3    0    0 -0.22672329824E+02 -0.26765650948E+01  0.13836496875E+02  0.26695452537E+02  0.00000000000E+00 0. -1.
</event>
<event>
 7    1  0.5479172E-013  0.5052886E+02  0.7816164E-02  0.1300439E+00
        -11   -1    0    0    0    0  0.00000000000E+00  0.00000000000E+00  0.45593999997E+02  0.45594000000E+02  0.51100000000E-03 0. -1.
         11   -1    0    0    0    0 -0.00000000000E+00 -0.00000000000E+00 -0.45593999997E+02  0.45594000000E+02  0.51100000000E-03 0.  1.
    9900012    2    1    2    0    0 -0.11817318029E+02 -0.25348279245E+02 -0.29512390179E+02  0.50528862771E+02  0.30000008880E+02 0.  0.
         12    1    1    2    0    0  0.11817318029E+02  0.25348279245E+02  0.29512390179E+02  0.40659137229E+02  0.00000000000E+00 0. -1.
         11    1    3    3    0    0  0.19522046929E+01 -0.11510010782E+00 -0.28704719346E+00  0.19765494050E+01  0.51100000000E-03 0. -1.
        -11    1    3    3    0    0  0.57719189123E-01 -0.22221105522E+02 -0.92440387377E+01  0.24067262299E+02  0.51100000000E-03 0.  1.
        -12    1    3    3    0    0 -0.13827241911E+02 -0.30120736154E+01 -0.19981304248E+02  0.24485051068E+02  0.00000000000E+00 0.  1.
</event>
<event>
 7    1  0.5479172E-013  0.5052886E+02  0.7816164E-02  0.1300439E+00
        -11   -1    0    0    0    0  0.00000000000E+00  0.00000000000E+00  0.45593999997E+02  0.45594000000E+02  0.51100000000E-03 0.  1.
         11   -1    0    0    0    0 -0.00000000000E+00 -0.00000000000E+00 -0.45593999997E+02  0.45594000000E+02  0.51100000000E-03 0. -1.
    9900012    2    1    2    0    0  0.16636641657E+02  0.36879762611E+02 -0.40337159443E+01  0.50528860803E+02  0.30000002898E+02 0.  0.
         12    1    1    2    0    0 -0.16636641657E+02 -0.36879762611E+02  0.40337159443E+01  0.40659139197E+02  0.00000000000E+00 0. -1.
         11    1    3    3    0    0  0.23872209428E+01  0.27762894388E+02 -0.12083011879E+01  0.27891524172E+02  0.51100000000E-03 0. -1.
        -11    1    3    3    0    0  0.10180971864E+02  0.99390934908E+01  0.38832321814E+01  0.14748466359E+02  0.51100000000E-03 0.  1.
         12    1    3    3    0    0  0.40684488499E+01 -0.82222526707E+00 -0.67086469378E+01  0.78888702721E+01  0.00000000000E+00 0. -1.
</event>
<event>
 7    1  0.5479172E-013  0.5052886E+02  0.7816164E-02  0.1300439E+00
        -11   -1    0    0    0    0  0.00000000000E+00  0.00000000000E+00  0.45593999997E+02  0.45594000000E+02  0.51100000000E-03 0.  1.
         11   -1    0    0    0    0 -0.00000000000E+00 -0.00000000000E+00 -0.45593999997E+02  0.45594000000E+02  0.51100000000E-03 0. -1.
    9900012    2    1    2    0    0  0.30089464549E+02 -0.21549061730E+02  0.16835304710E+02  0.50528862983E+02  0.30000009524E+02 0.  0.
         12    1    1    2    0    0 -0.30089464549E+02  0.21549061730E+02 -0.16835304710E+02  0.40659137017E+02  0.00000000000E+00 0. -1.
         11    1    3    3    0    0  0.62401933540E+00  0.90125096818E-01  0.17563984371E+01  0.18661346133E+01  0.51100000000E-03 0. -1.
        -11    1    3    3    0    0  0.43973058674E+01 -0.97004035453E+01  0.17821695229E+02  0.20761670186E+02  0.51100000000E-03 0.  1.
         12    1    3    3    0    0  0.25068139346E+02 -0.11938783281E+02 -0.27427889559E+01  0.27901058184E+02  0.00000000000E+00 0. -1.
</event>
<event>
 7    1  0.5479172E-013  0.5052887E+02  0.7816164E-02  0.1300439E+00
        -11   -1    0    0    0    0  0.00000000000E+00  0.00000000000E+00  0.45593999997E+02  0.45594000000E+02  0.51100000000E-03 0. -1.
         11   -1    0    0    0    0 -0.00000000000E+00 -0.00000000000E+00 -0.45593999997E+02  0.45594000000E+02  0.51100000000E-03 0.  1.
    9900012    2    1    2    0    0 -0.38442230579E+02  0.13199129181E+02 -0.10690991242E+01  0.50528867250E+02  0.30000022495E+02 0.  0.
         12    1    1    2    0    0  0.38442230579E+02 -0.13199129181E+02  0.10690991242E+01  0.40659132750E+02  0.00000000000E+00 0. -1.
         11    1    3    3    0    0 -0.12542551339E+01 -0.19154676639E+00  0.65042672825E+01  0.66268649638E+01  0.51100000000E-03 0. -1.
        -11    1    3    3    0    0 -0.57302426509E+01  0.43738014534E+01  0.50773598283E+01  0.88173353729E+01  0.51100000000E-03 0.  1.
         12    1    3    3    0    0 -0.31457732794E+02  0.90168744944E+01 -0.12650726235E+02  0.35084666914E+02  0.00000000000E+00 0. -1.
</event>
<event>
 7    1  0.5479172E-013  0.5052886E+02  0.7816164E-02  0.1300439E+00
        -11   -1    0    0    0    0  0.00000000000E+00  0.00000000000E+00  0.45593999997E+02  0.45594000000E+02  0.51100000000E-03 0. -1.
         11   -1    0    0    0    0 -0.00000000000E+00 -0.00000000000E+00 -0.45593999997E+02  0.45594000000E+02  0.51100000000E-03 0.  1.
    9900012    2    1    2    0    0  0.40785682993E+01  0.30348425013E+02 -0.26748905093E+02  0.50528861496E+02  0.30000005005E+02 0.  0.
         12    1    1    2    0    0 -0.40785682993E+01 -0.30348425013E+02  0.26748905093E+02  0.40659138504E+02  0.00000000000E+00 0. -1.
         11    1    3    3    0    0  0.25992140538E+01  0.19481378973E+02 -0.18050880208E+02  0.26685470146E+02  0.51100000000E-03 0. -1.
        -11    1    3    3    0    0  0.50677632238E+01  0.11921351629E+02 -0.12856272129E+02  0.18250604978E+02  0.51100000000E-03 0.  1.
         12    1    3    3    0    0 -0.35884089783E+01 -0.10543055886E+01  0.41582472432E+01  0.55927863722E+01  0.00000000000E+00 0. -1.
</event>
<event>
 7    1  0.5479172E-013  0.5052880E+02  0.7816164E-02  0.1300439E+00
        -11   -1    0    0    0    0  0.00000000000E+00  0.00000000000E+00  0.45593999997E+02  0.45594000000E+02  0.51100000000E-03 0. -1.
         11   -1    0    0    0    0 -0.00000000000E+00 -0.00000000000E+00 -0.45593999997E+02  0.45594000000E+02  0.51100000000E-03 0.  1.
    9900012    2    1    2    0    0  0.10696923223E+02 -0.89754689902E+01 -0.38186221791E+02  0.50528797540E+02  0.29999810602E+02 0.  0.
         12    1    1    2    0    0 -0.10696923223E+02  0.89754689902E+01  0.38186221791E+02  0.40659202460E+02  0.00000000000E+00 0. -1.
         11    1    3    3    0    0  0.31711484513E+01  0.18397089514E+01 -0.16876428246E+01  0.40359447581E+01  0.51100000000E-03 0.  1.
        -11    1    3    3    0    0  0.99273890670E+01  0.48178293292E+01 -0.71349576701E+01  0.13140477706E+02  0.51100000000E-03 0. -1.
        -12    1    3    3    0    0 -0.24016142957E+01 -0.15633007271E+02 -0.29363621296E+02  0.33352375076E+02  0.00000000000E+00 0.  1.
</event>
<event>
 7    1  0.5479172E-013  0.5052886E+02  0.7816164E-02  0.1300439E+00
        -11   -1    0    0    0    0  0.00000000000E+00  0.00000000000E+00  0.45593999997E+02  0.45594000000E+02  0.51100000000E-03 0.  1.
         11   -1    0    0    0    0 -0.00000000000E+00 -0.00000000000E+00 -0.45593999997E+02  0.45594000000E+02  0.51100000000E-03 0. -1.
    9900012    2    1    2    0    0  0.17472039335E+02  0.18312127545E+02  0.31820738223E+02  0.50528861361E+02  0.30000004594E+02 0.  0.
         12    1    1    2    0    0 -0.17472039335E+02 -0.18312127545E+02 -0.31820738223E+02  0.40659138639E+02  0.00000000000E+00 0. -1.
         11    1    3    3    0    0  0.11383766941E+02  0.47960696008E+01  0.26362057915E+02  0.29112721122E+02  0.51100000000E-03 0.  1.
        -11    1    3    3    0    0  0.35166131051E+01  0.64596098398E+01  0.10169631096E+02  0.12550479031E+02  0.51100000000E-03 0. -1.
         12    1    3    3    0    0  0.25716592894E+01  0.70564481044E+01 -0.47109507869E+01  0.88656612087E+01  0.00000000000E+00 0. -1.
</event>
<event>
 7    1  0.5479172E-013  0.5052886E+02  0.7816164E-02  0.1300439E+00
        -11   -1    0    0    0    0  0.00000000000E+00  0.00000000000E+00  0.45593999997E+02  0.45594000000E+02  0.51100000000E-03 0.  1.
         11   -1    0    0    0    0 -0.00000000000E+00 -0.00000000000E+00 -0.45593999997E+02  0.45594000000E+02  0.51100000000E-03 0. -1.
    9900012    2    1    2    0    0 -0.25678723109E+02  0.13106640773E+02  0.28670275901E+02  0.50528861137E+02  0.30000003912E+02 0.  0.
         12    1    1    2    0    0  0.25678723109E+02 -0.13106640773E+02 -0.28670275901E+02  0.40659138863E+02  0.00000000000E+00 0. -1.
         11    1    3    3    0    0 -0.15776830669E+00  0.49778835338E+01  0.22193824781E+02  0.22745770464E+02  0.51100000000E-03 0. -1.
        -11    1    3    3    0    0 -0.86364902733E+01  0.14486266268E+01  0.98155594641E+00  0.88119768317E+01  0.51100000000E-03 0.  1.
        -12    1    3    3    0    0 -0.16884464529E+02  0.66801306129E+01  0.54948951736E+01  0.18971113842E+02  0.00000000000E+00 0.  1.
</event>
<event>
 7    1  0.5479172E-013  0.5052885E+02  0.7816164E-02  0.1300439E+00
        -11   -1    0    0    0    0  0.00000000000E+00  0.00000000000E+00  0.45593999997E+02  0.45594000000E+02  0.51100000000E-03 0.  1.
         11   -1    0    0    0    0 -0.00000000000E+00 -0.00000000000E+00 -0.45593999997E+02  0.45594000000E+02  0.51100000000E-03 0. -1.
    9900012    2    1    2    0    0 -0.28459503688E+02  0.23412877435E+02 -0.17177310719E+02  0.50528853630E+02  0.29999981094E+02 0.  0.
         12    1    1    2    0    0  0.28459503688E+02 -0.23412877435E+02  0.17177310719E+02  0.40659146370E+02  0.00000000000E+00 0. -1.
         11    1    3    3    0    0 -0.27883210917E+02  0.21738167062E+02 -0.10133754932E+02  0.36779265185E+02  0.51100000000E-03 0. -1.
        -11    1    3    3    0    0 -0.47469379868E+01  0.19276294005E+01  0.47774740450E+00  0.51456212647E+01  0.51100000000E-03 0.  1.
         12    1    3    3    0    0  0.41706452153E+01 -0.25291902679E+00 -0.75213031916E+01  0.86039671807E+01  0.00000000000E+00 0. -1.
</event>
<event>
 7    1  0.5479172E-013  0.5052886E+02  0.7816164E-02  0.1300439E+00
        -11   -1    0    0    0    0  0.00000000000E+00  0.00000000000E+00  0.45593999997E+02  0.45594000000E+02  0.51100000000E-03 0. -1.
         11   -1    0    0    0    0 -0.00000000000E+00 -0.00000000000E+00 -0.45593999997E+02  0.45594000000E+02  0.51100000000E-03 0.  1.
    9900012    2    1    2    0    0  0.35585730162E+02  0.18598765970E+01 -0.19579648387E+02  0.50528856341E+02  0.29999989334E+02 0.  0.
         12    1    1    2    0    0 -0.35585730162E+02 -0.18598765970E+01  0.19579648387E+02  0.40659143659E+02  0.00000000000E+00 0. -1.
         11    1    3    3    0    0  0.14879678602E+02 -0.28683419995E+01  0.11763027320E+01  0.15199207529E+02  0.51100000000E-03 0. -1.
        -11    1    3    3    0    0  0.17121521808E+02  0.61551368408E+01 -0.46652594167E+01  0.18782887537E+02  0.51100000000E-03 0.  1.
         12    1    3    3    0    0  0.35845297521E+01 -0.14269182443E+01 -0.16090691703E+02  0.16546761275E+02  0.00000000000E+00 0. -1.
</event>
<event>
 7    1  0.5479172E-013  0.5052885E+02  0.7816164E-02  0.1300439E+00
        -11   -1    0    0    0    0  0.00000000000E+00  0.00000000000E+00  0.45593999997E+02  0.45594000000E+02  0.51100000000E-03 0. -1.
         11   -1    0    0    0    0 -0.00000000000E+00 -0.00000000000E+00 -0.45593999997E+02  0.45594000000E+02  0.51100000000E-03 0.  1.
    9900012    2    1    2    0    0  0.45227123466E+01 -0.39515717981E+02 -0.84391528497E+01  0.50528853485E+02  0.29999980653E+02 0.  0.
         12    1    1    2    0    0 -0.45227123466E+01  0.39515717981E+02  0.84391528497E+01  0.40659146515E+02  0.00000000000E+00 0. -1.
         11    1    3    3    0    0  0.67749764819E+01 -0.15788976036E+02  0.34052140355E+01  0.17515351937E+02  0.51100000000E-03 0. -1.
        -11    1    3    3    0    0  0.87897960475E-01  0.28294547005E+01 -0.45768476894E+01  0.53815494968E+01  0.51100000000E-03 0.  1.
         12    1    3    3    0    0 -0.23401620958E+01 -0.26556196645E+02 -0.72675191957E+01  0.27631952051E+02  0.00000000000E+00 0. -1.
</event>
<event>
 7    1  0.5479172E-013  0.5052886E+02  0.7816164E-02  0.1300439E+00
        -11   -1    0    0    0    0  0.00000000000E+00  0.00000000000E+00  0.45593999997E+02  0.45594000000E+02  0.51100000000E-03 0.  1.
         11   -1    0    0    0    0 -0.00000000000E+00 -0.00000000000E+00 -0.45593999997E+02  0.45594000000E+02  0.51100000000E-03 0. -1.
    9900012    2    1    2    0    0  0.18275571049E+02 -0.36285078431E+02 -0.16007162616E+01  0.50528859497E+02  0.29999998927E+02 0.  0.
         12    1    1    2    0    0 -0.18275571049E+02  0.36285078431E+02  0.16007162616E+01  0.40659140503E+02  0.00000000000E+00 0. -1.
         11    1    3    3    0    0 -0.21231422064E+01  0.95133501528E+00 -0.13952168559E+00  0.23307161350E+01  0.51100000000E-03 0. -1.
        -11    1    3    3    0    0  0.89874146790E+01 -0.43885466771E+01  0.72465140593E+01  0.12350908097E+02  0.51100000000E-03 0.  1.
        -12    1    3    3    0    0  0.11411298577E+02 -0.32847866769E+02 -0.87077086353E+01  0.35847235265E+02  0.00000000000E+00 0.  1.
</event>
<event>
 7    1  0.5479172E-013  0.5052886E+02  0.7816164E-02  0.1300439E+00
        -11   -1    0    0    0    0  0.00000000000E+00  0.00000000000E+00  0.45593999997E+02  0.45594000000E+02  0.51100000000E-03 0.  1.
         11   -1    0    0    0    0 -0.00000000000E+00 -0.00000000000E+00 -0.45593999997E+02  0.45594000000E+02  0.51100000000E-03 0. -1.
    9900012    2    1    2    0    0 -0.21659973524E+02 -0.31824594511E+02  0.13084583244E+02  0.50528860960E+02  0.30000003373E+02 0.  0.
         12    1    1    2    0    0  0.21659973524E+02  0.31824594511E+02 -0.13084583244E+02  0.40659139040E+02  0.00000000000E+00 0. -1.
         11    1    3    3    0    0 -0.15594118981E+02 -0.81302931810E+01  0.11754086904E+02  0.21152701322E+02  0.51100000000E-03 0. -1.
        -11    1    3    3    0    0 -0.25892790069E+01 -0.89720594060E+01  0.85077749685E+01  0.12632673942E+02  0.51100000000E-03 0.  1.
         12    1    3    3    0    0 -0.34765755356E+01 -0.14722241924E+02 -0.71772786281E+01  0.16743485695E+02  0.00000000000E+00 0. -1.
</event>
<event>
 7    1  0.5479172E-013  0.5052886E+02  0.7816164E-02  0.1300439E+00
        -11   -1    0    0    0    0  0.00000000000E+00  0.00000000000E+00  0.45593999997E+02  0.45594000000E+02  0.51100000000E-03 0. -1.
         11   -1    0    0    0    0 -0.00000000000E+00 -0.00000000000E+00 -0.45593999997E+02  0.45594000000E+02  0.51100000000E-03 0.  1.
    9900012    2    1    2    0    0  0.38912628453E+02  0.11076448376E+00 -0.11788156528E+02  0.50528861344E+02  0.30000004542E+02 0.  0.
         12    1    1    2    0    0 -0.38912628453E+02 -0.11076448376E+00  0.11788156528E+02  0.40659138656E+02  0.00000000000E+00 0. -1.
         11    1    3    3    0    0  0.10493312351E+02  0.10903949069E+02  0.31352440061E+00  0.15136182055E+02  0.51100000000E-03 0. -1.
        -11    1    3    3    0    0  0.21376130714E+01 -0.58493208253E+01 -0.51843074488E+00  0.62492171077E+01  0.51100000000E-03 0.  1.
        -12    1    3    3    0    0  0.26281703031E+02 -0.49438637603E+01 -0.11583250184E+02  0.29143462181E+02  0.00000000000E+00 0.  1.
</event>
<event>
 7    1  0.5479172E-013  0.5052887E+02  0.7816164E-02  0.1300439E+00
        -11   -1    0    0    0    0  0.00000000000E+00  0.00000000000E+00  0.45593999997E+02  0.45594000000E+02  0.51100000000E-03 0.  1.
         11   -1    0    0    0    0 -0.00000000000E+00 -0.00000000000E+00 -0.45593999997E+02  0.45594000000E+02  0.51100000000E-03 0. -1.
    9900012    2    1    2    0    0  0.48415933127E+01 -0.29873879774E+02  0.27152810167E+02  0.50528870416E+02  0.30000032117E+02 0.  0.
         12    1    1    2    0    0 -0.48415933127E+01  0.29873879774E+02 -0.27152810167E+02  0.40659129584E+02  0.00000000000E+00 0. -1.
         11    1    3    3    0    0 -0.69366407667E+01 -0.12947355387E+01  0.23956953124E+01  0.74520253309E+01  0.51100000000E-03 0. -1.
        -11    1    3    3    0    0 -0.26095214719E+00 -0.20072055172E+02  0.17568466638E+02  0.26675953875E+02  0.51100000000E-03 0.  1.
         12    1    3    3    0    0  0.12039186227E+02 -0.85070890626E+01  0.71886482171E+01  0.16400891211E+02  0.00000000000E+00 0. -1.
</event>
<event>
 7    1  0.5479172E-013  0.5052883E+02  0.7816164E-02  0.1300439E+00
        -11   -1    0    0    0    0  0.00000000000E+00  0.00000000000E+00  0.45593999997E+02  0.45594000000E+02  0.51100000000E-03 0.  1.
         11   -1    0    0    0    0 -0.00000000000E+00 -0.00000000000E+00 -0.45593999997E+02  0.45594000000E+02  0.51100000000E-03 0. -1.
    9900012    2    1    2    0    0 -0.14896105798E+02 -0.21852170641E+02  0.30882947453E+02  0.50528834083E+02  0.29999921678E+02 0.  0.
         12    1    1    2    0    0  0.14896105798E+02  0.21852170641E+02 -0.30882947453E+02  0.40659165917E+02  0.00000000000E+00 0. -1.
         11    1    3    3    0    0 -0.29494912451E+01 -0.44568909871E+01 -0.33215380554E+01  0.62925345601E+01  0.51100000000E-03 0. -1.
        -11    1    3    3    0    0  0.13171315087E+01 -0.15878414342E+01 -0.17999402048E+01  0.27378569783E+01  0.51100000000E-03 0.  1.
        -12    1    3    3    0    0 -0.13263746062E+02 -0.15807438220E+02  0.36004425713E+02  0.41498442544E+02  0.00000000000E+00 0.  1.
</event>
<event>
 7    1  0.5479172E-013  0.5052883E+02  0.7816164E-02  0.1300439E+00
        -11   -1    0    0    0    0  0.00000000000E+00  0.00000000000E+00  0.45593999997E+02  0.45594000000E+02  0.51100000000E-03 0.  1.
         11   -1    0    0    0    0 -0.00000000000E+00 -0.00000000000E+00 -0.45593999997E+02  0.45594000000E+02  0.51100000000E-03 0. -1.
    9900012    2    1    2    0    0 -0.20377279794E+02  0.29642028218E+02 -0.18954797379E+02  0.50528834829E+02  0.29999923946E+02 0.  0.
         12    1    1    2    0    0  0.20377279794E+02 -0.29642028218E+02  0.18954797379E+02  0.40659165171E+02  0.00000000000E+00 0. -1.
         11    1    3    3    0    0 -0.12874617258E+02  0.68997735260E+01 -0.11182704929E+02  0.18396073876E+02  0.51100000000E-03 0. -1.
        -11    1    3    3    0    0 -0.88968822750E+01  0.97611842024E+00 -0.46921691697E+01  0.10105630765E+02  0.51100000000E-03 0.  1.
        -12    1    3    3    0    0  0.13942197388E+01  0.21766136272E+02 -0.30799232800E+01  0.22027130188E+02  0.00000000000E+00 0.  1.
</event>
<event>
 7    1  0.5479172E-013  0.5052886E+02  0.7816164E-02  0.1300439E+00
        -11   -1    0    0    0    0  0.00000000000E+00  0.00000000000E+00  0.45593999997E+02  0.45594000000E+02  0.51100000000E-03 0. -1.
         11   -1    0    0    0    0 -0.00000000000E+00 -0.00000000000E+00 -0.45593999997E+02  0.45594000000E+02  0.51100000000E-03 0.  1.
    9900012    2    1    2    0    0  0.18492428772E+02  0.35657198127E+02  0.63055787910E+01  0.50528855591E+02  0.29999987055E+02 0.  0.
         12    1    1    2    0    0 -0.18492428772E+02 -0.35657198127E+02 -0.63055787910E+01  0.40659144409E+02  0.00000000000E+00 0. -1.
         11    1    3    3    0    0  0.36770887451E+01  0.15080277031E+01  0.34205422784E+01  0.52435902712E+01  0.51100000000E-03 0. -1.
        -11    1    3    3    0    0  0.57462063414E+01 -0.65995144210E+00  0.69989409406E+01  0.90796254204E+01  0.51100000000E-03 0.  1.
        -12    1    3    3    0    0  0.90691336852E+01  0.34809121866E+02 -0.41139044280E+01  0.36205639900E+02  0.00000000000E+00 0.  1.
</event>
<event>
 7    1  0.5479172E-013  0.5052886E+02  0.7816164E-02  0.1300439E+00
        -11   -1    0    0    0    0  0.00000000000E+00  0.00000000000E+00  0.45593999997E+02  0.45594000000E+02  0.51100000000E-03 0.  1.
         11   -1    0    0    0    0 -0.00000000000E+00 -0.00000000000E+00 -0.45593999997E+02  0.45594000000E+02  0.51100000000E-03 0. -1.
    9900012    2    1    2    0    0  0.24479157017E+02  0.20078537005E+02  0.25510560853E+02  0.50528862140E+02  0.30000006961E+02 0.  0.
         12    1    1    2    0    0 -0.24479157017E+02 -0.20078537005E+02 -0.25510560853E+02  0.40659137860E+02  0.00000000000E+00 0. -1.
         11    1    3    3    0    0 -0.10029797059E+00 -0.53111550213E+01  0.30481328365E+01  0.61245033589E+01  0.51100000000E-03 0. -1.
        -11    1    3    3    0    0  0.13940030631E+02  0.10467438916E+02  0.30313268894E+01  0.17694085860E+02  0.51100000000E-03 0.  1.
        -12    1    3    3    0    0  0.10639424356E+02  0.14922253109E+02  0.19431101127E+02  0.26710272921E+02  0.00000000000E+00 0.  1.
</event>
<event>
 7    1  0.5479172E-013  0.5052886E+02  0.7816164E-02  0.1300439E+00
        -11   -1    0    0    0    0  0.00000000000E+00  0.00000000000E+00  0.45593999997E+02  0.45594000000E+02  0.51100000000E-03 0.  1.
         11   -1    0    0    0    0 -0.00000000000E+00 -0.00000000000E+00 -0.45593999997E+02  0.45594000000E+02  0.51100000000E-03 0. -1.
    9900012    2    1    2    0    0 -0.35430513560E+02  0.19662603766E+02 -0.33505834190E+01  0.50528859733E+02  0.29999999645E+02 0.  0.
         12    1    1    2    0    0  0.35430513560E+02 -0.19662603766E+02  0.33505834190E+01  0.40659140267E+02  0.00000000000E+00 0. -1.
         11    1    3    3    0    0 -0.20169080209E+02  0.25924475160E+02 -0.57055121567E+01  0.33338012508E+02  0.51100000000E-03 0. -1.
        -11    1    3    3    0    0 -0.65094289048E+01 -0.17422693604E+01  0.28767775420E+01  0.73269377285E+01  0.51100000000E-03 0.  1.
        -12    1    3    3    0    0 -0.87520044466E+01 -0.45196020337E+01 -0.52184880438E+00  0.98639094963E+01  0.00000000000E+00 0.  1.
</event>
<event>
 7    1  0.5479172E-013  0.5052890E+02  0.7816164E-02  0.1300439E+00
        -11   -1    0    0    0    0  0.00000000000E+00  0.00000000000E+00  0.45593999997E+02  0.45594000000E+02  0.51100000000E-03 0.  1.
         11   -1    0    0    0    0 -0.00000000000E+00 -0.00000000000E+00 -0.45593999997E+02  0.45594000000E+02  0.51100000000E-03 0. -1.
    9900012    2    1    2    0    0  0.26741040459E+02  0.18604417015E+02  0.24330116252E+02  0.50528903427E+02  0.30000132456E+02 0.  0.
         12    1    1    2    0    0 -0.26741040459E+02 -0.18604417015E+02 -0.24330116252E+02  0.40659096573E+02  0.00000000000E+00 0. -1.
         11    1    3    3    0    0  0.39965090786E+01  0.83786865053E+01 -0.25671694933E+01  0.96314501420E+01  0.51100000000E-03 0. -1.
        -11    1    3    3    0    0  0.15907841489E+02 -0.17426689877E+01  0.91766309838E+01  0.18447408288E+02  0.51100000000E-03 0.  1.
        -12    1    3    3    0    0  0.68366898909E+01  0.11968399497E+02  0.17720654762E+02  0.22450044997E+02  0.00000000000E+00 0.  1.
</event>
<event>
 7    1  0.5479172E-013  0.5052886E+02  0.7816164E-02  0.1300439E+00
        -11   -1    0    0    0    0  0.00000000000E+00  0.00000000000E+00  0.45593999997E+02  0.45594000000E+02  0.51100000000E-03 0. -1.
         11   -1    0    0    0    0 -0.00000000000E+00 -0.00000000000E+00 -0.45593999997E+02  0.45594000000E+02  0.51100000000E-03 0.  1.
    9900012    2    1    2    0    0 -0.28544839871E+02  0.10361647122E+02 -0.27036895813E+02  0.50528863885E+02  0.30000012266E+02 0.  0.
         12    1    1    2    0    0  0.28544839871E+02 -0.10361647122E+02  0.27036895813E+02  0.40659136115E+02  0.00000000000E+00 0. -1.
         11    1    3    3    0    0 -0.59262080300E+01  0.19671307805E+01 -0.12538916342E+02  0.14007639644E+02  0.51100000000E-03 0. -1.
        -11    1    3    3    0    0  0.47065583013E+00  0.85925607499E+01 -0.96462591142E+01  0.12926868620E+02  0.51100000000E-03 0.  1.
        -12    1    3    3    0    0 -0.23089287672E+02 -0.19804440797E+00 -0.48517203572E+01  0.23594355621E+02  0.00000000000E+00 0.  1.
</event>
<event>
 7    1  0.5479172E-013  0.5052887E+02  0.7816164E-02  0.1300439E+00
        -11   -1    0    0    0    0  0.00000000000E+00  0.00000000000E+00  0.45593999997E+02  0.45594000000E+02  0.51100000000E-03 0.  1.
         11   -1    0    0    0    0 -0.00000000000E+00 -0.00000000000E+00 -0.45593999997E+02  0.45594000000E+02  0.51100000000E-03 0. -1.
    9900012    2    1    2    0    0 -0.22469505321E+02  0.24725540710E+02  0.23171832623E+02  0.50528869908E+02  0.30000030571E+02 0.  0.
         12    1    1    2    0    0  0.22469505321E+02 -0.24725540710E+02 -0.23171832623E+02  0.40659130092E+02  0.00000000000E+00 0. -1.
         11    1    3    3    0    0 -0.51311842999E+01  0.77242286417E+00 -0.44939237643E+01  0.68644767070E+01  0.51100000000E-03 0. -1.
        -11    1    3    3    0    0 -0.46224187223E+01  0.59143191968E+00 -0.77509833083E+00  0.47241215314E+01  0.51100000000E-03 0.  1.
         12    1    3    3    0    0 -0.12715902299E+02  0.23361685926E+02  0.28440854718E+02  0.38940271669E+02  0.00000000000E+00 0. -1.
</event>
<event>
 7    1  0.5479172E-013  0.5052880E+02  0.7816164E-02  0.1300439E+00
        -11   -1    0    0    0    0  0.00000000000E+00  0.00000000000E+00  0.45593999997E+02  0.45594000000E+02  0.51100000000E-03 0.  1.
         11   -1    0    0    0    0 -0.00000000000E+00 -0.00000000000E+00 -0.45593999997E+02  0.45594000000E+02  0.51100000000E-03 0. -1.
    9900012    2    1    2    0    0  0.11329206950E+02 -0.35712984028E+02  0.15792475126E+02  0.50528801423E+02  0.29999822405E+02 0.  0.
         12    1    1    2    0    0 -0.11329206950E+02  0.35712984028E+02 -0.15792475126E+02  0.40659198577E+02  0.00000000000E+00 0. -1.
         11    1    3    3    0    0  0.24309722751E+01 -0.19529232422E+02  0.84648302791E+01  0.21423209309E+02  0.51100000000E-03 0.  1.
        -11    1    3    3    0    0 -0.49568769514E+01 -0.13034938456E+02  0.31700716455E+01  0.14301384694E+02  0.51100000000E-03 0. -1.
         12    1    3    3    0    0  0.13855111626E+02 -0.31488131507E+01  0.41575732009E+01  0.14804207420E+02  0.00000000000E+00 0. -1.
</event>
<event>
 7    1  0.5479172E-013  0.5052885E+02  0.7816164E-02  0.1300439E+00
        -11   -1    0    0    0    0  0.00000000000E+00  0.00000000000E+00  0.45593999997E+02  0.45594000000E+02  0.51100000000E-03 0. -1.
         11   -1    0    0    0    0 -0.00000000000E+00 -0.00000000000E+00 -0.45593999997E+02  0.45594000000E+02  0.51100000000E-03 0.  1.
    9900012    2    1    2    0    0  0.38467743513E+02 -0.17080548752E+01  0.13056862475E+02  0.50528850966E+02  0.29999972997E+02 0.  0.
         12    1    1    2    0    0 -0.38467743513E+02  0.17080548752E+01 -0.13056862475E+02  0.40659149034E+02  0.00000000000E+00 0. -1.
         11    1    3    3    0    0  0.15395915340E+02 -0.27118249292E+01  0.12861441585E+02  0.20243638099E+02  0.51100000000E-03 0. -1.
        -11    1    3    3    0    0  0.16290037165E+02 -0.57937445022E+01  0.68558228522E+01  0.18599330456E+02  0.51100000000E-03 0.  1.
        -12    1    3    3    0    0  0.67817910090E+01  0.67975145561E+01 -0.66604019616E+01  0.11685882411E+02  0.00000000000E+00 0.  1.
</event>
<event>
 7    1  0.5479172E-013  0.5052887E+02  0.7816164E-02  0.1300439E+00
        -11   -1    0    0    0    0  0.00000000000E+00  0.00000000000E+00  0.45593999997E+02  0.45594000000E+02  0.51100000000E-03 0.  1.
         11   -1    0    0    0    0 -0.00000000000E+00 -0.00000000000E+00 -0.45593999997E+02  0.45594000000E+02  0.51100000000E-03 0. -1.
    9900012    2    1    2    0    0  0.13908154638E+02  0.18928232472E+02  0.33188103935E+02  0.50528868273E+02  0.30000025604E+02 0.  0.
         12    1    1    2    0    0 -0.13908154638E+02 -0.18928232472E+02 -0.33188103935E+02  0.40659131727E+02  0.00000000000E+00 0. -1.
         11    1    3    3    0    0  0.14205818241E+01 -0.32147289756E+01  0.21124184997E+01  0.41005910897E+01  0.51100000000E-03 0. -1.
        -11    1    3    3    0    0 -0.46628174445E+01  0.40750110418E+01 -0.49543623625E+00  0.62123295822E+01  0.51100000000E-03 0.  1.
        -12    1    3    3    0    0  0.17150390258E+02  0.18067950406E+02  0.31571121672E+02  0.40215947602E+02  0.00000000000E+00 0.  1.
</event>
<event>
 7    1  0.5479172E-013  0.5052880E+02  0.7816164E-02  0.1300439E+00
        -11   -1    0    0    0    0  0.00000000000E+00  0.00000000000E+00  0.45593999997E+02  0.45594000000E+02  0.51100000000E-03 0. -1.
         11   -1    0    0    0    0 -0.00000000000E+00 -0.00000000000E+00 -0.45593999997E+02  0.45594000000E+02  0.51100000000E-03 0.  1.
    9900012    2    1    2    0    0 -0.18077504026E+01  0.38971767189E+02 -0.11450062107E+02  0.50528800283E+02  0.29999818940E+02 0.  0.
         12    1    1    2    0    0  0.18077504026E+01 -0.38971767189E+02  0.11450062107E+02  0.40659199717E+02  0.00000000000E+00 0. -1.
         11    1    3    3    0    0  0.69844214351E+01  0.79423673789E+01  0.42807503035E+01  0.11410002883E+02  0.51100000000E-03 0. -1.
        -11    1    3    3    0    0  0.35471339811E+01  0.97121499547E+01 -0.92624500749E+00  0.10381037824E+02  0.51100000000E-03 0.  1.
        -12    1    3    3    0    0 -0.12339305819E+02  0.21317249855E+02 -0.14804567403E+02  0.28737759577E+02  0.00000000000E+00 0.  1.
</event>
<event>
 7    1  0.5479172E-013  0.5052885E+02  0.7816164E-02  0.1300439E+00
        -11   -1    0    0    0    0  0.00000000000E+00  0.00000000000E+00  0.45593999997E+02  0.45594000000E+02  0.51100000000E-03 0. -1.
         11   -1    0    0    0    0 -0.00000000000E+00 -0.00000000000E+00 -0.45593999997E+02  0.45594000000E+02  0.51100000000E-03 0.  1.
    9900012    2    1    2    0    0 -0.37697350880E+02 -0.15143391341E+02 -0.16593901671E+01  0.50528854160E+02  0.29999982706E+02 0.  0.
         12    1    1    2    0    0  0.37697350880E+02  0.15143391341E+02  0.16593901671E+01  0.40659145840E+02  0.00000000000E+00 0. -1.
         11    1    3    3    0    0 -0.19005758896E+01 -0.55944731671E+01 -0.46334261817E+01  0.75085922231E+01  0.51100000000E-03 0. -1.
        -11    1    3    3    0    0  0.28643297348E+01  0.31141268676E+00  0.10788370869E+01  0.30765650346E+01  0.51100000000E-03 0.  1.
        -12    1    3    3    0    0 -0.38661104725E+02 -0.98603308603E+01  0.18951989278E+01  0.39943696903E+02  0.00000000000E+00 0.  1.
</event>
<event>
 7    1  0.5479172E-013  0.5052884E+02  0.7816164E-02  0.1300439E+00
        -11   -1    0    0    0    0  0.00000000000E+00  0.00000000000E+00  0.45593999997E+02  0.45594000000E+02  0.51100000000E-03 0.  1.
         11   -1    0    0    0    0 -0.00000000000E+00 -0.00000000000E+00 -0.45593999997E+02  0.45594000000E+02  0.51100000000E-03 0. -1.
    9900012    2    1    2    0    0  0.31273146044E+02 -0.25773633824E+02 -0.32981394603E+01  0.50528836360E+02  0.29999928600E+02 0.  0.
         12    1    1    2    0    0 -0.31273146044E+02  0.25773633824E+02  0.32981394603E+01  0.40659163640E+02  0.00000000000E+00 0. -1.
         11    1    3    3    0    0  0.78166622860E+01 -0.14749890630E+02 -0.78862524623E+01  0.18462190040E+02  0.51100000000E-03 0. -1.
        -11    1    3    3    0    0 -0.20712658285E+01 -0.40769996283E+01 -0.16910662662E+01  0.48756305725E+01  0.51100000000E-03 0.  1.
        -12    1    3    3    0    0  0.25527749587E+02 -0.69467435650E+01  0.62791792682E+01  0.27191015748E+02  0.00000000000E+00 0.  1.
</event>
<event>
 7    1  0.5479172E-013  0.5052886E+02  0.7816164E-02  0.1300439E+00
        -11   -1    0    0    0    0  0.00000000000E+00  0.00000000000E+00  0.45593999997E+02  0.45594000000E+02  0.51100000000E-03 0. -1.
         11   -1    0    0    0    0 -0.00000000000E+00 -0.00000000000E+00 -0.45593999997E+02  0.45594000000E+02  0.51100000000E-03 0.  1.
    9900012    2    1    2    0    0 -0.12950164153E+02 -0.38511167248E+02  0.15326966541E+01  0.50528856952E+02  0.29999991191E+02 0.  0.
         12    1    1    2    0    0  0.12950164153E+02  0.38511167248E+02 -0.15326966541E+01  0.40659143048E+02  0.00000000000E+00 0. -1.
         11    1    3    3    0    0  0.97701425241E-01  0.31861830279E+01  0.45607622626E+00  0.32201418666E+01  0.51100000000E-03 0. -1.
        -11    1    3    3    0    0  0.31471671215E+01 -0.14369819028E+01 -0.16388909697E+01  0.38282557061E+01  0.51100000000E-03 0.  1.
        -12    1    3    3    0    0 -0.16195032699E+02 -0.40260368373E+02  0.27155113976E+01  0.43480459379E+02  0.00000000000E+00 0.  1.
</event>
<event>
 7    1  0.5479172E-013  0.5052886E+02  0.7816164E-02  0.1300439E+00
        -11   -1    0    0    0    0  0.00000000000E+00  0.00000000000E+00  0.45593999997E+02  0.45594000000E+02  0.51100000000E-03 0.  1.
         11   -1    0    0    0    0 -0.00000000000E+00 -0.00000000000E+00 -0.45593999997E+02  0.45594000000E+02  0.51100000000E-03 0. -1.
    9900012    2    1    2    0    0  0.23073395282E+02 -0.25866007558E+02  0.21254037828E+02  0.50528855385E+02  0.29999986428E+02 0.  0.
         12    1    1    2    0    0 -0.23073395282E+02  0.25866007558E+02 -0.21254037828E+02  0.40659144615E+02  0.00000000000E+00 0. -1.
         11    1    3    3    0    0 -0.50821986974E+01 -0.14015186087E+02  0.54918332168E+01  0.15887555413E+02  0.51100000000E-03 0. -1.
        -11    1    3    3    0    0  0.24344999494E+01 -0.24729938044E+01  0.17650140730E+01  0.38932972272E+01  0.51100000000E-03 0.  1.
         12    1    3    3    0    0  0.25721094030E+02 -0.93778276667E+01  0.13997190538E+02  0.30748002745E+02  0.00000000000E+00 0. -1.
</event>
<event>
 7    1  0.5479172E-013  0.5052895E+02  0.7816164E-02  0.1300438E+00
        -11   -1    0    0    0    0  0.00000000000E+00  0.00000000000E+00  0.45593999997E+02  0.45594000000E+02  0.51100000000E-03 0.  1.
         11   -1    0    0    0    0 -0.00000000000E+00 -0.00000000000E+00 -0.45593999997E+02  0.45594000000E+02  0.51100000000E-03 0. -1.
    9900012    2    1    2    0    0  0.14406222589E+02  0.37990807778E+02 -0.15224088986E+01  0.50528948686E+02  0.30000270025E+02 0.  0.
         12    1    1    2    0    0 -0.14406222589E+02 -0.37990807778E+02  0.15224088986E+01  0.40659051314E+02  0.00000000000E+00 0. -1.
         11    1    3    3    0    0  0.16420691140E+01  0.88097013129E+01  0.32176833552E+00  0.89672048778E+01  0.51100000000E-03 0. -1.
        -11    1    3    3    0    0 -0.55106355865E+01  0.19507923431E+02  0.25256056670E+01  0.20428041154E+02  0.51100000000E-03 0.  1.
        -12    1    3    3    0    0  0.18274789062E+02  0.96731830339E+01 -0.43697829011E+01  0.21133702654E+02  0.00000000000E+00 0.  1.
</event>
<event>
 7    1  0.5479172E-013  0.5052887E+02  0.7816164E-02  0.1300439E+00
        -11   -1    0    0    0    0  0.00000000000E+00  0.00000000000E+00  0.45593999997E+02  0.45594000000E+02  0.51100000000E-03 0.  1.
         11   -1    0    0    0    0 -0.00000000000E+00 -0.00000000000E+00 -0.45593999997E+02  0.45594000000E+02  0.51100000000E-03 0. -1.
    9900012    2    1    2    0    0 -0.18562325686E+02 -0.32899920849E+02  0.15039951295E+02  0.50528869885E+02  0.30000030502E+02 0.  0.
         12    1    1    2    0    0  0.18562325686E+02  0.32899920849E+02 -0.15039951295E+02  0.40659130115E+02  0.00000000000E+00 0. -1.
         11    1    3    3    0    0  0.30966811687E+00 -0.49310915970E+01  0.11120395905E+02  0.12168597455E+02  0.51100000000E-03 0. -1.
        -11    1    3    3    0    0  0.30945545440E+01 -0.65421366998E+01  0.24445080726E+01  0.76388114522E+01  0.51100000000E-03 0.  1.
        -12    1    3    3    0    0 -0.21966548346E+02 -0.21426692552E+02  0.14750473175E+01  0.30721460977E+02  0.00000000000E+00 0.  1.
</event>
<event>
 7    1  0.5479172E-013  0.5052886E+02  0.7816164E-02  0.1300439E+00
        -11   -1    0    0    0    0  0.00000000000E+00  0.00000000000E+00  0.45593999997E+02  0.45594000000E+02  0.51100000000E-03 0.  1.
         11   -1    0    0    0    0 -0.00000000000E+00 -0.00000000000E+00 -0.45593999997E+02  0.45594000000E+02  0.51100000000E-03 0. -1.
    9900012    2    1    2    0    0  0.38323135746E+02  0.65866564062E+01  0.11879332458E+02  0.50528864302E+02  0.30000013532E+02 0.  0.
         12    1    1    2    0    0 -0.38323135746E+02 -0.65866564062E+01 -0.11879332458E+02  0.40659135698E+02  0.00000000000E+00 0. -1.
         11    1    3    3    0    0  0.17330715688E+02 -0.24455453009E+01  0.17104393753E+02  0.24472324859E+02  0.51100000000E-03 0. -1.
        -11    1    3    3    0    0  0.39425717260E+01 -0.14358469989E+01  0.21735119033E+01  0.47254293640E+01  0.51100000000E-03 0.  1.
         12    1    3    3    0    0  0.17049848332E+02  0.10468048706E+02 -0.73985731974E+01  0.21331110080E+02  0.00000000000E+00 0. -1.
</event>
<event>
 7    1  0.5479172E-013  0.5052885E+02  0.7816164E-02  0.1300439E+00
        -11   -1    0    0    0    0  0.00000000000E+00  0.00000000000E+00  0.45593999997E+02  0.45594000000E+02  0.51100000000E-03 0.  1.
         11   -1    0    0    0    0 -0.00000000000E+00 -0.00000000000E+00 -0.45593999997E+02  0.45594000000E+02  0.51100000000E-03 0. -1.
    9900012    2    1    2    0    0 -0.19293228884E+02  0.35602233614E+02 -0.36631752885E+01  0.50528848849E+02  0.29999966563E+02 0.  0.
         12    1    1    2    0    0  0.19293228884E+02 -0.35602233614E+02  0.36631752885E+01  0.40659151151E+02  0.00000000000E+00 0. -1.
         11    1    3    3    0    0  0.79327684959E+00 -0.26446719480E+01  0.69343857124E+00  0.28468289702E+01  0.51100000000E-03 0. -1.
        -11    1    3    3    0    0 -0.10180974020E+01 -0.15841362562E+01 -0.29496516699E+01  0.34994935681E+01  0.51100000000E-03 0.  1.
        -12    1    3    3    0    0 -0.19068408332E+02  0.39831041818E+02 -0.14069621899E+01  0.44182526311E+02  0.00000000000E+00 0.  1.
</event>
<event>
 7    1  0.5479172E-013  0.5052886E+02  0.7816164E-02  0.1300439E+00
        -11   -1    0    0    0    0  0.00000000000E+00  0.00000000000E+00  0.45593999997E+02  0.45594000000E+02  0.51100000000E-03 0.  1.
         11   -1    0    0    0    0 -0.00000000000E+00 -0.00000000000E+00 -0.45593999997E+02  0.45594000000E+02  0.51100000000E-03 0. -1.
    9900012    2    1    2    0    0 -0.23067061214E+02  0.22790870253E+01  0.33404818842E+02  0.50528862373E+02  0.30000007668E+02 0.  0.
         12    1    1    2    0    0  0.23067061214E+02 -0.22790870253E+01 -0.33404818842E+02  0.40659137627E+02  0.00000000000E+00 0. -1.
         11    1    3    3    0    0 -0.82543787963E+01 -0.54404658728E+01  0.85330887486E+01  0.13059366067E+02  0.51100000000E-03 0.  1.
        -11    1    3    3    0    0 -0.83816071797E+01  0.14802768342E+02  0.21295742137E+02  0.27255860341E+02  0.51100000000E-03 0. -1.
         12    1    3    3    0    0 -0.64310752378E+01 -0.70832154441E+01  0.35759879569E+01  0.10213635964E+02  0.00000000000E+00 0. -1.
</event>
<event>
 7    1  0.5479172E-013  0.5052891E+02  0.7816164E-02  0.1300439E+00
        -11   -1    0    0    0    0  0.00000000000E+00  0.00000000000E+00  0.45593999997E+02  0.45594000000E+02  0.51100000000E-03 0.  1.
         11   -1    0    0    0    0 -0.00000000000E+00 -0.00000000000E+00 -0.45593999997E+02  0.45594000000E+02  0.51100000000E-03 0. -1.
    9900012    2    1    2    0    0  0.26071060513E+02  0.71947382881E+01  0.30359459753E+02  0.50528914277E+02  0.30000165436E+02 0.  0.
         12    1    1    2    0    0 -0.26071060513E+02 -0.71947382881E+01 -0.30359459753E+02  0.40659085723E+02  0.00000000000E+00 0. -1.
         11    1    3    3    0    0  0.14398786790E+02  0.73802417762E+01  0.25232213229E+02  0.29974282550E+02  0.51100000000E-03 0. -1.
        -11    1    3    3    0    0  0.87835841786E+01  0.40864812118E+01  0.96657691843E+01  0.13684946982E+02  0.51100000000E-03 0.  1.
         12    1    3    3    0    0  0.28886895441E+01 -0.42719846999E+01 -0.45385226599E+01  0.68696847447E+01  0.00000000000E+00 0. -1.
</event>
<event>
 7    1  0.5479172E-013  0.5052889E+02  0.7816164E-02  0.1300439E+00
        -11   -1    0    0    0    0  0.00000000000E+00  0.00000000000E+00  0.45593999997E+02  0.45594000000E+02  0.51100000000E-03 0. -1.
         11   -1    0    0    0    0 -0.00000000000E+00 -0.00000000000E+00 -0.45593999997E+02  0.45594000000E+02  0.51100000000E-03 0.  1.
    9900012    2    1    2    0    0 -0.15631804471E+02 -0.35129295140E+02 -0.13219021408E+02  0.50528890135E+02  0.30000092054E+02 0.  0.
         12    1    1    2    0    0  0.15631804471E+02  0.35129295140E+02  0.13219021408E+02  0.40659109865E+02  0.00000000000E+00 0. -1.
         11    1    3    3    0    0  0.12042934201E+00  0.24953331517E+01 -0.18899967047E+01  0.31326152923E+01  0.51100000000E-03 0. -1.
        -11    1    3    3    0    0 -0.16171234008E+02 -0.13653081019E+02 -0.99368373983E+01  0.23380679383E+02  0.51100000000E-03 0.  1.
        -12    1    3    3    0    0  0.41900019563E+00 -0.23971547272E+02 -0.13921873054E+01  0.24015595459E+02  0.00000000000E+00 0.  1.
</event>
<event>
 7    1  0.5479172E-013  0.5052886E+02  0.7816164E-02  0.1300439E+00
        -11   -1    0    0    0    0  0.00000000000E+00  0.00000000000E+00  0.45593999997E+02  0.45594000000E+02  0.51100000000E-03 0. -1.
         11   -1    0    0    0    0 -0.00000000000E+00 -0.00000000000E+00 -0.45593999997E+02  0.45594000000E+02  0.51100000000E-03 0.  1.
    9900012    2    1    2    0    0  0.34454106531E+01  0.11332707351E+02 -0.38895561586E+02  0.50528858082E+02  0.29999994625E+02 0.  0.
         12    1    1    2    0    0 -0.34454106531E+01 -0.11332707351E+02  0.38895561586E+02  0.40659141918E+02  0.00000000000E+00 0. -1.
         11    1    3    3    0    0  0.75818009156E+00  0.39407101469E+01 -0.14445410852E+02  0.14992462388E+02  0.51100000000E-03 0. -1.
        -11    1    3    3    0    0  0.37282613131E+01  0.99652464034E+01 -0.28616239257E+02  0.30530234486E+02  0.51100000000E-03 0.  1.
         12    1    3    3    0    0 -0.10410307516E+01 -0.25732491992E+01  0.41660885226E+01  0.50061612084E+01  0.00000000000E+00 0. -1.
</event>
<event>
 7    1  0.5479172E-013  0.5052886E+02  0.7816164E-02  0.1300439E+00
        -11   -1    0    0    0    0  0.00000000000E+00  0.00000000000E+00  0.45593999997E+02  0.45594000000E+02  0.51100000000E-03 0.  1.
         11   -1    0    0    0    0 -0.00000000000E+00 -0.00000000000E+00 -0.45593999997E+02  0.45594000000E+02  0.51100000000E-03 0. -1.
    9900012    2    1    2    0    0  0.23345419819E+02 -0.11974670452E+02  0.31060652927E+02  0.50528861800E+02  0.30000005926E+02 0.  0.
         12    1    1    2    0    0 -0.23345419819E+02  0.11974670452E+02 -0.31060652927E+02  0.40659138200E+02  0.00000000000E+00 0. -1.
         11    1    3    3    0    0  0.34886036951E+01 -0.63863445048E+00  0.77139300227E-01  0.35474160223E+01  0.51100000000E-03 0. -1.
        -11    1    3    3    0    0  0.11817111141E+02  0.65113982158E+01  0.48667062492E+01  0.14343195335E+02  0.51100000000E-03 0.  1.
        -12    1    3    3    0    0  0.80397049831E+01 -0.17847434217E+02  0.26116807377E+02  0.32638250442E+02  0.00000000000E+00 0.  1.
</event>
<event>
 7    1  0.5479172E-013  0.5052885E+02  0.7816164E-02  0.1300439E+00
        -11   -1    0    0    0    0  0.00000000000E+00  0.00000000000E+00  0.45593999997E+02  0.45594000000E+02  0.51100000000E-03 0.  1.
         11   -1    0    0    0    0 -0.00000000000E+00 -0.00000000000E+00 -0.45593999997E+02  0.45594000000E+02  0.51100000000E-03 0. -1.
    9900012    2    1    2    0    0 -0.25612744394E+02  0.29145813946E+02  0.12152187139E+02  0.50528846071E+02  0.29999958118E+02 0.  0.
         12    1    1    2    0    0  0.25612744394E+02 -0.29145813946E+02 -0.12152187139E+02  0.40659153929E+02  0.00000000000E+00 0. -1.
         11    1    3    3    0    0 -0.14360329255E+02  0.14924513324E+02  0.24829675269E+01  0.20859656811E+02  0.51100000000E-03 0. -1.
        -11    1    3    3    0    0 -0.94299805700E+00  0.17125659087E+02  0.76020097092E+01  0.18760810121E+02  0.51100000000E-03 0.  1.
        -12    1    3    3    0    0 -0.10309417082E+02 -0.29043584659E+01  0.20672099025E+01  0.10908379139E+02  0.00000000000E+00 0.  1.
</event>
<event>
 7    1  0.5479172E-013  0.5052885E+02  0.7816164E-02  0.1300439E+00
        -11   -1    0    0    0    0  0.00000000000E+00  0.00000000000E+00  0.45593999997E+02  0.45594000000E+02  0.51100000000E-03 0. -1.
         11   -1    0    0    0    0 -0.00000000000E+00 -0.00000000000E+00 -0.45593999997E+02  0.45594000000E+02  0.51100000000E-03 0.  1.
    9900012    2    1    2    0    0 -0.75602663500E+01 -0.37442404090E+02  0.13931090964E+02  0.50528849164E+02  0.29999967518E+02 0.  0.
         12    1    1    2    0    0  0.75602663500E+01  0.37442404090E+02 -0.13931090964E+02  0.40659150836E+02  0.00000000000E+00 0. -1.
         11    1    3    3    0    0 -0.63597067482E+01 -0.63351404074E+01 -0.27277898274E+01  0.93819353818E+01  0.51100000000E-03 0. -1.
        -11    1    3    3    0    0 -0.10573090769E+02 -0.20701453611E+02  0.75494952631E+01  0.24440444124E+02  0.51100000000E-03 0.  1.
         12    1    3    3    0    0  0.93725311669E+01 -0.10405810072E+02  0.91093855282E+01  0.16706469658E+02  0.00000000000E+00 0. -1.
</event>
<event>
 7    1  0.5479172E-013  0.5052886E+02  0.7816164E-02  0.1300439E+00
        -11   -1    0    0    0    0  0.00000000000E+00  0.00000000000E+00  0.45593999997E+02  0.45594000000E+02  0.51100000000E-03 0.  1.
         11   -1    0    0    0    0 -0.00000000000E+00 -0.00000000000E+00 -0.45593999997E+02  0.45594000000E+02  0.51100000000E-03 0. -1.
    9900012    2    1    2    0    0  0.25575872882E+02  0.99506627291E+01  0.30000413076E+02  0.50528858996E+02  0.29999997405E+02 0.  0.
         12    1    1    2    0    0 -0.25575872882E+02 -0.99506627291E+01 -0.30000413076E+02  0.40659141004E+02  0.00000000000E+00 0. -1.
         11    1    3    3    0    0  0.32186008165E+00 -0.39479458045E+01  0.81128921828E+01  0.90282273907E+01  0.51100000000E-03 0. -1.
        -11    1    3    3    0    0 -0.17040773831E+01  0.66906861730E+01  0.18536339379E+01  0.71487845282E+01  0.51100000000E-03 0.  1.
        -12    1    3    3    0    0  0.26958090184E+02  0.72079223607E+01  0.20033886955E+02  0.34351847077E+02  0.00000000000E+00 0.  1.
</event>
<event>
 7    1  0.5479172E-013  0.5052884E+02  0.7816164E-02  0.1300439E+00
        -11   -1    0    0    0    0  0.00000000000E+00  0.00000000000E+00  0.45593999997E+02  0.45594000000E+02  0.51100000000E-03 0. -1.
         11   -1    0    0    0    0 -0.00000000000E+00 -0.00000000000E+00 -0.45593999997E+02  0.45594000000E+02  0.51100000000E-03 0.  1.
    9900012    2    1    2    0    0  0.29823182076E+02  0.21866577972E+02  0.16899637868E+02  0.50528841359E+02  0.29999943794E+02 0.  0.
         12    1    1    2    0    0 -0.29823182076E+02 -0.21866577972E+02 -0.16899637868E+02  0.40659158641E+02  0.00000000000E+00 0. -1.
         11    1    3    3    0    0  0.39110553924E+01  0.17543143889E+02  0.34649770288E+01  0.18304762163E+02  0.51100000000E-03 0. -1.
        -11    1    3    3    0    0  0.33735624113E+01  0.43486624690E+01 -0.80754015021E+00  0.55627250487E+01  0.51100000000E-03 0.  1.
        -12    1    3    3    0    0  0.22538564272E+02 -0.25228385625E-01  0.14242200990E+02  0.26661354147E+02  0.00000000000E+00 0.  1.
</event>
<event>
 7    1  0.5479172E-013  0.5052887E+02  0.7816164E-02  0.1300439E+00
        -11   -1    0    0    0    0  0.00000000000E+00  0.00000000000E+00  0.45593999997E+02  0.45594000000E+02  0.51100000000E-03 0.  1.
         11   -1    0    0    0    0 -0.00000000000E+00 -0.00000000000E+00 -0.45593999997E+02  0.45594000000E+02  0.51100000000E-03 0. -1.
    9900012    2    1    2    0    0  0.10671830295E+02  0.64218671381E+01  0.38704476933E+02  0.50528869733E+02  0.30000030041E+02 0.  0.
         12    1    1    2    0    0 -0.10671830295E+02 -0.64218671381E+01 -0.38704476933E+02  0.40659130267E+02  0.00000000000E+00 0. -1.
         11    1    3    3    0    0  0.90015325084E+01  0.46202166671E+01  0.26213470308E+02  0.28098398804E+02  0.51100000000E-03 0. -1.
        -11    1    3    3    0    0  0.66950734996E+01  0.79260052932E+01  0.91474472749E+01  0.13831896507E+02  0.51100000000E-03 0.  1.
         12    1    3    3    0    0 -0.50247757132E+01 -0.61243548222E+01  0.33435593507E+01  0.85985744219E+01  0.00000000000E+00 0. -1.
</event>
<event>
 7    1  0.5479172E-013  0.5052889E+02  0.7816164E-02  0.1300439E+00
        -11   -1    0    0    0    0  0.00000000000E+00  0.00000000000E+00  0.45593999997E+02  0.45594000000E+02  0.51100000000E-03 0.  1.
         11   -1    0    0    0    0 -0.00000000000E+00 -0.00000000000E+00 -0.45593999997E+02  0.45594000000E+02  0.51100000000E-03 0. -1.
    9900012    2    1    2    0    0  0.37190949222E+02  0.67081093076E+01  0.14999938370E+02  0.50528885577E+02  0.30000078200E+02 0.  0.
         12    1    1    2    0    0 -0.37190949222E+02 -0.67081093076E+01 -0.14999938370E+02  0.40659114423E+02  0.00000000000E+00 0. -1.
         11    1    3    3    0    0  0.10204587368E+02  0.63044761179E+00  0.19932311707E+01  0.10416527171E+02  0.51100000000E-03 0.  1.
        -11    1    3    3    0    0  0.27755045939E+02 -0.33344252042E+01  0.66681946006E+01  0.28738924580E+02  0.51100000000E-03 0. -1.
         12    1    3    3    0    0 -0.76868408475E+00  0.94120869000E+01  0.63385125991E+01  0.11373433826E+02  0.00000000000E+00 0. -1.
</event>
<event>
 7    1  0.5479172E-013  0.5052886E+02  0.7816164E-02  0.1300439E+00
        -11   -1    0    0    0    0  0.00000000000E+00  0.00000000000E+00  0.45593999997E+02  0.45594000000E+02  0.51100000000E-03 0.  1.
         11   -1    0    0    0    0 -0.00000000000E+00 -0.00000000000E+00 -0.45593999997E+02  0.45594000000E+02  0.51100000000E-03 0. -1.
    9900012    2    1    2    0    0  0.63058466784E+01 -0.35926870290E+02 -0.17962785847E+02  0.50528863431E+02  0.30000010884E+02 0.  0.
         12    1    1    2    0    0 -0.63058466784E+01  0.35926870290E+02  0.17962785847E+02  0.40659136569E+02  0.00000000000E+00 0. -1.
         11    1    3    3    0    0 -0.45749516791E+01 -0.23076334086E+02 -0.15201375144E+02  0.28009448125E+02  0.51100000000E-03 0. -1.
        -11    1    3    3    0    0 -0.13490782987E+01 -0.79892463473E+01 -0.44614142665E+01  0.92494479279E+01  0.51100000000E-03 0.  1.
         12    1    3    3    0    0  0.12229876656E+02 -0.48612898563E+01  0.17000035632E+01  0.13269967378E+02  0.00000000000E+00 0. -1.
</event>
<event>
 7    1  0.5479172E-013  0.5052888E+02  0.7816164E-02  0.1300439E+00
        -11   -1    0    0    0    0  0.00000000000E+00  0.00000000000E+00  0.45593999997E+02  0.45594000000E+02  0.51100000000E-03 0.  1.
         11   -1    0    0    0    0 -0.00000000000E+00 -0.00000000000E+00 -0.45593999997E+02  0.45594000000E+02  0.51100000000E-03 0. -1.
    9900012    2    1    2    0    0 -0.38580416677E+02 -0.41046672681E+01  0.12160051399E+02  0.50528884240E+02  0.30000074136E+02 0.  0.
         12    1    1    2    0    0  0.38580416677E+02  0.41046672681E+01 -0.12160051399E+02  0.40659115760E+02  0.00000000000E+00 0. -1.
         11    1    3    3    0    0 -0.20669402748E+01  0.24133403017E+01 -0.14649834202E+01  0.34989470122E+01  0.51100000000E-03 0. -1.
        -11    1    3    3    0    0  0.21499651691E+00  0.31360452567E+01  0.80561980759E+01  0.86477356027E+01  0.51100000000E-03 0.  1.
        -12    1    3    3    0    0 -0.36728472919E+02 -0.96540528265E+01  0.55688367433E+01  0.38382201625E+02  0.00000000000E+00 0.  1.
</event>
<event>
 7    1  0.5479172E-013  0.5052886E+02  0.7816164E-02  0.1300439E+00
        -11   -1    0    0    0    0  0.00000000000E+00  0.00000000000E+00  0.45593999997E+02  0.45594000000E+02  0.51100000000E-03 0.  1.
         11   -1    0    0    0    0 -0.00000000000E+00 -0.00000000000E+00 -0.45593999997E+02  0.45594000000E+02  0.51100000000E-03 0. -1.
    9900012    2    1    2    0    0 -0.11167766038E+02 -0.35778164011E+02  0.15759739842E+02  0.50528863042E+02  0.30000009703E+02 0.  0.
         12    1    1    2    0    0  0.11167766038E+02  0.35778164011E+02 -0.15759739842E+02  0.40659136958E+02  0.00000000000E+00 0. -1.
         11    1    3    3    0    0  0.26014664559E+01 -0.67840091278E+01 -0.46717718576E+01  0.86380472399E+01  0.51100000000E-03 0. -1.
        -11    1    3    3    0    0 -0.95946581262E+01 -0.27159656714E+02  0.99742373594E+01  0.30482615186E+02  0.51100000000E-03 0.  1.
         12    1    3    3    0    0 -0.41745743674E+01 -0.18344981685E+01  0.10457274340E+02  0.11408200617E+02  0.00000000000E+00 0. -1.
</event>
<event>
 7    1  0.5479172E-013  0.5052887E+02  0.7816164E-02  0.1300439E+00
        -11   -1    0    0    0    0  0.00000000000E+00  0.00000000000E+00  0.45593999997E+02  0.45594000000E+02  0.51100000000E-03 0.  1.
         11   -1    0    0    0    0 -0.00000000000E+00 -0.00000000000E+00 -0.45593999997E+02  0.45594000000E+02  0.51100000000E-03 0. -1.
    9900012    2    1    2    0    0 -0.37581979284E+01 -0.40404471333E+02 -0.25533643053E+01  0.50528867881E+02  0.30000024412E+02 0.  0.
         12    1    1    2    0    0  0.37581979284E+01  0.40404471333E+02  0.25533643053E+01  0.40659132119E+02  0.00000000000E+00 0. -1.
         11    1    3    3    0    0  0.22310829068E+01  0.21396047168E+01 -0.45488943060E+01  0.54998253562E+01  0.51100000000E-03 0. -1.
        -11    1    3    3    0    0  0.35558313334E+01 -0.43783962011E+01  0.72188054563E-01  0.56408776925E+01  0.51100000000E-03 0.  1.
        -12    1    3    3    0    0 -0.95451121686E+01 -0.38165679849E+02  0.19233419461E+01  0.39388164833E+02  0.00000000000E+00 0.  1.
</event>
<event>
 7    1  0.5479172E-013  0.5052890E+02  0.7816164E-02  0.1300439E+00
        -11   -1    0    0    0    0  0.00000000000E+00  0.00000000000E+00  0.45593999997E+02  0.45594000000E+02  0.51100000000E-03 0.  1.
         11   -1    0    0    0    0 -0.00000000000E+00 -0.00000000000E+00 -0.45593999997E+02  0.45594000000E+02  0.51100000000E-03 0. -1.
    9900012    2    1    2    0    0 -0.19283582490E+02 -0.27615624046E+02  0.22774619618E+02  0.50528898389E+02  0.30000117143E+02 0.  0.
         12    1    1    2    0    0  0.19283582490E+02  0.27615624046E+02 -0.22774619618E+02  0.40659101611E+02  0.00000000000E+00 0. -1.
         11    1    3    3    0    0 -0.91383836824E+01 -0.30938919091E+01  0.15235198979E+02  0.18033122627E+02  0.51100000000E-03 0. -1.
        -11    1    3    3    0    0 -0.35599466701E+01  0.17211777219E+01  0.32141053622E+01  0.50956988318E+01  0.51100000000E-03 0.  1.
         12    1    3    3    0    0 -0.65852521370E+01 -0.26242909859E+02  0.43253152759E+01  0.27400076930E+02  0.00000000000E+00 0. -1.
</event>
<event>
 7    1  0.5479172E-013  0.5052886E+02  0.7816164E-02  0.1300439E+00
        -11   -1    0    0    0    0  0.00000000000E+00  0.00000000000E+00  0.45593999997E+02  0.45594000000E+02  0.51100000000E-03 0.  1.
         11   -1    0    0    0    0 -0.00000000000E+00 -0.00000000000E+00 -0.45593999997E+02  0.45594000000E+02  0.51100000000E-03 0. -1.
    9900012    2    1    2    0    0 -0.32370529195E+02  0.22572219272E+02  0.97882264359E+01  0.50528860560E+02  0.30000002157E+02 0.  0.
         12    1    1    2    0    0  0.32370529195E+02 -0.22572219272E+02 -0.97882264359E+01  0.40659139440E+02  0.00000000000E+00 0. -1.
         11    1    3    3    0    0  0.38015548937E+00  0.16979213898E+01 -0.31937349326E+01  0.36369490405E+01  0.51100000000E-03 0. -1.
        -11    1    3    3    0    0 -0.10388632034E+02  0.97794176164E+01 -0.60540685469E+01  0.15498788039E+02  0.51100000000E-03 0.  1.
        -12    1    3    3    0    0 -0.22362052651E+02  0.11094880266E+02  0.19036029915E+02  0.31393123480E+02  0.00000000000E+00 0.  1.
</event>
<event>
 7    1  0.5479172E-013  0.5052897E+02  0.7816164E-02  0.1300438E+00
        -11   -1    0    0    0    0  0.00000000000E+00  0.00000000000E+00  0.45593999997E+02  0.45594000000E+02  0.51100000000E-03 0.  1.
         11   -1    0    0    0    0 -0.00000000000E+00 -0.00000000000E+00 -0.45593999997E+02  0.45594000000E+02  0.51100000000E-03 0. -1.
    9900012    2    1    2    0    0 -0.83167752686E+00 -0.40564756814E+02 -0.26393040336E+01  0.50528965227E+02  0.30000320303E+02 0.  0.
         12    1    1    2    0    0  0.83167752686E+00  0.40564756814E+02  0.26393040336E+01  0.40659034773E+02  0.00000000000E+00 0. -1.
         11    1    3    3    0    0  0.49636070604E+01 -0.84971519589E+01 -0.28656718176E+01  0.10249442018E+02  0.51100000000E-03 0. -1.
        -11    1    3    3    0    0 -0.97772785636E-01 -0.26177586174E+02 -0.92383985302E+01  0.27760107800E+02  0.51100000000E-03 0.  1.
        -12    1    3    3    0    0 -0.56975118016E+01 -0.58900186809E+01  0.94647663142E+01  0.12519415409E+02  0.00000000000E+00 0.  1.
</event>
<event>
 7    1  0.5479172E-013  0.5052886E+02  0.7816164E-02  0.1300439E+00
        -11   -1    0    0    0    0  0.00000000000E+00  0.00000000000E+00  0.45593999997E+02  0.45594000000E+02  0.51100000000E-03 0. -1.
         11   -1    0    0    0    0 -0.00000000000E+00 -0.00000000000E+00 -0.45593999997E+02  0.45594000000E+02  0.51100000000E-03 0.  1.
    9900012    2    1    2    0    0 -0.38001122745E+02 -0.99316657437E+01 -0.10509142518E+02  0.50528863379E+02  0.30000010726E+02 0.  0.
         12    1    1    2    0    0  0.38001122745E+02  0.99316657437E+01  0.10509142518E+02  0.40659136621E+02  0.00000000000E+00 0. -1.
         11    1    3    3    0    0 -0.53327597381E+01 -0.52478009682E+01  0.43254663450E+00  0.74943204014E+01  0.51100000000E-03 0. -1.
        -11    1    3    3    0    0 -0.21087758997E+02 -0.12459393359E+02 -0.14728642929E+02  0.28580814984E+02  0.51100000000E-03 0.  1.
        -12    1    3    3    0    0 -0.11580604010E+02  0.77755285831E+01  0.37869537766E+01  0.14453727993E+02  0.00000000000E+00 0.  1.
</event>
<event>
 7    1  0.5479172E-013  0.5052886E+02  0.7816164E-02  0.1300439E+00
        -11   -1    0    0    0    0  0.00000000000E+00  0.00000000000E+00  0.45593999997E+02  0.45594000000E+02  0.51100000000E-03 0.  1.
         11   -1    0    0    0    0 -0.00000000000E+00 -0.00000000000E+00 -0.45593999997E+02  0.45594000000E+02  0.51100000000E-03 0. -1.
    9900012    2    1    2    0    0 -0.35688426400E+02  0.86192713779E+01  0.17470265518E+02  0.50528858405E+02  0.29999995607E+02 0.  0.
         12    1    1    2    0    0  0.35688426400E+02 -0.86192713779E+01 -0.17470265518E+02  0.40659141595E+02  0.00000000000E+00 0. -1.
         11    1    3    3    0    0 -0.18348787069E+00  0.35246224435E+01  0.18560833061E+01  0.39876906435E+01  0.51100000000E-03 0. -1.
        -11    1    3    3    0    0 -0.28830742277E+02  0.26624523082E+01 -0.47102083624E+00  0.28957248029E+02  0.51100000000E-03 0.  1.
         12    1    3    3    0    0 -0.66741962522E+01  0.24321966262E+01  0.16085203049E+02  0.17583919732E+02  0.00000000000E+00 0. -1.
</event>
<event>
 7    1  0.5479172E-013  0.5052886E+02  0.7816164E-02  0.1300439E+00
        -11   -1    0    0    0    0  0.00000000000E+00  0.00000000000E+00  0.45593999997E+02  0.45594000000E+02  0.51100000000E-03 0. -1.
         11   -1    0    0    0    0 -0.00000000000E+00 -0.00000000000E+00 -0.45593999997E+02  0.45594000000E+02  0.51100000000E-03 0.  1.
    9900012    2    1    2    0    0 -0.13182473624E+02 -0.12448009619E+02 -0.36392790220E+02  0.50528859154E+02  0.29999997885E+02 0.  0.
         12    1    1    2    0    0  0.13182473624E+02  0.12448009619E+02  0.36392790220E+02  0.40659140846E+02  0.00000000000E+00 0. -1.
         11    1    3    3    0    0 -0.92762280673E+01  0.30830463773E+01 -0.23692132796E+02  0.25629489632E+02  0.51100000000E-03 0. -1.
        -11    1    3    3    0    0 -0.81618067329E+00  0.82552930414E+00 -0.73111020559E+01  0.74026929598E+01  0.51100000000E-03 0.  1.
         12    1    3    3    0    0 -0.30900648836E+01 -0.16356585300E+02 -0.53895553686E+01  0.17496676563E+02  0.00000000000E+00 0. -1.
</event>
<event>
 7    1  0.5479172E-013  0.5052889E+02  0.7816164E-02  0.1300439E+00
        -11   -1    0    0    0    0  0.00000000000E+00  0.00000000000E+00  0.45593999997E+02  0.45594000000E+02  0.51100000000E-03 0.  1.
         11   -1    0    0    0    0 -0.00000000000E+00 -0.00000000000E+00 -0.45593999997E+02  0.45594000000E+02  0.51100000000E-03 0. -1.
    9900012    2    1    2    0    0  0.14378175130E+02 -0.11656331303E+02  0.36201672467E+02  0.50528891931E+02  0.30000097514E+02 0.  0.
         12    1    1    2    0    0 -0.14378175130E+02  0.11656331303E+02 -0.36201672467E+02  0.40659108069E+02  0.00000000000E+00 0. -1.
         11    1    3    3    0    0  0.17012385173E+02 -0.90473041219E+01  0.15382126990E+02  0.24655319753E+02  0.51100000000E-03 0. -1.
        -11    1    3    3    0    0 -0.40861231000E-02 -0.72576612634E+01  0.18819201300E+02  0.20170176041E+02  0.51100000000E-03 0.  1.
         12    1    3    3    0    0 -0.26301239197E+01  0.46486340821E+01  0.20003441772E+01  0.57033961365E+01  0.00000000000E+00 0. -1.
</event>
<event>
 7    1  0.5479172E-013  0.5052886E+02  0.7816164E-02  0.1300439E+00
        -11   -1    0    0    0    0  0.00000000000E+00  0.00000000000E+00  0.45593999997E+02  0.45594000000E+02  0.51100000000E-03 0.  1.
         11   -1    0    0    0    0 -0.00000000000E+00 -0.00000000000E+00 -0.45593999997E+02  0.45594000000E+02  0.51100000000E-03 0. -1.
    9900012    2    1    2    0    0 -0.67283096593E+01  0.86293644903E+01  0.39159033165E+02  0.50528856370E+02  0.29999989421E+02 0.  0.
         12    1    1    2    0    0  0.67283096593E+01 -0.86293644903E+01 -0.39159033165E+02  0.40659143630E+02  0.00000000000E+00 0. -1.
         11    1    3    3    0    0  0.34014243671E+01  0.82371847591E+01  0.17525710253E+02  0.19661419598E+02  0.51100000000E-03 0. -1.
        -11    1    3    3    0    0  0.22099432759E+01  0.21865460766E+01 -0.23090498748E+01  0.38725372319E+01  0.51100000000E-03 0.  1.
         12    1    3    3    0    0 -0.12339677302E+02 -0.17943663454E+01  0.23942372786E+02  0.26994899539E+02  0.00000000000E+00 0. -1.
</event>
<event>
 7    1  0.5479172E-013  0.5052886E+02  0.7816164E-02  0.1300439E+00
        -11   -1    0    0    0    0  0.00000000000E+00  0.00000000000E+00  0.45593999997E+02  0.45594000000E+02  0.51100000000E-03 0.  1.
         11   -1    0    0    0    0 -0.00000000000E+00 -0.00000000000E+00 -0.45593999997E+02  0.45594000000E+02  0.51100000000E-03 0. -1.
    9900012    2    1    2    0    0  0.37084072650E+02 -0.13438605683E+02  0.98661657175E+01  0.50528858433E+02  0.29999995692E+02 0.  0.
         12    1    1    2    0    0 -0.37084072650E+02  0.13438605683E+02 -0.98661657175E+01  0.40659141567E+02  0.00000000000E+00 0. -1.
         11    1    3    3    0    0  0.15637542755E+02 -0.11337136646E+01 -0.51600671375E+01  0.16505888138E+02  0.51100000000E-03 0. -1.
        -11    1    3    3    0    0  0.43749121205E+00 -0.48569744117E+01 -0.26723702082E+01  0.55608598064E+01  0.51100000000E-03 0.  1.
        -12    1    3    3    0    0  0.21009038683E+02 -0.74479176064E+01  0.17698603063E+02  0.28462110488E+02  0.00000000000E+00 0.  1.
</event>
<event>
 7    1  0.5479172E-013  0.5052886E+02  0.7816164E-02  0.1300439E+00
        -11   -1    0    0    0    0  0.00000000000E+00  0.00000000000E+00  0.45593999997E+02  0.45594000000E+02  0.51100000000E-03 0.  1.
         11   -1    0    0    0    0 -0.00000000000E+00 -0.00000000000E+00 -0.45593999997E+02  0.45594000000E+02  0.51100000000E-03 0. -1.
    9900012    2    1    2    0    0  0.80947661964E+01 -0.23391494857E+02  0.32256445271E+02  0.50528861631E+02  0.30000005412E+02 0.  0.
         12    1    1    2    0    0 -0.80947661964E+01  0.23391494857E+02 -0.32256445271E+02  0.40659138369E+02  0.00000000000E+00 0. -1.
         11    1    3    3    0    0  0.10340752908E+02 -0.84800927502E+01  0.26078991941E+00  0.13375767470E+02  0.51100000000E-03 0. -1.
        -11    1    3    3    0    0  0.74532700698E+00 -0.22158312603E+00 -0.78637947818E+00  0.11058952816E+01  0.51100000000E-03 0.  1.
        -12    1    3    3    0    0 -0.29913137188E+01 -0.14689818981E+02  0.32782034830E+02  0.36047198879E+02  0.00000000000E+00 0.  1.
</event>
<event>
 7    1  0.5479172E-013  0.5052886E+02  0.7816164E-02  0.1300439E+00
        -11   -1    0    0    0    0  0.00000000000E+00  0.00000000000E+00  0.45593999997E+02  0.45594000000E+02  0.51100000000E-03 0.  1.
         11   -1    0    0    0    0 -0.00000000000E+00 -0.00000000000E+00 -0.45593999997E+02  0.45594000000E+02  0.51100000000E-03 0. -1.
    9900012    2    1    2    0    0 -0.14210116343E+01  0.23082333468E+02  0.33441769193E+02  0.50528864260E+02  0.30000013404E+02 0.  0.
         12    1    1    2    0    0  0.14210116343E+01 -0.23082333468E+02 -0.33441769193E+02  0.40659135740E+02  0.00000000000E+00 0. -1.
         11    1    3    3    0    0 -0.24084575909E+01 -0.16412395032E+01  0.37642097620E+01  0.47606313098E+01  0.51100000000E-03 0. -1.
        -11    1    3    3    0    0 -0.24660790039E+01  0.26082403105E+01  0.21716681855E+02  0.22011331950E+02  0.51100000000E-03 0.  1.
        -12    1    3    3    0    0  0.34535249605E+01  0.22115332661E+02  0.79608775764E+01  0.23756901000E+02  0.00000000000E+00 0.  1.
</event>
<event>
 7    1  0.5479172E-013  0.5052887E+02  0.7816164E-02  0.1300439E+00
        -11   -1    0    0    0    0  0.00000000000E+00  0.00000000000E+00  0.45593999997E+02  0.45594000000E+02  0.51100000000E-03 0. -1.
         11   -1    0    0    0    0 -0.00000000000E+00 -0.00000000000E+00 -0.45593999997E+02  0.45594000000E+02  0.51100000000E-03 0.  1.
    9900012    2    1    2    0    0  0.31447476390E+02 -0.12893851931E+02 -0.22315237540E+02  0.50528867995E+02  0.30000024759E+02 0.  0.
         12    1    1    2    0    0 -0.31447476390E+02  0.12893851931E+02  0.22315237540E+02  0.40659132005E+02  0.00000000000E+00 0. -1.
         11    1    3    3    0    0  0.17003385521E+02  0.40657424767E+01 -0.89633148348E+01  0.19646536442E+02  0.51100000000E-03 0. -1.
        -11    1    3    3    0    0 -0.19969420496E+01 -0.98756326879E+00 -0.66313000199E+01  0.69955127743E+01  0.51100000000E-03 0.  1.
         12    1    3    3    0    0  0.16441032918E+02 -0.15972031139E+02 -0.67206226849E+01  0.23886818779E+02  0.00000000000E+00 0. -1.
</event>
<event>
 7    1  0.5479172E-013  0.5052887E+02  0.7816164E-02  0.1300439E+00
        -11   -1    0    0    0    0  0.00000000000E+00  0.00000000000E+00  0.45593999997E+02  0.45594000000E+02  0.51100000000E-03 0. -1.
         11   -1    0    0    0    0 -0.00000000000E+00 -0.00000000000E+00 -0.45593999997E+02  0.45594000000E+02  0.51100000000E-03 0.  1.
    9900012    2    1    2    0    0  0.35148837695E+02  0.84067196731E+01  0.18629317382E+02  0.50528865809E+02  0.30000018114E+02 0.  0.
         12    1    1    2    0    0 -0.35148837695E+02 -0.84067196731E+01 -0.18629317382E+02  0.40659134191E+02  0.00000000000E+00 0. -1.
         11    1    3    3    0    0 -0.13251817404E+01  0.64005165998E+01  0.34943339685E+01  0.74116860116E+01  0.51100000000E-03 0.  1.
        -11    1    3    3    0    0  0.65560842026E+00  0.24907062671E+01  0.54210490057E+01  0.60017674641E+01  0.51100000000E-03 0. -1.
        -12    1    3    3    0    0  0.35818411016E+02 -0.48450319383E+00  0.97139344079E+01  0.37115412334E+02  0.00000000000E+00 0.  1.
</event>
<event>
 7    1  0.5479172E-013  0.5052885E+02  0.7816164E-02  0.1300439E+00
        -11   -1    0    0    0    0  0.00000000000E+00  0.00000000000E+00  0.45593999997E+02  0.45594000000E+02  0.51100000000E-03 0. -1.
         11   -1    0    0    0    0 -0.00000000000E+00 -0.00000000000E+00 -0.45593999997E+02  0.45594000000E+02  0.51100000000E-03 0.  1.
    9900012    2    1    2    0    0  0.21527358138E+02 -0.22636665396E+02  0.26025381916E+02  0.50528852536E+02  0.29999977769E+02 0.  0.
         12    1    1    2    0    0 -0.21527358138E+02  0.22636665396E+02 -0.26025381916E+02  0.40659147464E+02  0.00000000000E+00 0. -1.
         11    1    3    3    0    0  0.65805031010E+01  0.51563921294E+00  0.17311094964E+02  0.18526816077E+02  0.51100000000E-03 0. -1.
        -11    1    3    3    0    0 -0.14115305117E+01 -0.48174047351E+01  0.51174326173E+01  0.71685370628E+01  0.51100000000E-03 0.  1.
        -12    1    3    3    0    0  0.16358385549E+02 -0.18334899874E+02  0.35968543344E+01  0.24833499396E+02  0.00000000000E+00 0.  1.
</event>
<event>
 7    1  0.5479172E-013  0.5052886E+02  0.7816164E-02  0.1300439E+00
        -11   -1    0    0    0    0  0.00000000000E+00  0.00000000000E+00  0.45593999997E+02  0.45594000000E+02  0.51100000000E-03 0. -1.
         11   -1    0    0    0    0 -0.00000000000E+00 -0.00000000000E+00 -0.45593999997E+02  0.45594000000E+02  0.51100000000E-03 0.  1.
    9900012    2    1    2    0    0 -0.33607806781E+02 -0.17251342723E+02 -0.15035697542E+02  0.50528859540E+02  0.29999999058E+02 0.  0.
         12    1    1    2    0    0  0.33607806781E+02  0.17251342723E+02  0.15035697542E+02  0.40659140460E+02  0.00000000000E+00 0. -1.
         11    1    3    3    0    0 -0.40626919916E+01 -0.26727296664E+01 -0.97125329082E+01  0.10861963259E+02  0.51100000000E-03 0. -1.
        -11    1    3    3    0    0 -0.14842898329E+02 -0.14859838540E+02 -0.11233773877E+02  0.23818566456E+02  0.51100000000E-03 0.  1.
         12    1    3    3    0    0 -0.14702216460E+02  0.28122548338E+00  0.59106092434E+01  0.15848329825E+02  0.00000000000E+00 0. -1.
</event>
<event>
 7    1  0.5479172E-013  0.5052886E+02  0.7816164E-02  0.1300439E+00
        -11   -1    0    0    0    0  0.00000000000E+00  0.00000000000E+00  0.45593999997E+02  0.45594000000E+02  0.51100000000E-03 0.  1.
         11   -1    0    0    0    0 -0.00000000000E+00 -0.00000000000E+00 -0.45593999997E+02  0.45594000000E+02  0.51100000000E-03 0. -1.
    9900012    2    1    2    0    0 -0.40036555289E+02  0.40143180689E+00  0.70766179481E+01  0.50528862915E+02  0.30000009315E+02 0.  0.
         12    1    1    2    0    0  0.40036555289E+02 -0.40143180689E+00 -0.70766179481E+01  0.40659137085E+02  0.00000000000E+00 0. -1.
         11    1    3    3    0    0  0.37067258634E+01 -0.96486701514E-01  0.81193738135E-01  0.37088703124E+01  0.51100000000E-03 0. -1.
        -11    1    3    3    0    0 -0.11950934573E+02  0.17180845214E+00  0.90016252491E+01  0.14962740815E+02  0.51100000000E-03 0.  1.
         12    1    3    3    0    0 -0.31792346580E+02  0.32611005627E+00 -0.20062010392E+01  0.31857251787E+02  0.00000000000E+00 0. -1.
</event>
<event>
 7    1  0.5479172E-013  0.5052886E+02  0.7816164E-02  0.1300439E+00
        -11   -1    0    0    0    0  0.00000000000E+00  0.00000000000E+00  0.45593999997E+02  0.45594000000E+02  0.51100000000E-03 0. -1.
         11   -1    0    0    0    0 -0.00000000000E+00 -0.00000000000E+00 -0.45593999997E+02  0.45594000000E+02  0.51100000000E-03 0.  1.
    9900012    2    1    2    0    0  0.36937049150E+02  0.16649693743E+02 -0.34070214395E+01  0.50528859617E+02  0.29999999292E+02 0.  0.
         12    1    1    2    0    0 -0.36937049150E+02 -0.16649693743E+02  0.34070214395E+01  0.40659140383E+02  0.00000000000E+00 0. -1.
         11    1    3    3    0    0  0.75178162515E+01  0.77597119300E+01  0.82913074894E+01  0.13618974652E+02  0.51100000000E-03 0. -1.
        -11    1    3    3    0    0  0.86314245225E+01  0.71621221830E+01  0.27339823936E+01  0.11544355480E+02  0.51100000000E-03 0.  1.
         12    1    3    3    0    0  0.20787808376E+02  0.17278596296E+01 -0.14432311322E+02  0.25365529485E+02  0.00000000000E+00 0. -1.
</event>
<event>
 7    1  0.5479172E-013  0.5052886E+02  0.7816164E-02  0.1300439E+00
        -11   -1    0    0    0    0  0.00000000000E+00  0.00000000000E+00  0.45593999997E+02  0.45594000000E+02  0.51100000000E-03 0. -1.
         11   -1    0    0    0    0 -0.00000000000E+00 -0.00000000000E+00 -0.45593999997E+02  0.45594000000E+02  0.51100000000E-03 0.  1.
    9900012    2    1    2    0    0  0.22910559672E+02 -0.13612489949E+02 -0.30707848985E+02  0.50528860605E+02  0.30000002294E+02 0.  0.
         12    1    1    2    0    0 -0.22910559672E+02  0.13612489949E+02  0.30707848985E+02  0.40659139395E+02  0.00000000000E+00 0. -1.
         11    1    3    3    0    0  0.23013515707E+02 -0.73640146688E+01 -0.14354214151E+02  0.28105054374E+02  0.51100000000E-03 0. -1.
        -11    1    3    3    0    0  0.52706510954E+01 -0.79777628379E+01 -0.11684181845E+02  0.15097833239E+02  0.51100000000E-03 0.  1.
         12    1    3    3    0    0 -0.53736071305E+01  0.17292875577E+01 -0.46694529895E+01  0.73259729914E+01  0.00000000000E+00 0. -1.
</event>
<event>
 7    1  0.5479172E-013  0.5052886E+02  0.7816164E-02  0.1300439E+00
        -11   -1    0    0    0    0  0.00000000000E+00  0.00000000000E+00  0.45593999997E+02  0.45594000000E+02  0.51100000000E-03 0.  1.
         11   -1    0    0    0    0 -0.00000000000E+00 -0.00000000000E+00 -0.45593999997E+02  0.45594000000E+02  0.51100000000E-03 0. -1.
    9900012    2    1    2    0    0 -0.34557223024E+02  0.17366866203E+02  0.12544149945E+02  0.50528863233E+02  0.30000010282E+02 0.  0.
         12    1    1    2    0    0  0.34557223024E+02 -0.17366866203E+02 -0.12544149945E+02  0.40659136767E+02  0.00000000000E+00 0. -1.
         11    1    3    3    0    0 -0.94109614975E+01  0.16124251102E+02 -0.24126165946E+01  0.18824940611E+02  0.51100000000E-03 0. -1.
        -11    1    3    3    0    0 -0.17195390820E+02  0.14707653310E+01  0.32670438457E+01  0.17564685931E+02  0.51100000000E-03 0.  1.
        -12    1    3    3    0    0 -0.79508707062E+01 -0.22815023047E+00  0.11689722694E+02  0.14139236690E+02  0.00000000000E+00 0.  1.
</event>
<event>
 7    1  0.5479172E-013  0.5052886E+02  0.7816164E-02  0.1300439E+00
        -11   -1    0    0    0    0  0.00000000000E+00  0.00000000000E+00  0.45593999997E+02  0.45594000000E+02  0.51100000000E-03 0.  1.
         11   -1    0    0    0    0 -0.00000000000E+00 -0.00000000000E+00 -0.45593999997E+02  0.45594000000E+02  0.51100000000E-03 0. -1.
    9900012    2    1    2    0    0 -0.14018261221E+02  0.38053727730E+02  0.29271163748E+01  0.50528857706E+02  0.29999993483E+02 0.  0.
         12    1    1    2    0    0  0.14018261221E+02 -0.38053727730E+02 -0.29271163748E+01  0.40659142294E+02  0.00000000000E+00 0. -1.
         11    1    3    3    0    0 -0.84483818219E+01  0.74341304813E+01  0.49161797559E+01  0.12280483503E+02  0.51100000000E-03 0. -1.
        -11    1    3    3    0    0 -0.37649319520E+00  0.14762947102E+02  0.98836044811E+01  0.17769974453E+02  0.51100000000E-03 0.  1.
         12    1    3    3    0    0 -0.51933862035E+01  0.15856650147E+02 -0.11872667862E+02  0.20478399750E+02  0.00000000000E+00 0. -1.
</event>
<event>
 7    1  0.5479172E-013  0.5052885E+02  0.7816164E-02  0.1300439E+00
        -11   -1    0    0    0    0  0.00000000000E+00  0.00000000000E+00  0.45593999997E+02  0.45594000000E+02  0.51100000000E-03 0.  1.
         11   -1    0    0    0    0 -0.00000000000E+00 -0.00000000000E+00 -0.45593999997E+02  0.45594000000E+02  0.51100000000E-03 0. -1.
    9900012    2    1    2    0    0  0.25825702839E+02  0.15148975390E+02  0.27508322280E+02  0.50528853709E+02  0.29999981333E+02 0.  0.
         12    1    1    2    0    0 -0.25825702839E+02 -0.15148975390E+02 -0.27508322280E+02  0.40659146291E+02  0.00000000000E+00 0. -1.
         11    1    3    3    0    0  0.18701606715E+01 -0.37663787186E+01  0.29121468450E+01  0.51150473211E+01  0.51100000000E-03 0. -1.
        -11    1    3    3    0    0  0.78643378734E+00 -0.35636740543E+01  0.86917148289E+01  0.94267787603E+01  0.51100000000E-03 0.  1.
         12    1    3    3    0    0  0.23169108380E+02  0.22479028163E+02  0.15904460606E+02  0.35987027627E+02  0.00000000000E+00 0. -1.
</event>
<event>
 7    1  0.5479172E-013  0.5052887E+02  0.7816164E-02  0.1300439E+00
        -11   -1    0    0    0    0  0.00000000000E+00  0.00000000000E+00  0.45593999997E+02  0.45594000000E+02  0.51100000000E-03 0.  1.
         11   -1    0    0    0    0 -0.00000000000E+00 -0.00000000000E+00 -0.45593999997E+02  0.45594000000E+02  0.51100000000E-03 0. -1.
    9900012    2    1    2    0    0  0.11669450976E+02 -0.19876666294E+02  0.33494882280E+02  0.50528867102E+02  0.30000022043E+02 0.  0.
         12    1    1    2    0    0 -0.11669450976E+02  0.19876666294E+02 -0.33494882280E+02  0.40659132898E+02  0.00000000000E+00 0. -1.
         11    1    3    3    0    0  0.45948943327E+01 -0.13300744389E+01  0.37020709996E+01  0.60487587065E+01  0.51100000000E-03 0.  1.
        -11    1    3    3    0    0 -0.65277509739E+01 -0.11006642647E+02  0.25201356502E+02  0.28264219164E+02  0.51100000000E-03 0. -1.
         12    1    3    3    0    0  0.13602307618E+02 -0.75399492084E+01  0.45914547785E+01  0.16215889232E+02  0.00000000000E+00 0. -1.
</event>
<event>
 7    1  0.5479172E-013  0.5052886E+02  0.7816164E-02  0.1300439E+00
        -11   -1    0    0    0    0  0.00000000000E+00  0.00000000000E+00  0.45593999997E+02  0.45594000000E+02  0.51100000000E-03 0.  1.
         11   -1    0    0    0    0 -0.00000000000E+00 -0.00000000000E+00 -0.45593999997E+02  0.45594000000E+02  0.51100000000E-03 0. -1.
    9900012    2    1    2    0    0  0.13899208694E+02 -0.28537363204E+01  0.38102942625E+02  0.50528855272E+02  0.29999986085E+02 0.  0.
         12    1    1    2    0    0 -0.13899208694E+02  0.28537363204E+01 -0.38102942625E+02  0.40659144728E+02  0.00000000000E+00 0. -1.
         11    1    3    3    0    0 -0.90421011993E+01 -0.17098332635E+01  0.59429149111E+01  0.10954513307E+02  0.51100000000E-03 0. -1.
        -11    1    3    3    0    0  0.81283617436E+00  0.30118075083E+00  0.92272479240E+00  0.12660307242E+01  0.51100000000E-03 0.  1.
        -12    1    3    3    0    0  0.22128473719E+02 -0.14450838077E+01  0.31237302921E+02  0.38308311241E+02  0.00000000000E+00 0.  1.
</event>
<event>
 7    1  0.5479172E-013  0.5052887E+02  0.7816164E-02  0.1300439E+00
        -11   -1    0    0    0    0  0.00000000000E+00  0.00000000000E+00  0.45593999997E+02  0.45594000000E+02  0.51100000000E-03 0. -1.
         11   -1    0    0    0    0 -0.00000000000E+00 -0.00000000000E+00 -0.45593999997E+02  0.45594000000E+02  0.51100000000E-03 0.  1.
    9900012    2    1    2    0    0  0.37835455528E+02  0.14523762601E+02 -0.32716293666E+01  0.50528868998E+02  0.30000027807E+02 0.  0.
         12    1    1    2    0    0 -0.37835455528E+02 -0.14523762601E+02  0.32716293666E+01  0.40659131002E+02  0.00000000000E+00 0. -1.
         11    1    3    3    0    0  0.84575980933E+01  0.47471811244E+01 -0.73872614547E+01  0.12191731878E+02  0.51100000000E-03 0. -1.
        -11    1    3    3    0    0  0.26123949607E+02  0.10661974399E+02 -0.49660228354E+01  0.28649604259E+02  0.51100000000E-03 0.  1.
         12    1    3    3    0    0  0.32539078281E+01 -0.88539292234E+00  0.90816549236E+01  0.96875328609E+01  0.00000000000E+00 0. -1.
</event>
<event>
 7    1  0.5479172E-013  0.5052886E+02  0.7816164E-02  0.1300439E+00
        -11   -1    0    0    0    0  0.00000000000E+00  0.00000000000E+00  0.45593999997E+02  0.45594000000E+02  0.51100000000E-03 0. -1.
         11   -1    0    0    0    0 -0.00000000000E+00 -0.00000000000E+00 -0.45593999997E+02  0.45594000000E+02  0.51100000000E-03 0.  1.
    9900012    2    1    2    0    0  0.20383104358E+02 -0.23688232873E+02 -0.26010814043E+02  0.50528858751E+02  0.29999996659E+02 0.  0.
         12    1    1    2    0    0 -0.20383104358E+02  0.23688232873E+02  0.26010814043E+02  0.40659141249E+02  0.00000000000E+00 0. -1.
         11    1    3    3    0    0  0.10882389694E+02 -0.17375985882E+02  0.11258141249E+01  0.20533356972E+02  0.51100000000E-03 0. -1.
        -11    1    3    3    0    0  0.17054772157E+01 -0.33997163872E+01 -0.45834498696E+01  0.59560672440E+01  0.51100000000E-03 0.  1.
         12    1    3    3    0    0  0.77952374488E+01 -0.29125306031E+01 -0.22553178298E+02  0.24039434535E+02  0.00000000000E+00 0. -1.
</event>
<event>
 7    1  0.5479172E-013  0.5052887E+02  0.7816164E-02  0.1300439E+00
        -11   -1    0    0    0    0  0.00000000000E+00  0.00000000000E+00  0.45593999997E+02  0.45594000000E+02  0.51100000000E-03 0. -1.
         11   -1    0    0    0    0 -0.00000000000E+00 -0.00000000000E+00 -0.45593999997E+02  0.45594000000E+02  0.51100000000E-03 0.  1.
    9900012    2    1    2    0    0 -0.96053444548E+00 -0.40625796011E+02 -0.13368993676E+01  0.50528865383E+02  0.30000016817E+02 0.  0.
         12    1    1    2    0    0  0.96053444548E+00  0.40625796011E+02  0.13368993676E+01  0.40659134617E+02  0.00000000000E+00 0. -1.
         11    1    3    3    0    0  0.30285764271E+01 -0.25238311372E+00  0.21407231756E+01  0.37173469554E+01  0.51100000000E-03 0. -1.
        -11    1    3    3    0    0  0.86815430402E+00  0.72510037866E+00 -0.52681879721E+01  0.53882527061E+01  0.51100000000E-03 0.  1.
         12    1    3    3    0    0 -0.48572651766E+01 -0.41098513275E+02  0.17905654289E+01  0.41423265721E+02  0.00000000000E+00 0. -1.
</event>
<event>
 7    1  0.5479172E-013  0.5052882E+02  0.7816164E-02  0.1300439E+00
        -11   -1    0    0    0    0  0.00000000000E+00  0.00000000000E+00  0.45593999997E+02  0.45594000000E+02  0.51100000000E-03 0. -1.
         11   -1    0    0    0    0 -0.00000000000E+00 -0.00000000000E+00 -0.45593999997E+02  0.45594000000E+02  0.51100000000E-03 0.  1.
    9900012    2    1    2    0    0  0.15168901813E+02 -0.18418820597E+02 -0.32921424029E+02  0.50528822752E+02  0.29999887235E+02 0.  0.
         12    1    1    2    0    0 -0.15168901813E+02  0.18418820597E+02  0.32921424029E+02  0.40659177248E+02  0.00000000000E+00 0. -1.
         11    1    3    3    0    0  0.15412471316E+02 -0.10986473909E+02 -0.26428036584E+02  0.32506737747E+02  0.51100000000E-03 0.  1.
        -11    1    3    3    0    0  0.47938906537E+01  0.20674811665E+01 -0.48848085427E+01  0.71496308110E+01  0.51100000000E-03 0. -1.
         12    1    3    3    0    0 -0.50374601561E+01 -0.94998278553E+01 -0.16085789022E+01  0.10872454194E+02  0.00000000000E+00 0. -1.
</event>
<event>
 7    1  0.5479172E-013  0.5052887E+02  0.7816164E-02  0.1300439E+00
        -11   -1    0    0    0    0  0.00000000000E+00  0.00000000000E+00  0.45593999997E+02  0.45594000000E+02  0.51100000000E-03 0. -1.
         11   -1    0    0    0    0 -0.00000000000E+00 -0.00000000000E+00 -0.45593999997E+02  0.45594000000E+02  0.51100000000E-03 0.  1.
    9900012    2    1    2    0    0 -0.29794342704E+02 -0.99296992488E+01 -0.25823692426E+02  0.50528869724E+02  0.30000030012E+02 0.  0.
         12    1    1    2    0    0  0.29794342704E+02  0.99296992488E+01  0.25823692426E+02  0.40659130276E+02  0.00000000000E+00 0. -1.
         11    1    3    3    0    0 -0.16965734115E+02 -0.96159007714E+01 -0.63102288670E+01  0.20496845375E+02  0.51100000000E-03 0.  1.
        -11    1    3    3    0    0 -0.60854755890E+01  0.42014718937E+01 -0.20560090480E+02  0.21849546906E+02  0.51100000000E-03 0. -1.
         12    1    3    3    0    0 -0.67431329998E+01 -0.45152703711E+01  0.10466269210E+01  0.81824774420E+01  0.00000000000E+00 0. -1.
</event>
<event>
 7    1  0.5479172E-013  0.5052886E+02  0.7816164E-02  0.1300439E+00
        -11   -1    0    0    0    0  0.00000000000E+00  0.00000000000E+00  0.45593999997E+02  0.45594000000E+02  0.51100000000E-03 0.  1.
         11   -1    0    0    0    0 -0.00000000000E+00 -0.00000000000E+00 -0.45593999997E+02  0.45594000000E+02  0.51100000000E-03 0. -1.
    9900012    2    1    2    0    0  0.91504864353E+01  0.28514561058E+02 -0.27501892853E+02  0.50528859517E+02  0.29999998987E+02 0.  0.
         12    1    1    2    0    0 -0.91504864353E+01 -0.28514561058E+02  0.27501892853E+02  0.40659140483E+02  0.00000000000E+00 0. -1.
         11    1    3    3    0    0 -0.32888566362E+01 -0.36991269932E+01 -0.80291064605E+01  0.94322144431E+01  0.51100000000E-03 0. -1.
        -11    1    3    3    0    0  0.87844528860E+00  0.16096080011E+01  0.13852802026E+01  0.22981526371E+01  0.51100000000E-03 0.  1.
        -12    1    3    3    0    0  0.11560897783E+02  0.30604080050E+02 -0.20858066596E+02  0.38798492437E+02  0.00000000000E+00 0.  1.
</event>
<event>
 7    1  0.5479172E-013  0.5052886E+02  0.7816164E-02  0.1300439E+00
        -11   -1    0    0    0    0  0.00000000000E+00  0.00000000000E+00  0.45593999997E+02  0.45594000000E+02  0.51100000000E-03 0.  1.
         11   -1    0    0    0    0 -0.00000000000E+00 -0.00000000000E+00 -0.45593999997E+02  0.45594000000E+02  0.51100000000E-03 0. -1.
    9900012    2    1    2    0    0 -0.39468768291E+02 -0.31841877699E+01  0.92327288889E+01  0.50528855827E+02  0.29999987772E+02 0.  0.
         12    1    1    2    0    0  0.39468768291E+02  0.31841877699E+01 -0.92327288889E+01  0.40659144173E+02  0.00000000000E+00 0. -1.
         11    1    3    3    0    0 -0.10104045774E+02 -0.34099904901E+01 -0.39322004718E+01  0.11365824957E+02  0.51100000000E-03 0. -1.
        -11    1    3    3    0    0 -0.16366537124E+02 -0.10631029061E+02  0.40570369449E+01  0.19933435864E+02  0.51100000000E-03 0.  1.
        -12    1    3    3    0    0 -0.12998185393E+02  0.10856831781E+02  0.91078924158E+01  0.19229595006E+02  0.00000000000E+00 0.  1.
</event>
<event>
 7    1  0.5479172E-013  0.5052886E+02  0.7816164E-02  0.1300439E+00
        -11   -1    0    0    0    0  0.00000000000E+00  0.00000000000E+00  0.45593999997E+02  0.45594000000E+02  0.51100000000E-03 0.  1.
         11   -1    0    0    0    0 -0.00000000000E+00 -0.00000000000E+00 -0.45593999997E+02  0.45594000000E+02  0.51100000000E-03 0. -1.
    9900012    2    1    2    0    0 -0.97748360002E+01 -0.11066423130E+02  0.37883402068E+02  0.50528864594E+02  0.30000014419E+02 0.  0.
         12    1    1    2    0    0  0.97748360002E+01  0.11066423130E+02 -0.37883402068E+02  0.40659135406E+02  0.00000000000E+00 0. -1.
         11    1    3    3    0    0 -0.11380193883E+02  0.33280833898E+01  0.18693250938E+02  0.22136453708E+02  0.51100000000E-03 0. -1.
        -11    1    3    3    0    0 -0.39742081256E+01 -0.78610792708E+01  0.17927622690E+01  0.89891542617E+01  0.51100000000E-03 0.  1.
        -12    1    3    3    0    0  0.55795660080E+01 -0.65334272486E+01  0.17397388861E+02  0.19403256624E+02  0.00000000000E+00 0.  1.
</event>
<event>
 7    1  0.5479172E-013  0.5052879E+02  0.7816164E-02  0.1300439E+00
        -11   -1    0    0    0    0  0.00000000000E+00  0.00000000000E+00  0.45593999997E+02  0.45594000000E+02  0.51100000000E-03 0. -1.
         11   -1    0    0    0    0 -0.00000000000E+00 -0.00000000000E+00 -0.45593999997E+02  0.45594000000E+02  0.51100000000E-03 0.  1.
    9900012    2    1    2    0    0  0.46116175391E+01 -0.29141280667E+02 -0.27976601858E+02  0.50528788169E+02  0.29999782117E+02 0.  0.
         12    1    1    2    0    0 -0.46116175391E+01  0.29141280667E+02  0.27976601858E+02  0.40659211831E+02  0.00000000000E+00 0. -1.
         11    1    3    3    0    0 -0.74935226809E+01 -0.77051063047E+01 -0.10739283345E+02  0.15193872198E+02  0.51100000000E-03 0. -1.
        -11    1    3    3    0    0  0.31113146832E+01 -0.14397618518E+02 -0.18717921591E+02  0.23818738148E+02  0.51100000000E-03 0.  1.
         12    1    3    3    0    0  0.89938255369E+01 -0.70385558441E+01  0.14806030783E+01  0.11516177822E+02  0.00000000000E+00 0. -1.
</event>
<event>
 7    1  0.5479172E-013  0.5052881E+02  0.7816164E-02  0.1300439E+00
        -11   -1    0    0    0    0  0.00000000000E+00  0.00000000000E+00  0.45593999997E+02  0.45594000000E+02  0.51100000000E-03 0. -1.
         11   -1    0    0    0    0 -0.00000000000E+00 -0.00000000000E+00 -0.45593999997E+02  0.45594000000E+02  0.51100000000E-03 0.  1.
    9900012    2    1    2    0    0 -0.73419314535E+01  0.18514276431E+02 -0.35446960860E+02  0.50528813788E+02  0.29999859990E+02 0.  0.
         12    1    1    2    0    0  0.73419314535E+01 -0.18514276431E+02  0.35446960860E+02  0.40659186212E+02  0.00000000000E+00 0. -1.
         11    1    3    3    0    0 -0.65589600777E+01 -0.56698898498E+01 -0.82863268175E+01  0.11992948787E+02  0.51100000000E-03 0. -1.
        -11    1    3    3    0    0 -0.29641094846E+01  0.79625626474E+00 -0.67601930395E+01  0.74242965504E+01  0.51100000000E-03 0.  1.
        -12    1    3    3    0    0  0.21811381088E+01  0.23387910016E+02 -0.20400441003E+02  0.31111568451E+02  0.00000000000E+00 0.  1.
</event>
<event>
 7    1  0.5479172E-013  0.5052879E+02  0.7816164E-02  0.1300439E+00
        -11   -1    0    0    0    0  0.00000000000E+00  0.00000000000E+00  0.45593999997E+02  0.45594000000E+02  0.51100000000E-03 0.  1.
         11   -1    0    0    0    0 -0.00000000000E+00 -0.00000000000E+00 -0.45593999997E+02  0.45594000000E+02  0.51100000000E-03 0. -1.
    9900012    2    1    2    0    0 -0.18581488236E+02  0.31457809511E+02  0.17841130716E+02  0.50528789118E+02  0.29999785003E+02 0.  0.
         12    1    1    2    0    0  0.18581488236E+02 -0.31457809511E+02 -0.17841130716E+02  0.40659210882E+02  0.00000000000E+00 0. -1.
         11    1    3    3    0    0 -0.40970919742E+01 -0.35979905109E+01 -0.97684149438E+00  0.55394871539E+01  0.51100000000E-03 0. -1.
        -11    1    3    3    0    0  0.24375303333E+01  0.10991788313E+02  0.71762241191E+01  0.13351372863E+02  0.51100000000E-03 0.  1.
        -12    1    3    3    0    0 -0.16921926595E+02  0.24064011709E+02  0.11641748091E+02  0.31637929101E+02  0.00000000000E+00 0.  1.
</event>
<event>
 7    1  0.5843537E-013  0.5052886E+02  0.7816164E-02  0.1300439E+00
        -11   -1    0    0    0    0  0.00000000000E+00  0.00000000000E+00  0.45593999997E+02  0.45594000000E+02  0.51100000000E-03 0. -1.
         11   -1    0    0    0    0 -0.00000000000E+00 -0.00000000000E+00 -0.45593999997E+02  0.45594000000E+02  0.51100000000E-03 0.  1.
    9900012    2    1    2    0    0 -0.23986588630E+01 -0.25679890003E+02 -0.31431760243E+02  0.50528857524E+02  0.29999992929E+02 0.  0.
         12    1    1    2    0    0  0.23986588630E+01  0.25679890003E+02  0.31431760243E+02  0.40659142476E+02  0.00000000000E+00 0. -1.
         11    1    3    3    0    0  0.38482401207E+01  0.24136483083E+01 -0.35421757304E+01  0.57603523633E+01  0.51100000000E-03 0. -1.
        -11    1    3    3    0    0 -0.51113598156E+00 -0.15153710487E+02 -0.20419237323E+01  0.15299204368E+02  0.51100000000E-03 0.  1.
        -12    1    3    3    0    0 -0.57357630022E+01 -0.12939827825E+02 -0.25847660780E+02  0.29469300792E+02  0.00000000000E+00 0.  1.
</event>
<event>
 7    1  0.5479172E-013  0.5052886E+02  0.7816164E-02  0.1300439E+00
        -11   -1    0    0    0    0  0.00000000000E+00  0.00000000000E+00  0.45593999997E+02  0.45594000000E+02  0.51100000000E-03 0.  1.
         11   -1    0    0    0    0 -0.00000000000E+00 -0.00000000000E+00 -0.45593999997E+02  0.45594000000E+02  0.51100000000E-03 0. -1.
    9900012    2    1    2    0    0  0.23530454937E+02  0.77431312524E+01  0.32241701586E+02  0.50528859425E+02  0.29999998708E+02 0.  0.
         12    1    1    2    0    0 -0.23530454937E+02 -0.77431312524E+01 -0.32241701586E+02  0.40659140575E+02  0.00000000000E+00 0. -1.
         11    1    3    3    0    0 -0.17897048837E+01 -0.42506864409E+01  0.11374645598E+02  0.12274116731E+02  0.51100000000E-03 0. -1.
        -11    1    3    3    0    0  0.18805359559E+02  0.72083454884E+00  0.10092430268E+02  0.21354584977E+02  0.51100000000E-03 0.  1.
         12    1    3    3    0    0  0.65148002617E+01  0.11272983144E+02  0.10774625720E+02  0.16900157716E+02  0.00000000000E+00 0. -1.
</event>
<event>
 7    1  0.5479172E-013  0.5052886E+02  0.7816164E-02  0.1300439E+00
        -11   -1    0    0    0    0  0.00000000000E+00  0.00000000000E+00  0.45593999997E+02  0.45594000000E+02  0.51100000000E-03 0. -1.
         11   -1    0    0    0    0 -0.00000000000E+00 -0.00000000000E+00 -0.45593999997E+02  0.45594000000E+02  0.51100000000E-03 0.  1.
    9900012    2    1    2    0    0  0.22913642081E+02  0.20716961433E+01 -0.33523702393E+02  0.50528861538E+02  0.30000005130E+02 0.  0.
         12    1    1    2    0    0 -0.22913642081E+02 -0.20716961433E+01  0.33523702393E+02  0.40659138462E+02  0.00000000000E+00 0. -1.
         11    1    3    3    0    0  0.89537399206E+01  0.59864692985E+00 -0.11121048105E+02  0.14290050662E+02  0.51100000000E-03 0. -1.
        -11    1    3    3    0    0  0.47612306147E+01 -0.16071039196E+01 -0.25550670157E+02  0.26040139126E+02  0.51100000000E-03 0.  1.
         12    1    3    3    0    0  0.91986715460E+01  0.30801531331E+01  0.31480158691E+01  0.10198671749E+02  0.00000000000E+00 0. -1.
</event>
<event>
 7    1  0.5479172E-013  0.5052886E+02  0.7816164E-02  0.1300439E+00
        -11   -1    0    0    0    0  0.00000000000E+00  0.00000000000E+00  0.45593999997E+02  0.45594000000E+02  0.51100000000E-03 0. -1.
         11   -1    0    0    0    0 -0.00000000000E+00 -0.00000000000E+00 -0.45593999997E+02  0.45594000000E+02  0.51100000000E-03 0.  1.
    9900012    2    1    2    0    0 -0.31793972683E+02  0.94817954149E+01 -0.23503290753E+02  0.50528858107E+02  0.29999994702E+02 0.  0.
         12    1    1    2    0    0  0.31793972683E+02 -0.94817954149E+01  0.23503290753E+02  0.40659141893E+02  0.00000000000E+00 0. -1.
         11    1    3    3    0    0 -0.25506479735E+00 -0.79123676205E+00  0.19647168736E+01  0.21333603350E+01  0.51100000000E-03 0. -1.
        -11    1    3    3    0    0 -0.11079605125E+02 -0.76297019564E+01 -0.49451627964E+01  0.14332642360E+02  0.51100000000E-03 0.  1.
        -12    1    3    3    0    0 -0.20459302761E+02  0.17902734133E+02 -0.20522844830E+02  0.34062855412E+02  0.00000000000E+00 0.  1.
</event>
<event>
 7    1  0.5479172E-013  0.5052887E+02  0.7816164E-02  0.1300439E+00
        -11   -1    0    0    0    0  0.00000000000E+00  0.00000000000E+00  0.45593999997E+02  0.45594000000E+02  0.51100000000E-03 0.  1.
         11   -1    0    0    0    0 -0.00000000000E+00 -0.00000000000E+00 -0.45593999997E+02  0.45594000000E+02  0.51100000000E-03 0. -1.
    9900012    2    1    2    0    0  0.70426305594E+01  0.26131431892E+02  0.30343276365E+02  0.50528870663E+02  0.30000032866E+02 0.  0.
         12    1    1    2    0    0 -0.70426305594E+01 -0.26131431892E+02 -0.30343276365E+02  0.40659129337E+02  0.00000000000E+00 0. -1.
         11    1    3    3    0    0 -0.38613568056E+01  0.18229628640E+02  0.15115601291E+02  0.23993975064E+02  0.51100000000E-03 0. -1.
        -11    1    3    3    0    0 -0.37292614418E+01  0.52063670260E+01  0.71705019795E+01  0.96140390789E+01  0.51100000000E-03 0.  1.
        -12    1    3    3    0    0  0.14633248807E+02  0.26954362266E+01  0.80571730939E+01  0.16920856520E+02  0.00000000000E+00 0.  1.
</event>
<event>
 7    1  0.5479172E-013  0.5052885E+02  0.7816164E-02  0.1300439E+00
        -11   -1    0    0    0    0  0.00000000000E+00  0.00000000000E+00  0.45593999997E+02  0.45594000000E+02  0.51100000000E-03 0.  1.
         11   -1    0    0    0    0 -0.00000000000E+00 -0.00000000000E+00 -0.45593999997E+02  0.45594000000E+02  0.51100000000E-03 0. -1.
    9900012    2    1    2    0    0 -0.30696063309E+02 -0.10777880492E+02  0.24387602379E+02  0.50528853915E+02  0.29999981961E+02 0.  0.
         12    1    1    2    0    0  0.30696063309E+02  0.10777880492E+02 -0.24387602379E+02  0.40659146085E+02  0.00000000000E+00 0. -1.
         11    1    3    3    0    0 -0.92123724253E+01  0.65012288881E+01  0.42484599992E+01  0.12049198952E+02  0.51100000000E-03 0. -1.
        -11    1    3    3    0    0 -0.13796427641E+02  0.78791651382E-01  0.88988052993E+01  0.16417562541E+02  0.51100000000E-03 0.  1.
        -12    1    3    3    0    0 -0.76872632429E+01 -0.17357901031E+02  0.11240337080E+02  0.22062092422E+02  0.00000000000E+00 0.  1.
</event>
<event>
 7    1  0.5479172E-013  0.5052886E+02  0.7816164E-02  0.1300439E+00
        -11   -1    0    0    0    0  0.00000000000E+00  0.00000000000E+00  0.45593999997E+02  0.45594000000E+02  0.51100000000E-03 0. -1.
         11   -1    0    0    0    0 -0.00000000000E+00 -0.00000000000E+00 -0.45593999997E+02  0.45594000000E+02  0.51100000000E-03 0.  1.
    9900012    2    1    2    0    0 -0.29281471019E+02 -0.27626031767E+02 -0.57064241518E+01  0.50528862616E+02  0.30000008406E+02 0.  0.
         12    1    1    2    0    0  0.29281471019E+02  0.27626031767E+02  0.57064241518E+01  0.40659137384E+02  0.00000000000E+00 0. -1.
         11    1    3    3    0    0 -0.15702484210E+02 -0.52306387313E+01 -0.46693834279E+01  0.17196823362E+02  0.51100000000E-03 0. -1.
        -11    1    3    3    0    0 -0.18938854551E+02 -0.16576826457E+02  0.90876030398E+00  0.25185258240E+02  0.51100000000E-03 0.  1.
         12    1    3    3    0    0  0.53598677411E+01 -0.58185665793E+01 -0.19458010279E+01  0.81467810134E+01  0.00000000000E+00 0. -1.
</event>
<event>
 7    1  0.5479172E-013  0.5052886E+02  0.7816164E-02  0.1300439E+00
        -11   -1    0    0    0    0  0.00000000000E+00  0.00000000000E+00  0.45593999997E+02  0.45594000000E+02  0.51100000000E-03 0. -1.
         11   -1    0    0    0    0 -0.00000000000E+00 -0.00000000000E+00 -0.45593999997E+02  0.45594000000E+02  0.51100000000E-03 0.  1.
    9900012    2    1    2    0    0  0.21363178559E+02 -0.43743173552E+01 -0.34316840276E+02  0.50528861088E+02  0.30000003765E+02 0.  0.
         12    1    1    2    0    0 -0.21363178559E+02  0.43743173552E+01  0.34316840276E+02  0.40659138912E+02  0.00000000000E+00 0. -1.
         11    1    3    3    0    0  0.88387872788E+01  0.60081746370E+01 -0.32147807591E+01  0.11160516951E+02  0.51100000000E-03 0. -1.
        -11    1    3    3    0    0  0.55887627408E+01 -0.99006843547E+01 -0.51139680795E+01  0.12466374350E+02  0.51100000000E-03 0.  1.
         12    1    3    3    0    0  0.69356285396E+01 -0.48180763757E+00 -0.25988091438E+02  0.26901969787E+02  0.00000000000E+00 0. -1.
</event>
<event>
 7    1  0.5479172E-013  0.5052886E+02  0.7816164E-02  0.1300439E+00
        -11   -1    0    0    0    0  0.00000000000E+00  0.00000000000E+00  0.45593999997E+02  0.45594000000E+02  0.51100000000E-03 0.  1.
         11   -1    0    0    0    0 -0.00000000000E+00 -0.00000000000E+00 -0.45593999997E+02  0.45594000000E+02  0.51100000000E-03 0. -1.
    9900012    2    1    2    0    0  0.45487295006E+01 -0.21274972339E+02  0.34348952334E+02  0.50528856937E+02  0.29999991147E+02 0.  0.
         12    1    1    2    0    0 -0.45487295006E+01  0.21274972339E+02 -0.34348952334E+02  0.40659143063E+02  0.00000000000E+00 0. -1.
         11    1    3    3    0    0 -0.77146402129E+00  0.58327646037E+01  0.83682482584E+00  0.59427750848E+01  0.51100000000E-03 0. -1.
        -11    1    3    3    0    0 -0.29878807727E+01 -0.88455436518E+01  0.11150828785E+02  0.14543454090E+02  0.51100000000E-03 0.  1.
        -12    1    3    3    0    0  0.83080742946E+01 -0.18262193291E+02  0.22361298724E+02  0.30042627763E+02  0.00000000000E+00 0.  1.
</event>
<event>
 7    1  0.5479172E-013  0.5052886E+02  0.7816164E-02  0.1300439E+00
        -11   -1    0    0    0    0  0.00000000000E+00  0.00000000000E+00  0.45593999997E+02  0.45594000000E+02  0.51100000000E-03 0.  1.
         11   -1    0    0    0    0 -0.00000000000E+00 -0.00000000000E+00 -0.45593999997E+02  0.45594000000E+02  0.51100000000E-03 0. -1.
    9900012    2    1    2    0    0 -0.12173433570E+01  0.24211819603E+02  0.32641563466E+02  0.50528858361E+02  0.29999995474E+02 0.  0.
         12    1    1    2    0    0  0.12173433570E+01 -0.24211819603E+02 -0.32641563466E+02  0.40659141639E+02  0.00000000000E+00 0. -1.
         11    1    3    3    0    0  0.46623389433E+01  0.11735233000E+02  0.10352206382E+02  0.16328541736E+02  0.51100000000E-03 0.  1.
        -11    1    3    3    0    0 -0.12194861650E+01 -0.12859214965E+01 -0.38812113798E+01  0.42666781737E+01  0.51100000000E-03 0. -1.
         12    1    3    3    0    0 -0.46601961353E+01  0.13762508099E+02  0.26170568464E+02  0.29933638451E+02  0.00000000000E+00 0. -1.
</event>
<event>
 7    1  0.5479172E-013  0.5052886E+02  0.7816164E-02  0.1300439E+00
        -11   -1    0    0    0    0  0.00000000000E+00  0.00000000000E+00  0.45593999997E+02  0.45594000000E+02  0.51100000000E-03 0.  1.
         11   -1    0    0    0    0 -0.00000000000E+00 -0.00000000000E+00 -0.45593999997E+02  0.45594000000E+02  0.51100000000E-03 0. -1.
    9900012    2    1    2    0    0 -0.20557191885E+02  0.14365448629E+02  0.32003149722E+02  0.50528857797E+02  0.29999993760E+02 0.  0.
         12    1    1    2    0    0  0.20557191885E+02 -0.14365448629E+02 -0.32003149722E+02  0.40659142203E+02  0.00000000000E+00 0. -1.
         11    1    3    3    0    0 -0.11417348959E+02  0.15923734388E+01  0.12224447089E+01  0.11592492473E+02  0.51100000000E-03 0. -1.
        -11    1    3    3    0    0 -0.10090094237E+02 -0.24458798738E-01  0.19014906775E+02  0.21526199847E+02  0.51100000000E-03 0.  1.
         12    1    3    3    0    0  0.95025131014E+00  0.12797533989E+02  0.11765798238E+02  0.17410165477E+02  0.00000000000E+00 0. -1.
</event>
<event>
 7    1  0.5479172E-013  0.5052886E+02  0.7816164E-02  0.1300439E+00
        -11   -1    0    0    0    0  0.00000000000E+00  0.00000000000E+00  0.45593999997E+02  0.45594000000E+02  0.51100000000E-03 0.  1.
         11   -1    0    0    0    0 -0.00000000000E+00 -0.00000000000E+00 -0.45593999997E+02  0.45594000000E+02  0.51100000000E-03 0. -1.
    9900012    2    1    2    0    0  0.29314911698E+02  0.21963582991E+02  0.17646606016E+02  0.50528859213E+02  0.29999998064E+02 0.  0.
         12    1    1    2    0    0 -0.29314911698E+02 -0.21963582991E+02 -0.17646606016E+02  0.40659140787E+02  0.00000000000E+00 0. -1.
         11    1    3    3    0    0  0.24917221330E+01  0.25100922256E+01 -0.58714195676E+01  0.68544007884E+01  0.51100000000E-03 0. -1.
        -11    1    3    3    0    0 -0.19749253755E+01  0.31033026593E+01  0.26169546025E+01  0.45143404044E+01  0.51100000000E-03 0.  1.
        -12    1    3    3    0    0  0.28798114940E+02  0.16350188106E+02  0.20901070981E+02  0.39160118020E+02  0.00000000000E+00 0.  1.
</event>
<event>
 7    1  0.5479172E-013  0.5052886E+02  0.7816164E-02  0.1300439E+00
        -11   -1    0    0    0    0  0.00000000000E+00  0.00000000000E+00  0.45593999997E+02  0.45594000000E+02  0.51100000000E-03 0.  1.
         11   -1    0    0    0    0 -0.00000000000E+00 -0.00000000000E+00 -0.45593999997E+02  0.45594000000E+02  0.51100000000E-03 0. -1.
    9900012    2    1    2    0    0 -0.39621652359E+02  0.87869750342E+01 -0.24656273064E+01  0.50528861004E+02  0.30000003507E+02 0.  0.
         12    1    1    2    0    0  0.39621652359E+02 -0.87869750342E+01  0.24656273064E+01  0.40659138996E+02  0.00000000000E+00 0. -1.
         11    1    3    3    0    0 -0.76846005032E+01  0.17139077837E+01  0.58124186854E+01  0.97864588090E+01  0.51100000000E-03 0.  1.
        -11    1    3    3    0    0 -0.30871060544E+02  0.55900623337E+01 -0.14278974261E+02  0.34469700930E+02  0.51100000000E-03 0. -1.
         12    1    3    3    0    0 -0.10659913117E+01  0.14830049167E+01  0.60009282695E+01  0.62727012647E+01  0.00000000000E+00 0. -1.
</event>
<event>
 7    1  0.5479172E-013  0.5052887E+02  0.7816164E-02  0.1300439E+00
        -11   -1    0    0    0    0  0.00000000000E+00  0.00000000000E+00  0.45593999997E+02  0.45594000000E+02  0.51100000000E-03 0.  1.
         11   -1    0    0    0    0 -0.00000000000E+00 -0.00000000000E+00 -0.45593999997E+02  0.45594000000E+02  0.51100000000E-03 0. -1.
    9900012    2    1    2    0    0  0.30304251231E+01  0.24921361112E+02  0.31982924924E+02  0.50528865691E+02  0.30000017754E+02 0.  0.
         12    1    1    2    0    0 -0.30304251231E+01 -0.24921361112E+02 -0.31982924924E+02  0.40659134309E+02  0.00000000000E+00 0. -1.
         11    1    3    3    0    0  0.21763746935E+01 -0.24300926281E+00  0.37080004692E+01  0.43063822460E+01  0.51100000000E-03 0. -1.
        -11    1    3    3    0    0  0.11710808076E+02  0.48199249968E+01  0.14937236472E+02  0.19583047170E+02  0.51100000000E-03 0.  1.
         12    1    3    3    0    0 -0.10856757646E+02  0.20344445378E+02  0.13337687982E+02  0.26639436275E+02  0.00000000000E+00 0. -1.
</event>
<event>
 7    1  0.5479172E-013  0.5052886E+02  0.7816164E-02  0.1300439E+00
        -11   -1    0    0    0    0  0.00000000000E+00  0.00000000000E+00  0.45593999997E+02  0.45594000000E+02  0.51100000000E-03 0. -1.
         11   -1    0    0    0    0 -0.00000000000E+00 -0.00000000000E+00 -0.45593999997E+02  0.45594000000E+02  0.51100000000E-03 0.  1.
    9900012    2    1    2    0    0  0.20757935665E+02  0.19762210398E+02 -0.28839708826E+02  0.50528860092E+02  0.30000000736E+02 0.  0.
         12    1    1    2    0    0 -0.20757935665E+02 -0.19762210398E+02  0.28839708826E+02  0.40659139908E+02  0.00000000000E+00 0. -1.
         11    1    3    3    0    0  0.39663059005E+01  0.34467016031E+00  0.45476451301E+01  0.60441257851E+01  0.51100000000E-03 0. -1.
        -11    1    3    3    0    0  0.18347782271E+02  0.12995756320E+02 -0.22925290938E+02  0.32110742150E+02  0.51100000000E-03 0.  1.
        -12    1    3    3    0    0 -0.15561525064E+01  0.64217839181E+01 -0.10462063018E+02  0.12373992157E+02  0.00000000000E+00 0.  1.
</event>
<event>
 7    1  0.5479172E-013  0.5052887E+02  0.7816164E-02  0.1300439E+00
        -11   -1    0    0    0    0  0.00000000000E+00  0.00000000000E+00  0.45593999997E+02  0.45594000000E+02  0.51100000000E-03 0.  1.
         11   -1    0    0    0    0 -0.00000000000E+00 -0.00000000000E+00 -0.45593999997E+02  0.45594000000E+02  0.51100000000E-03 0. -1.
    9900012    2    1    2    0    0 -0.37980952274E+02  0.66688814833E+01  0.12889452612E+02  0.50528871818E+02  0.30000036378E+02 0.  0.
         12    1    1    2    0    0  0.37980952274E+02 -0.66688814833E+01 -0.12889452612E+02  0.40659128182E+02  0.00000000000E+00 0. -1.
         11    1    3    3    0    0  0.21386762330E+01  0.66936274607E+00  0.40766484385E+01  0.46519936874E+01  0.51100000000E-03 0. -1.
        -11    1    3    3    0    0 -0.22480973258E+02  0.47121479435E+00  0.14235404952E+02  0.26613210187E+02  0.51100000000E-03 0.  1.
        -12    1    3    3    0    0 -0.17638655248E+02  0.55283039429E+01 -0.54226007784E+01  0.19263667944E+02  0.00000000000E+00 0.  1.
</event>
<event>
 7    1  0.5479172E-013  0.5052886E+02  0.7816164E-02  0.1300439E+00
        -11   -1    0    0    0    0  0.00000000000E+00  0.00000000000E+00  0.45593999997E+02  0.45594000000E+02  0.51100000000E-03 0.  1.
         11   -1    0    0    0    0 -0.00000000000E+00 -0.00000000000E+00 -0.45593999997E+02  0.45594000000E+02  0.51100000000E-03 0. -1.
    9900012    2    1    2    0    0  0.26751053774E+01 -0.20110381524E+02  0.35236089909E+02  0.50528859995E+02  0.30000000442E+02 0.  0.
         12    1    1    2    0    0 -0.26751053774E+01  0.20110381524E+02 -0.35236089909E+02  0.40659140005E+02  0.00000000000E+00 0. -1.
         11    1    3    3    0    0  0.82225548951E+01 -0.62813679604E-01  0.12209430219E+02  0.14720208596E+02  0.51100000000E-03 0. -1.
        -11    1    3    3    0    0  0.53307354929E+01 -0.21748780044E+01  0.87675692192E+01  0.10488903923E+02  0.51100000000E-03 0.  1.
         12    1    3    3    0    0 -0.10878185011E+02 -0.17872689840E+02  0.14259090471E+02  0.25319747477E+02  0.00000000000E+00 0. -1.
</event>
<event>
 7    1  0.5479172E-013  0.5052886E+02  0.7816164E-02  0.1300439E+00
        -11   -1    0    0    0    0  0.00000000000E+00  0.00000000000E+00  0.45593999997E+02  0.45594000000E+02  0.51100000000E-03 0.  1.
         11   -1    0    0    0    0 -0.00000000000E+00 -0.00000000000E+00 -0.45593999997E+02  0.45594000000E+02  0.51100000000E-03 0. -1.
    9900012    2    1    2    0    0  0.32737582157E+02  0.23933630200E+02 -0.29321497875E+01  0.50528862744E+02  0.30000008796E+02 0.  0.
         12    1    1    2    0    0 -0.32737582157E+02 -0.23933630200E+02  0.29321497875E+01  0.40659137256E+02  0.00000000000E+00 0. -1.
         11    1    3    3    0    0  0.17458238205E+02  0.19582995919E+02 -0.95256504480E+01  0.27910962490E+02  0.51100000000E-03 0.  1.
        -11    1    3    3    0    0  0.68308254327E+00  0.32899313887E+01  0.72264891437E+01  0.79694664757E+01  0.51100000000E-03 0. -1.
         12    1    3    3    0    0  0.14596261408E+02  0.10607028919E+01 -0.63298848319E+00  0.14648433778E+02  0.00000000000E+00 0. -1.
</event>
<event>
 7    1  0.5479172E-013  0.5052879E+02  0.7816164E-02  0.1300439E+00
        -11   -1    0    0    0    0  0.00000000000E+00  0.00000000000E+00  0.45593999997E+02  0.45594000000E+02  0.51100000000E-03 0.  1.
         11   -1    0    0    0    0 -0.00000000000E+00 -0.00000000000E+00 -0.45593999997E+02  0.45594000000E+02  0.51100000000E-03 0. -1.
    9900012    2    1    2    0    0  0.24616623975E+02  0.30049885094E+02  0.12008217091E+02  0.50528793812E+02  0.29999799272E+02 0.  0.
         12    1    1    2    0    0 -0.24616623975E+02 -0.30049885094E+02 -0.12008217091E+02  0.40659206188E+02  0.00000000000E+00 0. -1.
         11    1    3    3    0    0  0.27367925332E+01  0.41369334076E+01  0.69451000185E+01  0.85345571600E+01  0.51100000000E-03 0. -1.
        -11    1    3    3    0    0  0.26593622571E+02  0.19138913999E+02  0.70301694424E+01  0.33510327858E+02  0.51100000000E-03 0.  1.
         12    1    3    3    0    0 -0.47137911295E+01  0.67740376878E+01 -0.19670523696E+01  0.84839087945E+01  0.00000000000E+00 0. -1.
</event>
<event>
 7    1  0.5479172E-013  0.5052886E+02  0.7816164E-02  0.1300439E+00
        -11   -1    0    0    0    0  0.00000000000E+00  0.00000000000E+00  0.45593999997E+02  0.45594000000E+02  0.51100000000E-03 0.  1.
         11   -1    0    0    0    0 -0.00000000000E+00 -0.00000000000E+00 -0.45593999997E+02  0.45594000000E+02  0.51100000000E-03 0. -1.
    9900012    2    1    2    0    0  0.20799041743E+01 -0.56406890619E+01  0.40212216123E+02  0.50528859576E+02  0.29999999167E+02 0.  0.
         12    1    1    2    0    0 -0.20799041743E+01  0.56406890619E+01 -0.40212216123E+02  0.40659140424E+02  0.00000000000E+00 0. -1.
         11    1    3    3    0    0  0.21208293314E+01 -0.16096151327E+01  0.12624158400E+02  0.12901866280E+02  0.51100000000E-03 0. -1.
        -11    1    3    3    0    0  0.12235099624E+02  0.44777070636E+00  0.10599715304E+02  0.16194200388E+02  0.51100000000E-03 0.  1.
         12    1    3    3    0    0 -0.12276024781E+02 -0.44788446356E+01  0.16988342419E+02  0.21432792908E+02  0.00000000000E+00 0. -1.
</event>
<event>
 7    1  0.5479172E-013  0.5052886E+02  0.7816164E-02  0.1300439E+00
        -11   -1    0    0    0    0  0.00000000000E+00  0.00000000000E+00  0.45593999997E+02  0.45594000000E+02  0.51100000000E-03 0.  1.
         11   -1    0    0    0    0 -0.00000000000E+00 -0.00000000000E+00 -0.45593999997E+02  0.45594000000E+02  0.51100000000E-03 0. -1.
    9900012    2    1    2    0    0 -0.50381458390E+01 -0.40279794562E+02  0.23067302557E+01  0.50528858741E+02  0.29999996630E+02 0.  0.
         12    1    1    2    0    0  0.50381458390E+01  0.40279794562E+02 -0.23067302557E+01  0.40659141259E+02  0.00000000000E+00 0. -1.
         11    1    3    3    0    0  0.15647844343E+01 -0.23029495482E+02  0.20625697832E+01  0.23174563790E+02  0.51100000000E-03 0. -1.
        -11    1    3    3    0    0  0.22044130413E+00 -0.50606411264E+01 -0.91927863854E+01  0.10495999465E+02  0.51100000000E-03 0.  1.
        -12    1    3    3    0    0 -0.68233715774E+01 -0.12189657953E+02  0.94369468580E+01  0.16858295486E+02  0.00000000000E+00 0.  1.
</event>
<event>
 7    1  0.5479172E-013  0.5052887E+02  0.7816164E-02  0.1300439E+00
        -11   -1    0    0    0    0  0.00000000000E+00  0.00000000000E+00  0.45593999997E+02  0.45594000000E+02  0.51100000000E-03 0.  1.
         11   -1    0    0    0    0 -0.00000000000E+00 -0.00000000000E+00 -0.45593999997E+02  0.45594000000E+02  0.51100000000E-03 0. -1.
    9900012    2    1    2    0    0  0.13667572566E+02  0.18711586660E+02  0.33410154837E+02  0.50528874808E+02  0.30000045466E+02 0.  0.
         12    1    1    2    0    0 -0.13667572566E+02 -0.18711586660E+02 -0.33410154837E+02  0.40659125192E+02  0.00000000000E+00 0. -1.
         11    1    3    3    0    0 -0.41052086922E+01  0.30623078642E+01  0.21217530177E+01  0.55436724282E+01  0.51100000000E-03 0. -1.
        -11    1    3    3    0    0  0.10802540648E+02 -0.20317700601E+01  0.39302661469E+01  0.11673472760E+02  0.51100000000E-03 0.  1.
         12    1    3    3    0    0  0.69702406102E+01  0.17681048856E+02  0.27358135672E+02  0.33311729620E+02  0.00000000000E+00 0. -1.
</event>
<event>
 7    1  0.5479172E-013  0.5052886E+02  0.7816164E-02  0.1300439E+00
        -11   -1    0    0    0    0  0.00000000000E+00  0.00000000000E+00  0.45593999997E+02  0.45594000000E+02  0.51100000000E-03 0. -1.
         11   -1    0    0    0    0 -0.00000000000E+00 -0.00000000000E+00 -0.45593999997E+02  0.45594000000E+02  0.51100000000E-03 0.  1.
    9900012    2    1    2    0    0  0.28547013185E+02  0.28878066928E+02 -0.20714187115E+01  0.50528862199E+02  0.30000007139E+02 0.  0.
         12    1    1    2    0    0 -0.28547013185E+02 -0.28878066928E+02  0.20714187115E+01  0.40659137801E+02  0.00000000000E+00 0. -1.
         11    1    3    3    0    0 -0.11314214100E+01  0.85076241480E+01  0.80636772326E+01  0.11776360806E+02  0.51100000000E-03 0. -1.
        -11    1    3    3    0    0  0.39379041498E+01  0.28410441151E+00 -0.38269773696E+01  0.54985052931E+01  0.51100000000E-03 0.  1.
        -12    1    3    3    0    0  0.25740530446E+02  0.20086338368E+02 -0.63081185744E+01  0.33253996100E+02  0.00000000000E+00 0.  1.
</event>
<event>
 7    1  0.5479172E-013  0.5052886E+02  0.7816164E-02  0.1300439E+00
        -11   -1    0    0    0    0  0.00000000000E+00  0.00000000000E+00  0.45593999997E+02  0.45594000000E+02  0.51100000000E-03 0.  1.
         11   -1    0    0    0    0 -0.00000000000E+00 -0.00000000000E+00 -0.45593999997E+02  0.45594000000E+02  0.51100000000E-03 0. -1.
    9900012    2    1    2    0    0 -0.92010099271E+01 -0.37738284732E+02  0.12013704096E+02  0.50528858294E+02  0.29999995270E+02 0.  0.
         12    1    1    2    0    0  0.92010099271E+01  0.37738284732E+02 -0.12013704096E+02  0.40659141706E+02  0.00000000000E+00 0. -1.
         11    1    3    3    0    0  0.32909506969E+01 -0.14792802270E+01 -0.17447369873E+01  0.40078340653E+01  0.51100000000E-03 0. -1.
        -11    1    3    3    0    0  0.55346548968E+01 -0.11040425461E+02 -0.58626359608E+00  0.12363943726E+02  0.51100000000E-03 0.  1.
        -12    1    3    3    0    0 -0.18026615521E+02 -0.25218579044E+02  0.14344704679E+02  0.34157080502E+02  0.00000000000E+00 0.  1.
</event>
<event>
 7    1  0.5479172E-013  0.5052886E+02  0.7816164E-02  0.1300439E+00
        -11   -1    0    0    0    0  0.00000000000E+00  0.00000000000E+00  0.45593999997E+02  0.45594000000E+02  0.51100000000E-03 0. -1.
         11   -1    0    0    0    0 -0.00000000000E+00 -0.00000000000E+00 -0.45593999997E+02  0.45594000000E+02  0.51100000000E-03 0.  1.
    9900012    2    1    2    0    0 -0.80708775670E+01 -0.69803475825E+01 -0.39233935433E+02  0.50528855805E+02  0.29999987706E+02 0.  0.
         12    1    1    2    0    0  0.80708775670E+01  0.69803475825E+01  0.39233935433E+02  0.40659144195E+02  0.00000000000E+00 0. -1.
         11    1    3    3    0    0 -0.20702483457E+01 -0.73826076200E+01 -0.20462614734E+02  0.21851943289E+02  0.51100000000E-03 0. -1.
        -11    1    3    3    0    0  0.53977412961E+00 -0.33947446101E+01 -0.20609382319E+02  0.20894073009E+02  0.51100000000E-03 0.  1.
         12    1    3    3    0    0 -0.65404033509E+01  0.37970046475E+01  0.18380616199E+01  0.77828395078E+01  0.00000000000E+00 0. -1.
</event>
<event>
 7    1  0.5479172E-013  0.5052885E+02  0.7816164E-02  0.1300439E+00
        -11   -1    0    0    0    0  0.00000000000E+00  0.00000000000E+00  0.45593999997E+02  0.45594000000E+02  0.51100000000E-03 0. -1.
         11   -1    0    0    0    0 -0.00000000000E+00 -0.00000000000E+00 -0.45593999997E+02  0.45594000000E+02  0.51100000000E-03 0.  1.
    9900012    2    1    2    0    0 -0.78343729967E+00  0.25209400993E+02 -0.31891041714E+02  0.50528853255E+02  0.29999979955E+02 0.  0.
         12    1    1    2    0    0  0.78343729967E+00 -0.25209400993E+02  0.31891041714E+02  0.40659146745E+02  0.00000000000E+00 0. -1.
         11    1    3    3    0    0  0.20386387101E+01  0.54575514533E+01  0.13052065376E+01  0.59702998269E+01  0.51100000000E-03 0. -1.
        -11    1    3    3    0    0 -0.79725283804E+01  0.12400244781E+02 -0.59947609000E+01  0.15914284084E+02  0.51100000000E-03 0.  1.
        -12    1    3    3    0    0  0.51504523706E+01  0.73516047589E+01 -0.27201487351E+02  0.28644269344E+02  0.00000000000E+00 0.  1.
</event>
<event>
 7    1  0.5479172E-013  0.5052886E+02  0.7816164E-02  0.1300439E+00
        -11   -1    0    0    0    0  0.00000000000E+00  0.00000000000E+00  0.45593999997E+02  0.45594000000E+02  0.51100000000E-03 0.  1.
         11   -1    0    0    0    0 -0.00000000000E+00 -0.00000000000E+00 -0.45593999997E+02  0.45594000000E+02  0.51100000000E-03 0. -1.
    9900012    2    1    2    0    0 -0.29728441660E+02 -0.62990735943E+01  0.27013092460E+02  0.50528859134E+02  0.29999997825E+02 0.  0.
         12    1    1    2    0    0  0.29728441660E+02  0.62990735943E+01 -0.27013092460E+02  0.40659140866E+02  0.00000000000E+00 0. -1.
         11    1    3    3    0    0 -0.36684661166E+01 -0.32789674305E-01  0.12408192015E+02  0.12939163349E+02  0.51100000000E-03 0. -1.
        -11    1    3    3    0    0 -0.66384593683E+01 -0.11916550319E+02  0.20785936429E+01  0.13798328380E+02  0.51100000000E-03 0.  1.
         12    1    3    3    0    0 -0.19421516175E+02  0.56502663995E+01  0.12526306802E+02  0.23791367405E+02  0.00000000000E+00 0. -1.
</event>
<event>
 7    1  0.5479172E-013  0.5052886E+02  0.7816164E-02  0.1300439E+00
        -11   -1    0    0    0    0  0.00000000000E+00  0.00000000000E+00  0.45593999997E+02  0.45594000000E+02  0.51100000000E-03 0.  1.
         11   -1    0    0    0    0 -0.00000000000E+00 -0.00000000000E+00 -0.45593999997E+02  0.45594000000E+02  0.51100000000E-03 0. -1.
    9900012    2    1    2    0    0 -0.26983456668E+02  0.13328065347E+00  0.30414489699E+02  0.50528857348E+02  0.29999992396E+02 0.  0.
         12    1    1    2    0    0  0.26983456668E+02 -0.13328065347E+00 -0.30414489699E+02  0.40659142652E+02  0.00000000000E+00 0. -1.
         11    1    3    3    0    0 -0.15542655591E+02 -0.88651545522E+01  0.14526317886E+02  0.23047321312E+02  0.51100000000E-03 0. -1.
        -11    1    3    3    0    0 -0.13751890335E+02  0.81486452193E+00  0.11308899703E+02  0.17823291075E+02  0.51100000000E-03 0.  1.
         12    1    3    3    0    0  0.23110892575E+01  0.81835706838E+01  0.45792721096E+01  0.96582449620E+01  0.00000000000E+00 0. -1.
</event>
<event>
 7    1  0.5479172E-013  0.5052885E+02  0.7816164E-02  0.1300439E+00
        -11   -1    0    0    0    0  0.00000000000E+00  0.00000000000E+00  0.45593999997E+02  0.45594000000E+02  0.51100000000E-03 0. -1.
         11   -1    0    0    0    0 -0.00000000000E+00 -0.00000000000E+00 -0.45593999997E+02  0.45594000000E+02  0.51100000000E-03 0.  1.
    9900012    2    1    2    0    0  0.25941526373E+01 -0.14900259713E+02 -0.37741472551E+02  0.50528854440E+02  0.29999983555E+02 0.  0.
         12    1    1    2    0    0 -0.25941526373E+01  0.14900259713E+02  0.37741472551E+02  0.40659145560E+02  0.00000000000E+00 0. -1.
         11    1    3    3    0    0  0.61446607095E+00  0.27129956051E+01 -0.28712485181E+01  0.39977471180E+01  0.51100000000E-03 0. -1.
        -11    1    3    3    0    0  0.58939889226E+01  0.49645977846E+01 -0.66472184046E+01  0.10177025566E+02  0.51100000000E-03 0.  1.
        -12    1    3    3    0    0 -0.39143023563E+01 -0.22577853102E+02 -0.28223005628E+02  0.36354081756E+02  0.00000000000E+00 0.  1.
</event>
<event>
 7    1  0.5479172E-013  0.5052884E+02  0.7816164E-02  0.1300439E+00
        -11   -1    0    0    0    0  0.00000000000E+00  0.00000000000E+00  0.45593999997E+02  0.45594000000E+02  0.51100000000E-03 0.  1.
         11   -1    0    0    0    0 -0.00000000000E+00 -0.00000000000E+00 -0.45593999997E+02  0.45594000000E+02  0.51100000000E-03 0. -1.
    9900012    2    1    2    0    0  0.20503277847E+02  0.65869016459E+01  0.34487615372E+02  0.50528840026E+02  0.29999939742E+02 0.  0.
         12    1    1    2    0    0 -0.20503277847E+02 -0.65869016459E+01 -0.34487615372E+02  0.40659159974E+02  0.00000000000E+00 0. -1.
         11    1    3    3    0    0  0.87909405647E+01 -0.41141645198E+01  0.11259720157E+02  0.14865674690E+02  0.51100000000E-03 0. -1.
        -11    1    3    3    0    0  0.28276312145E+01 -0.23287718292E+00  0.21247440892E+02  0.21436032160E+02  0.51100000000E-03 0.  1.
        -12    1    3    3    0    0  0.88847060679E+01  0.10933943349E+02  0.19804543227E+01  0.14227133175E+02  0.00000000000E+00 0.  1.
</event>
<event>
 7    1  0.5479172E-013  0.5052886E+02  0.7816164E-02  0.1300439E+00
        -11   -1    0    0    0    0  0.00000000000E+00  0.00000000000E+00  0.45593999997E+02  0.45594000000E+02  0.51100000000E-03 0. -1.
         11   -1    0    0    0    0 -0.00000000000E+00 -0.00000000000E+00 -0.45593999997E+02  0.45594000000E+02  0.51100000000E-03 0.  1.
    9900012    2    1    2    0    0  0.54424972126E+01  0.11101388172E+01 -0.40277935675E+02  0.50528864663E+02  0.30000014630E+02 0.  0.
         12    1    1    2    0    0 -0.54424972126E+01 -0.11101388172E+01  0.40277935675E+02  0.40659135337E+02  0.00000000000E+00 0. -1.
         11    1    3    3    0    0  0.39678310411E+01  0.10740734976E+02 -0.62277195225E+01  0.13034245728E+02  0.51100000000E-03 0. -1.
        -11    1    3    3    0    0  0.35706675910E+01  0.88079511186E+00 -0.16704166379E+02  0.17104228768E+02  0.51100000000E-03 0.  1.
         12    1    3    3    0    0 -0.20960014195E+01 -0.10511391271E+02 -0.17346049774E+02  0.20390390167E+02  0.00000000000E+00 0. -1.
</event>
<event>
 7    1  0.5479172E-013  0.5052886E+02  0.7816164E-02  0.1300439E+00
        -11   -1    0    0    0    0  0.00000000000E+00  0.00000000000E+00  0.45593999997E+02  0.45594000000E+02  0.51100000000E-03 0.  1.
         11   -1    0    0    0    0 -0.00000000000E+00 -0.00000000000E+00 -0.45593999997E+02  0.45594000000E+02  0.51100000000E-03 0. -1.
    9900012    2    1    2    0    0  0.15817770254E+02  0.23604282458E+01  0.37381708361E+02  0.50528860839E+02  0.30000003008E+02 0.  0.
         12    1    1    2    0    0 -0.15817770254E+02 -0.23604282458E+01 -0.37381708361E+02  0.40659139161E+02  0.00000000000E+00 0. -1.
         11    1    3    3    0    0  0.12350847540E+02 -0.52347252960E+01  0.11473562999E+02  0.17651867664E+02  0.51100000000E-03 0. -1.
        -11    1    3    3    0    0  0.92611785480E+01  0.54319518201E+01  0.24177950420E+02  0.26454655837E+02  0.51100000000E-03 0.  1.
        -12    1    3    3    0    0 -0.57942558337E+01  0.21632017216E+01  0.17301949416E+01  0.64223373385E+01  0.00000000000E+00 0.  1.
</event>
<event>
 7    1  0.5479172E-013  0.5052886E+02  0.7816164E-02  0.1300439E+00
        -11   -1    0    0    0    0  0.00000000000E+00  0.00000000000E+00  0.45593999997E+02  0.45594000000E+02  0.51100000000E-03 0.  1.
         11   -1    0    0    0    0 -0.00000000000E+00 -0.00000000000E+00 -0.45593999997E+02  0.45594000000E+02  0.51100000000E-03 0. -1.
    9900012    2    1    2    0    0 -0.31753683004E+02 -0.23341673604E+02 -0.10001779732E+02  0.50528859469E+02  0.29999998842E+02 0.  0.
         12    1    1    2    0    0  0.31753683004E+02  0.23341673604E+02  0.10001779732E+02  0.40659140531E+02  0.00000000000E+00 0. -1.
         11    1    3    3    0    0  0.27916501010E+01 -0.94963392279E-01 -0.56999159925E+01  0.63475484176E+01  0.51100000000E-03 0. -1.
        -11    1    3    3    0    0 -0.10673623280E+02 -0.14458363652E+02  0.16789918262E+01  0.18049640640E+02  0.51100000000E-03 0.  1.
         12    1    3    3    0    0 -0.23871709824E+02 -0.87883465590E+01 -0.59808555655E+01  0.26131670411E+02  0.00000000000E+00 0. -1.
</event>
<event>
 7    1  0.5479172E-013  0.5052886E+02  0.7816164E-02  0.1300439E+00
        -11   -1    0    0    0    0  0.00000000000E+00  0.00000000000E+00  0.45593999997E+02  0.45594000000E+02  0.51100000000E-03 0.  1.
         11   -1    0    0    0    0 -0.00000000000E+00 -0.00000000000E+00 -0.45593999997E+02  0.45594000000E+02  0.51100000000E-03 0. -1.
    9900012    2    1    2    0    0 -0.13378149580E+01 -0.20491450781E+02  0.35092392784E+02  0.50528864061E+02  0.30000012800E+02 0.  0.
         12    1    1    2    0    0  0.13378149580E+01  0.20491450781E+02 -0.35092392784E+02  0.40659135939E+02  0.00000000000E+00 0. -1.
         11    1    3    3    0    0  0.10400422494E+01 -0.36979311567E+01  0.75538493318E+00  0.39149699077E+01  0.51100000000E-03 0. -1.
        -11    1    3    3    0    0 -0.45832128590E+01 -0.80524651591E+01 -0.17401880856E+01  0.94274222396E+01  0.51100000000E-03 0.  1.
        -12    1    3    3    0    0  0.22053556517E+01 -0.87410544655E+01  0.36077195937E+02  0.37186471914E+02  0.00000000000E+00 0.  1.
</event>
<event>
 7    1  0.5479172E-013  0.5052886E+02  0.7816164E-02  0.1300439E+00
        -11   -1    0    0    0    0  0.00000000000E+00  0.00000000000E+00  0.45593999997E+02  0.45594000000E+02  0.51100000000E-03 0.  1.
         11   -1    0    0    0    0 -0.00000000000E+00 -0.00000000000E+00 -0.45593999997E+02  0.45594000000E+02  0.51100000000E-03 0. -1.
    9900012    2    1    2    0    0 -0.56808845096E+01  0.13514970532E+02  0.37924119952E+02  0.50528858944E+02  0.29999997246E+02 0.  0.
         12    1    1    2    0    0  0.56808845096E+01 -0.13514970532E+02 -0.37924119952E+02  0.40659141056E+02  0.00000000000E+00 0. -1.
         11    1    3    3    0    0 -0.10776734534E+01  0.10973481128E+01  0.24541087706E+02  0.24589236243E+02  0.51100000000E-03 0. -1.
        -11    1    3    3    0    0 -0.29505020741E+01  0.14058350831E+02  0.16610150167E+02  0.21959958547E+02  0.51100000000E-03 0.  1.
         12    1    3    3    0    0 -0.16527089821E+01 -0.16407284116E+01 -0.32271179211E+01  0.39796641538E+01  0.00000000000E+00 0. -1.
</event>
<event>
 7    1  0.5479172E-013  0.5052887E+02  0.7816164E-02  0.1300439E+00
        -11   -1    0    0    0    0  0.00000000000E+00  0.00000000000E+00  0.45593999997E+02  0.45594000000E+02  0.51100000000E-03 0.  1.
         11   -1    0    0    0    0 -0.00000000000E+00 -0.00000000000E+00 -0.45593999997E+02  0.45594000000E+02  0.51100000000E-03 0. -1.
    9900012    2    1    2    0    0  0.15525818953E+02  0.25149714935E+02  0.27921425805E+02  0.50528865301E+02  0.30000016569E+02 0.  0.
         12    1    1    2    0    0 -0.15525818953E+02 -0.25149714935E+02 -0.27921425805E+02  0.40659134699E+02  0.00000000000E+00 0. -1.
         11    1    3    3    0    0  0.13184515783E+01 -0.31313629263E+00 -0.39002357581E+01  0.41289475816E+01  0.51100000000E-03 0. -1.
        -11    1    3    3    0    0 -0.16820045488E+01 -0.11730658333E+01  0.49686294155E+01  0.53751745349E+01  0.51100000000E-03 0.  1.
        -12    1    3    3    0    0  0.15889371924E+02  0.26635917061E+02  0.26853032148E+02  0.41024743184E+02  0.00000000000E+00 0.  1.
</event>
<event>
 7    1  0.5479172E-013  0.5052888E+02  0.7816164E-02  0.1300439E+00
        -11   -1    0    0    0    0  0.00000000000E+00  0.00000000000E+00  0.45593999997E+02  0.45594000000E+02  0.51100000000E-03 0.  1.
         11   -1    0    0    0    0 -0.00000000000E+00 -0.00000000000E+00 -0.45593999997E+02  0.45594000000E+02  0.51100000000E-03 0. -1.
    9900012    2    1    2    0    0 -0.61823319604E+01  0.33469347608E+02  0.22242882673E+02  0.50528876948E+02  0.30000051970E+02 0.  0.
         12    1    1    2    0    0  0.61823319604E+01 -0.33469347608E+02 -0.22242882673E+02  0.40659123052E+02  0.00000000000E+00 0. -1.
         11    1    3    3    0    0 -0.74234088588E+01  0.21070634078E+02  0.16017852043E+02  0.27489092452E+02  0.51100000000E-03 0.  1.
        -11    1    3    3    0    0 -0.66957208229E+01  0.12464883958E+02  0.50102689470E+01  0.15010289957E+02  0.51100000000E-03 0. -1.
         12    1    3    3    0    0  0.79367977212E+01 -0.66170427081E-01  0.12147616828E+01  0.80294945382E+01  0.00000000000E+00 0. -1.
</event>
<event>
 7    1  0.6519180E-013  0.5052887E+02  0.7816164E-02  0.1300439E+00
        -11   -1    0    0    0    0  0.00000000000E+00  0.00000000000E+00  0.45593999997E+02  0.45594000000E+02  0.51100000000E-03 0. -1.
         11   -1    0    0    0    0 -0.00000000000E+00 -0.00000000000E+00 -0.45593999997E+02  0.45594000000E+02  0.51100000000E-03 0.  1.
    9900012    2    1    2    0    0  0.16222308857E+01  0.41936009127E+01 -0.40409742128E+02  0.50528865965E+02  0.30000018586E+02 0.  0.
         12    1    1    2    0    0 -0.16222308857E+01 -0.41936009127E+01  0.40409742128E+02  0.40659134035E+02  0.00000000000E+00 0. -1.
         11    1    3    3    0    0  0.45409148362E+01  0.30159290853E+00  0.10814174917E+01  0.46776414874E+01  0.51100000000E-03 0. -1.
        -11    1    3    3    0    0  0.17183529966E+01 -0.42237456342E+01 -0.15273800599E+01  0.48089140470E+01  0.51100000000E-03 0.  1.
        -12    1    3    3    0    0 -0.46370369470E+01  0.81157536384E+01 -0.39963779560E+02  0.41042310430E+02  0.00000000000E+00 0.  1.
</event>
<event>
 7    1  0.5479172E-013  0.5052885E+02  0.7816164E-02  0.1300439E+00
        -11   -1    0    0    0    0  0.00000000000E+00  0.00000000000E+00  0.45593999997E+02  0.45594000000E+02  0.51100000000E-03 0.  1.
         11   -1    0    0    0    0 -0.00000000000E+00 -0.00000000000E+00 -0.45593999997E+02  0.45594000000E+02  0.51100000000E-03 0. -1.
    9900012    2    1    2    0    0 -0.37388465905E+02 -0.82785534945E+01 -0.13665077758E+02  0.50528853663E+02  0.29999981195E+02 0.  0.
         12    1    1    2    0    0  0.37388465905E+02  0.82785534945E+01  0.13665077758E+02  0.40659146337E+02  0.00000000000E+00 0. -1.
         11    1    3    3    0    0 -0.38112478446E+01  0.46713029338E+01  0.37959047425E+01  0.71242946533E+01  0.51100000000E-03 0. -1.
        -11    1    3    3    0    0 -0.26561747693E+01  0.25338246512E+01 -0.58874176419E+01  0.69380990566E+01  0.51100000000E-03 0.  1.
        -12    1    3    3    0    0 -0.30921043291E+02 -0.15483681079E+02 -0.11573564858E+02  0.36466459953E+02  0.00000000000E+00 0.  1.
</event>
<event>
 7    1  0.5479172E-013  0.5052887E+02  0.7816164E-02  0.1300439E+00
        -11   -1    0    0    0    0  0.00000000000E+00  0.00000000000E+00  0.45593999997E+02  0.45594000000E+02  0.51100000000E-03 0.  1.
         11   -1    0    0    0    0 -0.00000000000E+00 -0.00000000000E+00 -0.45593999997E+02  0.45594000000E+02  0.51100000000E-03 0. -1.
    9900012    2    1    2    0    0 -0.95368894574E+01 -0.17903141756E+02  0.35237619046E+02  0.50528873825E+02  0.30000042480E+02 0.  0.
         12    1    1    2    0    0  0.95368894574E+01  0.17903141756E+02 -0.35237619046E+02  0.40659126175E+02  0.00000000000E+00 0. -1.
         11    1    3    3    0    0 -0.26532980700E+01 -0.51395148233E+01  0.22336102306E+02  0.23072842689E+02  0.51100000000E-03 0. -1.
        -11    1    3    3    0    0 -0.37852512834E+01 -0.31374664914E+01  0.16112563973E+02  0.16845965135E+02  0.51100000000E-03 0.  1.
         12    1    3    3    0    0 -0.30983401040E+01 -0.96261604409E+01 -0.32110472329E+01  0.10610066002E+02  0.00000000000E+00 0. -1.
</event>
<event>
 7    1  0.5479172E-013  0.5052886E+02  0.7816164E-02  0.1300439E+00
        -11   -1    0    0    0    0  0.00000000000E+00  0.00000000000E+00  0.45593999997E+02  0.45594000000E+02  0.51100000000E-03 0. -1.
         11   -1    0    0    0    0 -0.00000000000E+00 -0.00000000000E+00 -0.45593999997E+02  0.45594000000E+02  0.51100000000E-03 0.  1.
    9900012    2    1    2    0    0 -0.29258297501E+02  0.24005815303E+02 -0.14860638721E+02  0.50528859278E+02  0.29999998263E+02 0.  0.
         12    1    1    2    0    0  0.29258297501E+02 -0.24005815303E+02  0.14860638721E+02  0.40659140722E+02  0.00000000000E+00 0. -1.
         11    1    3    3    0    0 -0.62808976492E-01  0.73271582511E+01 -0.10255620393E+02  0.12604322390E+02  0.51100000000E-03 0. -1.
        -11    1    3    3    0    0 -0.20889979139E+02  0.18917816244E+02 -0.69127839745E+01  0.29018297373E+02  0.51100000000E-03 0.  1.
         12    1    3    3    0    0 -0.83055093850E+01 -0.22391591921E+01  0.23077656461E+01  0.89062395156E+01  0.00000000000E+00 0. -1.
</event>
<event>
 7    1  0.5479172E-013  0.5052885E+02  0.7816164E-02  0.1300439E+00
        -11   -1    0    0    0    0  0.00000000000E+00  0.00000000000E+00  0.45593999997E+02  0.45594000000E+02  0.51100000000E-03 0.  1.
         11   -1    0    0    0    0 -0.00000000000E+00 -0.00000000000E+00 -0.45593999997E+02  0.45594000000E+02  0.51100000000E-03 0. -1.
    9900012    2    1    2    0    0  0.25456264945E+02  0.18646737621E+02  0.25640668399E+02  0.50528854353E+02  0.29999983290E+02 0.  0.
         12    1    1    2    0    0 -0.25456264945E+02 -0.18646737621E+02 -0.25640668399E+02  0.40659145647E+02  0.00000000000E+00 0. -1.
         11    1    3    3    0    0 -0.33250403448E+01  0.53618385668E+01 -0.27374587256E+01  0.68774186034E+01  0.51100000000E-03 0. -1.
        -11    1    3    3    0    0  0.11623921852E+02  0.66153115191E+01  0.59556073309E+01  0.14640599873E+02  0.51100000000E-03 0.  1.
         12    1    3    3    0    0  0.17157383437E+02  0.66695875350E+01  0.22422519794E+02  0.29010835876E+02  0.00000000000E+00 0. -1.
</event>
<event>
 7    1  0.5479172E-013  0.5052886E+02  0.7816164E-02  0.1300439E+00
        -11   -1    0    0    0    0  0.00000000000E+00  0.00000000000E+00  0.45593999997E+02  0.45594000000E+02  0.51100000000E-03 0. -1.
         11   -1    0    0    0    0 -0.00000000000E+00 -0.00000000000E+00 -0.45593999997E+02  0.45594000000E+02  0.51100000000E-03 0.  1.
    9900012    2    1    2    0    0 -0.19024005419E+02  0.60698417306E+01 -0.35417648420E+02  0.50528861046E+02  0.30000003637E+02 0.  0.
         12    1    1    2    0    0  0.19024005419E+02 -0.60698417306E+01  0.35417648420E+02  0.40659138954E+02  0.00000000000E+00 0. -1.
         11    1    3    3    0    0 -0.60170578566E+01  0.86932282552E+01 -0.81568793219E+01  0.13353347269E+02  0.51100000000E-03 0. -1.
        -11    1    3    3    0    0 -0.96719923371E+01  0.89620287396E+01 -0.15204557552E+02  0.20125704100E+02  0.51100000000E-03 0.  1.
        -12    1    3    3    0    0 -0.33349552252E+01 -0.11585415264E+02 -0.12056211546E+02  0.17049809678E+02  0.00000000000E+00 0.  1.
</event>
<event>
 7    1  0.5479172E-013  0.5052886E+02  0.7816164E-02  0.1300439E+00
        -11   -1    0    0    0    0  0.00000000000E+00  0.00000000000E+00  0.45593999997E+02  0.45594000000E+02  0.51100000000E-03 0. -1.
         11   -1    0    0    0    0 -0.00000000000E+00 -0.00000000000E+00 -0.45593999997E+02  0.45594000000E+02  0.51100000000E-03 0.  1.
    9900012    2    1    2    0    0  0.49330564291E+01 -0.52043103981E+01 -0.40021813085E+02  0.50528863080E+02  0.30000009818E+02 0.  0.
         12    1    1    2    0    0 -0.49330564291E+01  0.52043103981E+01  0.40021813085E+02  0.40659136920E+02  0.00000000000E+00 0. -1.
         11    1    3    3    0    0  0.59847972007E+01  0.43300813884E+01 -0.15131765963E+02  0.16838579031E+02  0.51100000000E-03 0. -1.
        -11    1    3    3    0    0  0.62795548606E+01  0.23016056736E+01 -0.15543661500E+02  0.16921454164E+02  0.51100000000E-03 0.  1.
         12    1    3    3    0    0 -0.73312956322E+01 -0.11835997460E+02 -0.93463856216E+01  0.16768829885E+02  0.00000000000E+00 0. -1.
</event>
<event>
 7    1  0.5479172E-013  0.5052886E+02  0.7816164E-02  0.1300439E+00
        -11   -1    0    0    0    0  0.00000000000E+00  0.00000000000E+00  0.45593999997E+02  0.45594000000E+02  0.51100000000E-03 0. -1.
         11   -1    0    0    0    0 -0.00000000000E+00 -0.00000000000E+00 -0.45593999997E+02  0.45594000000E+02  0.51100000000E-03 0.  1.
    9900012    2    1    2    0    0 -0.13458378130E+02  0.36820860582E+02 -0.10782479868E+02  0.50528860953E+02  0.30000003353E+02 0.  0.
         12    1    1    2    0    0  0.13458378130E+02 -0.36820860582E+02  0.10782479868E+02  0.40659139047E+02  0.00000000000E+00 0. -1.
         11    1    3    3    0    0  0.12106011659E+01  0.55351625201E+00  0.12335441888E+01  0.18148187102E+01  0.51100000000E-03 0. -1.
        -11    1    3    3    0    0 -0.12327624670E+01  0.29499911136E+02 -0.15390262141E+02  0.33296015217E+02  0.51100000000E-03 0.  1.
        -12    1    3    3    0    0 -0.13436216829E+02  0.67674331946E+01  0.33742380837E+01  0.15418027026E+02  0.00000000000E+00 0.  1.
</event>
<event>
 7    1  0.5479172E-013  0.5052888E+02  0.7816164E-02  0.1300439E+00
        -11   -1    0    0    0    0  0.00000000000E+00  0.00000000000E+00  0.45593999997E+02  0.45594000000E+02  0.51100000000E-03 0.  1.
         11   -1    0    0    0    0 -0.00000000000E+00 -0.00000000000E+00 -0.45593999997E+02  0.45594000000E+02  0.51100000000E-03 0. -1.
    9900012    2    1    2    0    0  0.38166287405E+01 -0.21776761781E+02  0.34122866561E+02  0.50528880101E+02  0.30000061556E+02 0.  0.
         12    1    1    2    0    0 -0.38166287405E+01  0.21776761781E+02 -0.34122866561E+02  0.40659119899E+02  0.00000000000E+00 0. -1.
         11    1    3    3    0    0 -0.75062183569E-01 -0.18892558598E+00  0.18767752718E+01  0.18877533977E+01  0.51100000000E-03 0. -1.
        -11    1    3    3    0    0 -0.61798690843E+01 -0.10148158511E+02  0.31174492453E+02  0.33362027562E+02  0.51100000000E-03 0.  1.
         12    1    3    3    0    0  0.10071560008E+02 -0.11439677684E+02  0.10715988359E+01  0.15279099142E+02  0.00000000000E+00 0. -1.
</event>
<event>
 7    1  0.5479172E-013  0.5052886E+02  0.7816164E-02  0.1300439E+00
        -11   -1    0    0    0    0  0.00000000000E+00  0.00000000000E+00  0.45593999997E+02  0.45594000000E+02  0.51100000000E-03 0.  1.
         11   -1    0    0    0    0 -0.00000000000E+00 -0.00000000000E+00 -0.45593999997E+02  0.45594000000E+02  0.51100000000E-03 0. -1.
    9900012    2    1    2    0    0  0.12704580640E+02 -0.13796995331E+02  0.36074956229E+02  0.50528856916E+02  0.29999991081E+02 0.  0.
         12    1    1    2    0    0 -0.12704580640E+02  0.13796995331E+02 -0.36074956229E+02  0.40659143084E+02  0.00000000000E+00 0. -1.
         11    1    3    3    0    0 -0.12895656918E+01 -0.24094103056E+01  0.26893170287E+02  0.27031663768E+02  0.51100000000E-03 0. -1.
        -11    1    3    3    0    0  0.33725910756E+01 -0.21331157580E+01  0.85033809359E+01  0.93931912044E+01  0.51100000000E-03 0.  1.
         12    1    3    3    0    0  0.10621555256E+02 -0.92544692669E+01  0.67840500607E+00  0.14104001944E+02  0.00000000000E+00 0. -1.
</event>
<event>
 7    1  0.5479172E-013  0.5052886E+02  0.7816164E-02  0.1300439E+00
        -11   -1    0    0    0    0  0.00000000000E+00  0.00000000000E+00  0.45593999997E+02  0.45594000000E+02  0.51100000000E-03 0.  1.
         11   -1    0    0    0    0 -0.00000000000E+00 -0.00000000000E+00 -0.45593999997E+02  0.45594000000E+02  0.51100000000E-03 0. -1.
    9900012    2    1    2    0    0  0.27935603038E+02  0.37995203840E+01  0.29297295663E+02  0.50528858280E+02  0.29999995228E+02 0.  0.
         12    1    1    2    0    0 -0.27935603038E+02 -0.37995203840E+01 -0.29297295663E+02  0.40659141720E+02  0.00000000000E+00 0. -1.
         11    1    3    3    0    0  0.12260955200E+02 -0.76167624151E+01  0.71272943801E+01  0.16097963149E+02  0.51100000000E-03 0. -1.
        -11    1    3    3    0    0  0.62925201018E+01 -0.42199609274E+01  0.98382236815E+01  0.12417508805E+02  0.51100000000E-03 0.  1.
         12    1    3    3    0    0  0.93821277366E+01  0.15636243726E+02  0.12331777601E+02  0.22013386326E+02  0.00000000000E+00 0. -1.
</event>
<event>
 7    1  0.5479172E-013  0.5052889E+02  0.7816164E-02  0.1300439E+00
        -11   -1    0    0    0    0  0.00000000000E+00  0.00000000000E+00  0.45593999997E+02  0.45594000000E+02  0.51100000000E-03 0.  1.
         11   -1    0    0    0    0 -0.00000000000E+00 -0.00000000000E+00 -0.45593999997E+02  0.45594000000E+02  0.51100000000E-03 0. -1.
    9900012    2    1    2    0    0  0.13181323806E+02 -0.21950612747E+02  0.31584587884E+02  0.50528894143E+02  0.30000104238E+02 0.  0.
         12    1    1    2    0    0 -0.13181323806E+02  0.21950612747E+02 -0.31584587884E+02  0.40659105857E+02  0.00000000000E+00 0. -1.
         11    1    3    3    0    0  0.44259552492E+01 -0.12954729587E+02  0.52072720809E+01  0.14646835198E+02  0.51100000000E-03 0. -1.
        -11    1    3    3    0    0  0.10506062308E+02 -0.43136380348E+01  0.26877886747E+01  0.11670862288E+02  0.51100000000E-03 0.  1.
         12    1    3    3    0    0 -0.17506937510E+01 -0.46822451254E+01  0.23689527128E+02  0.24211196658E+02  0.00000000000E+00 0. -1.
</event>
<event>
 7    1  0.5479172E-013  0.5052886E+02  0.7816164E-02  0.1300439E+00
        -11   -1    0    0    0    0  0.00000000000E+00  0.00000000000E+00  0.45593999997E+02  0.45594000000E+02  0.51100000000E-03 0. -1.
         11   -1    0    0    0    0 -0.00000000000E+00 -0.00000000000E+00 -0.45593999997E+02  0.45594000000E+02  0.51100000000E-03 0.  1.
    9900012    2    1    2    0    0  0.28025514213E+02  0.26907582818E+02  0.11988241612E+02  0.50528863303E+02  0.30000010496E+02 0.  0.
         12    1    1    2    0    0 -0.28025514213E+02 -0.26907582818E+02 -0.11988241612E+02  0.40659136697E+02  0.00000000000E+00 0. -1.
         11    1    3    3    0    0  0.63379462722E+00 -0.27565163874E+01  0.57748927394E+01  0.64303549386E+01  0.51100000000E-03 0. -1.
        -11    1    3    3    0    0  0.88027664816E+01  0.19814570212E+02  0.77006732325E+01  0.23008830021E+02  0.51100000000E-03 0.  1.
        -12    1    3    3    0    0  0.18588953104E+02  0.98495289925E+01 -0.14873243602E+01  0.21089678344E+02  0.00000000000E+00 0.  1.
</event>
<event>
 7    1  0.5479172E-013  0.5052886E+02  0.7816164E-02  0.1300439E+00
        -11   -1    0    0    0    0  0.00000000000E+00  0.00000000000E+00  0.45593999997E+02  0.45594000000E+02  0.51100000000E-03 0.  1.
         11   -1    0    0    0    0 -0.00000000000E+00 -0.00000000000E+00 -0.45593999997E+02  0.45594000000E+02  0.51100000000E-03 0. -1.
    9900012    2    1    2    0    0 -0.35966152572E+01  0.12950500735E+02  0.38373356027E+02  0.50528861257E+02  0.30000004275E+02 0.  0.
         12    1    1    2    0    0  0.35966152572E+01 -0.12950500735E+02 -0.38373356027E+02  0.40659138743E+02  0.00000000000E+00 0. -1.
         11    1    3    3    0    0 -0.11835446793E+01  0.12053459990E+02  0.92176752870E+01  0.15220125285E+02  0.51100000000E-03 0. -1.
        -11    1    3    3    0    0 -0.79184966612E+01 -0.57835136784E+01  0.87473841634E+01  0.13140332941E+02  0.51100000000E-03 0.  1.
         12    1    3    3    0    0  0.55054260833E+01  0.66805544235E+01  0.20408296577E+02  0.22168403031E+02  0.00000000000E+00 0. -1.
</event>
<event>
 7    1  0.5479172E-013  0.5052884E+02  0.7816164E-02  0.1300439E+00
        -11   -1    0    0    0    0  0.00000000000E+00  0.00000000000E+00  0.45593999997E+02  0.45594000000E+02  0.51100000000E-03 0. -1.
         11   -1    0    0    0    0 -0.00000000000E+00 -0.00000000000E+00 -0.45593999997E+02  0.45594000000E+02  0.51100000000E-03 0.  1.
    9900012    2    1    2    0    0 -0.21667806287E+02  0.28555846819E+02 -0.19189499831E+02  0.50528842107E+02  0.29999946068E+02 0.  0.
         12    1    1    2    0    0  0.21667806287E+02 -0.28555846819E+02  0.19189499831E+02  0.40659157893E+02  0.00000000000E+00 0. -1.
         11    1    3    3    0    0 -0.44958284719E+01  0.10144708221E+01  0.39926718988E+01  0.60977908992E+01  0.51100000000E-03 0. -1.
        -11    1    3    3    0    0 -0.65154997152E+01 -0.28920204410E+00 -0.97797857153E+01  0.11754981210E+02  0.51100000000E-03 0.  1.
        -12    1    3    3    0    0 -0.10656478100E+02  0.27830578041E+02 -0.13402386015E+02  0.32676069997E+02  0.00000000000E+00 0.  1.
</event>
<event>
 7    1  0.5479172E-013  0.5052889E+02  0.7816164E-02  0.1300439E+00
        -11   -1    0    0    0    0  0.00000000000E+00  0.00000000000E+00  0.45593999997E+02  0.45594000000E+02  0.51100000000E-03 0.  1.
         11   -1    0    0    0    0 -0.00000000000E+00 -0.00000000000E+00 -0.45593999997E+02  0.45594000000E+02  0.51100000000E-03 0. -1.
    9900012    2    1    2    0    0 -0.21986595828E+02  0.13123818983E+02  0.31583514232E+02  0.50528887957E+02  0.30000085435E+02 0.  0.
         12    1    1    2    0    0  0.21986595828E+02 -0.13123818983E+02 -0.31583514232E+02  0.40659112043E+02  0.00000000000E+00 0. -1.
         11    1    3    3    0    0  0.21613703552E+01 -0.97524255774E+00  0.50664957240E+01  0.55939251909E+01  0.51100000000E-03 0. -1.
        -11    1    3    3    0    0 -0.73105090477E+01 -0.41403830361E+01  0.15805126409E+02  0.17899394830E+02  0.51100000000E-03 0.  1.
        -12    1    3    3    0    0 -0.16837457136E+02  0.18239444577E+02  0.10711892100E+02  0.27035567936E+02  0.00000000000E+00 0.  1.
</event>
<event>
 7    1  0.5479172E-013  0.5052886E+02  0.7816164E-02  0.1300439E+00
        -11   -1    0    0    0    0  0.00000000000E+00  0.00000000000E+00  0.45593999997E+02  0.45594000000E+02  0.51100000000E-03 0.  1.
         11   -1    0    0    0    0 -0.00000000000E+00 -0.00000000000E+00 -0.45593999997E+02  0.45594000000E+02  0.51100000000E-03 0. -1.
    9900012    2    1    2    0    0 -0.26467289747E+02  0.16692278937E+02  0.25961821185E+02  0.50528858815E+02  0.29999996854E+02 0.  0.
         12    1    1    2    0    0  0.26467289747E+02 -0.16692278937E+02 -0.25961821185E+02  0.40659141185E+02  0.00000000000E+00 0. -1.
         11    1    3    3    0    0 -0.27380379106E+01 -0.73089963196E+00  0.13245463445E+01  0.31281766497E+01  0.51100000000E-03 0. -1.
        -11    1    3    3    0    0 -0.23925291098E+02  0.22001203456E+01  0.20604458044E+02  0.31651283943E+02  0.51100000000E-03 0.  1.
         12    1    3    3    0    0  0.19603926149E+00  0.15223058224E+02  0.40328167962E+01  0.15749398223E+02  0.00000000000E+00 0. -1.
</event>
<event>
 7    1  0.5479172E-013  0.5052882E+02  0.7816164E-02  0.1300439E+00
        -11   -1    0    0    0    0  0.00000000000E+00  0.00000000000E+00  0.45593999997E+02  0.45594000000E+02  0.51100000000E-03 0. -1.
         11   -1    0    0    0    0 -0.00000000000E+00 -0.00000000000E+00 -0.45593999997E+02  0.45594000000E+02  0.51100000000E-03 0.  1.
    9900012    2    1    2    0    0 -0.19343313002E+02  0.35722391941E+02 -0.17076841235E+01  0.50528816180E+02  0.29999867260E+02 0.  0.
         12    1    1    2    0    0  0.19343313002E+02 -0.35722391941E+02  0.17076841235E+01  0.40659183820E+02  0.00000000000E+00 0. -1.
         11    1    3    3    0    0 -0.74771159780E+01  0.13620287556E+02 -0.85832472866E+01  0.17750820564E+02  0.51100000000E-03 0.  1.
        -11    1    3    3    0    0 -0.15542443215E+02  0.11815251491E+02  0.92421334630E+01  0.21600572680E+02  0.51100000000E-03 0. -1.
         12    1    3    3    0    0  0.36762461910E+01  0.10286852893E+02 -0.23665702999E+01  0.11177422936E+02  0.00000000000E+00 0. -1.
</event>
<event>
 7    1  0.5479172E-013  0.5052886E+02  0.7816164E-02  0.1300439E+00
        -11   -1    0    0    0    0  0.00000000000E+00  0.00000000000E+00  0.45593999997E+02  0.45594000000E+02  0.51100000000E-03 0. -1.
         11   -1    0    0    0    0 -0.00000000000E+00 -0.00000000000E+00 -0.45593999997E+02  0.45594000000E+02  0.51100000000E-03 0.  1.
    9900012    2    1    2    0    0 -0.15234829434E+02 -0.30839809302E+02 -0.21678831539E+02  0.50528860774E+02  0.30000002809E+02 0.  0.
         12    1    1    2    0    0  0.15234829434E+02  0.30839809302E+02  0.21678831539E+02  0.40659139226E+02  0.00000000000E+00 0. -1.
         11    1    3    3    0    0 -0.15338309544E+01 -0.10429289051E+02 -0.91132530429E+01  0.13934636299E+02  0.51100000000E-03 0. -1.
        -11    1    3    3    0    0 -0.14906906405E+02 -0.24718691834E+02 -0.13739817673E+02  0.31968925138E+02  0.51100000000E-03 0.  1.
        -12    1    3    3    0    0  0.12059079248E+01  0.43081715825E+01  0.11742391777E+01  0.46252993367E+01  0.00000000000E+00 0.  1.
</event>
<event>
 7    1  0.5479172E-013  0.5052890E+02  0.7816164E-02  0.1300439E+00
        -11   -1    0    0    0    0  0.00000000000E+00  0.00000000000E+00  0.45593999997E+02  0.45594000000E+02  0.51100000000E-03 0.  1.
         11   -1    0    0    0    0 -0.00000000000E+00 -0.00000000000E+00 -0.45593999997E+02  0.45594000000E+02  0.51100000000E-03 0. -1.
    9900012    2    1    2    0    0 -0.36012041527E+02 -0.13879197190E+02  0.12793088768E+02  0.50528900529E+02  0.30000123647E+02 0.  0.
         12    1    1    2    0    0  0.36012041527E+02  0.13879197190E+02 -0.12793088768E+02  0.40659099471E+02  0.00000000000E+00 0. -1.
         11    1    3    3    0    0 -0.22698738737E+02 -0.10868000397E+02 -0.32141115622E+01  0.25370784108E+02  0.51100000000E-03 0. -1.
        -11    1    3    3    0    0 -0.11381945989E+02 -0.38339986776E+01  0.35482118246E+01  0.12523499821E+02  0.51100000000E-03 0.  1.
         12    1    3    3    0    0 -0.19313568014E+01  0.82280188467E+00  0.12458988506E+02  0.12634616600E+02  0.00000000000E+00 0. -1.
</event>
<event>
 7    1  0.5479172E-013  0.5052885E+02  0.7816164E-02  0.1300439E+00
        -11   -1    0    0    0    0  0.00000000000E+00  0.00000000000E+00  0.45593999997E+02  0.45594000000E+02  0.51100000000E-03 0.  1.
         11   -1    0    0    0    0 -0.00000000000E+00 -0.00000000000E+00 -0.45593999997E+02  0.45594000000E+02  0.51100000000E-03 0. -1.
    9900012    2    1    2    0    0 -0.12828325722E+02 -0.24734030055E+02  0.29611289923E+02  0.50528847592E+02  0.29999962741E+02 0.  0.
         12    1    1    2    0    0  0.12828325722E+02  0.24734030055E+02 -0.29611289923E+02  0.40659152408E+02  0.00000000000E+00 0. -1.
         11    1    3    3    0    0 -0.51239567207E+01 -0.19103623813E+02  0.23670365408E+02  0.30846224632E+02  0.51100000000E-03 0. -1.
        -11    1    3    3    0    0  0.46248139742E+00 -0.91612947890E+01  0.56642747619E+01  0.10780872882E+02  0.51100000000E-03 0.  1.
         12    1    3    3    0    0 -0.81668503989E+01  0.35308885466E+01  0.27664975314E+00  0.89017500781E+01  0.00000000000E+00 0. -1.
</event>
<event>
 7    1  0.5479172E-013  0.5052886E+02  0.7816164E-02  0.1300439E+00
        -11   -1    0    0    0    0  0.00000000000E+00  0.00000000000E+00  0.45593999997E+02  0.45594000000E+02  0.51100000000E-03 0.  1.
         11   -1    0    0    0    0 -0.00000000000E+00 -0.00000000000E+00 -0.45593999997E+02  0.45594000000E+02  0.51100000000E-03 0. -1.
    9900012    2    1    2    0    0  0.58122116422E+01  0.38152727152E+02  0.12796607489E+02  0.50528861340E+02  0.30000004530E+02 0.  0.
         12    1    1    2    0    0 -0.58122116422E+01 -0.38152727152E+02 -0.12796607489E+02  0.40659138660E+02  0.00000000000E+00 0. -1.
         11    1    3    3    0    0 -0.15592114667E+01  0.46861482366E+00 -0.61838270551E+01  0.63945646888E+01  0.51100000000E-03 0. -1.
        -11    1    3    3    0    0  0.35985804100E+00  0.90145281816E+00  0.34714990435E+01  0.36046387979E+01  0.51100000000E-03 0.  1.
         12    1    3    3    0    0  0.70115650679E+01  0.36782659510E+02  0.15508935501E+02  0.40529657854E+02  0.00000000000E+00 0. -1.
</event>
<event>
 7    1  0.6041922E-013  0.5052886E+02  0.7816164E-02  0.1300439E+00
        -11   -1    0    0    0    0  0.00000000000E+00  0.00000000000E+00  0.45593999997E+02  0.45594000000E+02  0.51100000000E-03 0.  1.
         11   -1    0    0    0    0 -0.00000000000E+00 -0.00000000000E+00 -0.45593999997E+02  0.45594000000E+02  0.51100000000E-03 0. -1.
    9900012    2    1    2    0    0 -0.26842308515E+02 -0.30278453330E+02  0.39838802664E+01  0.50528861243E+02  0.30000004234E+02 0.  0.
         12    1    1    2    0    0  0.26842308515E+02  0.30278453330E+02 -0.39838802664E+01  0.40659138757E+02  0.00000000000E+00 0. -1.
         11    1    3    3    0    0 -0.46699381315E+01 -0.85149892953E+01 -0.93600728417E+01  0.13487932707E+02  0.51100000000E-03 0. -1.
        -11    1    3    3    0    0 -0.15269365204E+02 -0.20701897246E+02  0.50796242223E+01  0.26220691177E+02  0.51100000000E-03 0.  1.
        -12    1    3    3    0    0 -0.69030051799E+01 -0.10615667889E+01  0.82643288858E+01  0.10820237358E+02  0.00000000000E+00 0.  1.
</event>
<event>
 7    1  0.5479172E-013  0.5052886E+02  0.7816164E-02  0.1300439E+00
        -11   -1    0    0    0    0  0.00000000000E+00  0.00000000000E+00  0.45593999997E+02  0.45594000000E+02  0.51100000000E-03 0.  1.
         11   -1    0    0    0    0 -0.00000000000E+00 -0.00000000000E+00 -0.45593999997E+02  0.45594000000E+02  0.51100000000E-03 0. -1.
    9900012    2    1    2    0    0 -0.60662850131E+00 -0.48781744555E+01  0.40360881362E+02  0.50528864145E+02  0.30000013055E+02 0.  0.
         12    1    1    2    0    0  0.60662850131E+00  0.48781744555E+01 -0.40360881362E+02  0.40659135855E+02  0.00000000000E+00 0. -1.
         11    1    3    3    0    0  0.11213270482E+02 -0.45487700770E+01  0.22917222868E+02  0.25915783769E+02  0.51100000000E-03 0. -1.
        -11    1    3    3    0    0  0.24768034080E+01  0.13821538244E+01  0.18392506495E+01  0.33804951603E+01  0.51100000000E-03 0.  1.
        -12    1    3    3    0    0 -0.14296702391E+02 -0.17115582030E+01  0.15604407844E+02  0.21232585215E+02  0.00000000000E+00 0.  1.
</event>
<event>
 7    1  0.5479172E-013  0.5052888E+02  0.7816164E-02  0.1300439E+00
        -11   -1    0    0    0    0  0.00000000000E+00  0.00000000000E+00  0.45593999997E+02  0.45594000000E+02  0.51100000000E-03 0.  1.
         11   -1    0    0    0    0 -0.00000000000E+00 -0.00000000000E+00 -0.45593999997E+02  0.45594000000E+02  0.51100000000E-03 0. -1.
    9900012    2    1    2    0    0 -0.18572240902E+02 -0.32088238836E+02 -0.16690733149E+02  0.50528883227E+02  0.30000071056E+02 0.  0.
         12    1    1    2    0    0  0.18572240902E+02  0.32088238836E+02  0.16690733149E+02  0.40659116773E+02  0.00000000000E+00 0. -1.
         11    1    3    3    0    0 -0.95971397259E+01 -0.12935296713E+02 -0.95899452595E+01  0.18745507257E+02  0.51100000000E-03 0. -1.
        -11    1    3    3    0    0 -0.34789662761E+01 -0.26198316490E+01  0.77502431357E+01  0.88900502329E+01  0.51100000000E-03 0.  1.
         12    1    3    3    0    0 -0.54961348999E+01 -0.16533110474E+02 -0.14851031026E+02  0.22893325737E+02  0.00000000000E+00 0. -1.
</event>
<event>
 7    1  0.5479172E-013  0.5052886E+02  0.7816164E-02  0.1300439E+00
        -11   -1    0    0    0    0  0.00000000000E+00  0.00000000000E+00  0.45593999997E+02  0.45594000000E+02  0.51100000000E-03 0. -1.
         11   -1    0    0    0    0 -0.00000000000E+00 -0.00000000000E+00 -0.45593999997E+02  0.45594000000E+02  0.51100000000E-03 0.  1.
    9900012    2    1    2    0    0  0.39936524879E+02 -0.73159426976E+01 -0.21717388123E+01  0.50528862203E+02  0.30000007152E+02 0.  0.
         12    1    1    2    0    0 -0.39936524879E+02  0.73159426976E+01  0.21717388123E+01  0.40659137797E+02  0.00000000000E+00 0. -1.
         11    1    3    3    0    0  0.85147598274E+01  0.43665721593E+01  0.12657290590E+01  0.96524689926E+01  0.51100000000E-03 0. -1.
        -11    1    3    3    0    0  0.96763657395E+01  0.50089426751E+01  0.52839461266E+01  0.12109568431E+02  0.51100000000E-03 0.  1.
        -12    1    3    3    0    0  0.21745399312E+02 -0.16691457532E+02 -0.87214139980E+01  0.28766824779E+02  0.00000000000E+00 0.  1.
</event>
<event>
 7    1  0.5479172E-013  0.5052887E+02  0.7816164E-02  0.1300439E+00
        -11   -1    0    0    0    0  0.00000000000E+00  0.00000000000E+00  0.45593999997E+02  0.45594000000E+02  0.51100000000E-03 0. -1.
         11   -1    0    0    0    0 -0.00000000000E+00 -0.00000000000E+00 -0.45593999997E+02  0.45594000000E+02  0.51100000000E-03 0.  1.
    9900012    2    1    2    0    0 -0.14162724259E+02  0.36394539743E+02  0.11314586774E+02  0.50528866273E+02  0.30000019524E+02 0.  0.
         12    1    1    2    0    0  0.14162724259E+02 -0.36394539743E+02 -0.11314586774E+02  0.40659133727E+02  0.00000000000E+00 0. -1.
         11    1    3    3    0    0 -0.63843040378E+01 -0.32104393114E+00 -0.74500442637E+00  0.64356382053E+01  0.51100000000E-03 0. -1.
        -11    1    3    3    0    0 -0.62122911138E+01  0.15513263507E+02  0.15215581339E+02  0.22600173036E+02  0.51100000000E-03 0.  1.
         12    1    3    3    0    0 -0.15661291069E+01  0.21202320167E+02 -0.31559901379E+01  0.21493055032E+02  0.00000000000E+00 0. -1.
</event>
<event>
 7    1  0.5479172E-013  0.5052888E+02  0.7816164E-02  0.1300439E+00
        -11   -1    0    0    0    0  0.00000000000E+00  0.00000000000E+00  0.45593999997E+02  0.45594000000E+02  0.51100000000E-03 0. -1.
         11   -1    0    0    0    0 -0.00000000000E+00 -0.00000000000E+00 -0.45593999997E+02  0.45594000000E+02  0.51100000000E-03 0.  1.
    9900012    2    1    2    0    0 -0.36064639775E+02 -0.62618183978E+01  0.17700157608E+02  0.50528878131E+02  0.30000055568E+02 0.  0.
         12    1    1    2    0    0  0.36064639775E+02  0.62618183978E+01 -0.17700157608E+02  0.40659121869E+02  0.00000000000E+00 0. -1.
         11    1    3    3    0    0 -0.20011896881E+01 -0.25376492748E+01  0.43670356560E+01  0.54328100180E+01  0.51100000000E-03 0. -1.
        -11    1    3    3    0    0 -0.30847016453E+02 -0.10882667793E+02  0.16496305149E+02  0.36634668911E+02  0.51100000000E-03 0.  1.
         12    1    3    3    0    0 -0.32164336342E+01  0.71584986701E+01 -0.31631831967E+01  0.84613992028E+01  0.00000000000E+00 0. -1.
</event>
<event>
 7    1  0.5479172E-013  0.5052886E+02  0.7816164E-02  0.1300439E+00
        -11   -1    0    0    0    0  0.00000000000E+00  0.00000000000E+00  0.45593999997E+02  0.45594000000E+02  0.51100000000E-03 0. -1.
         11   -1    0    0    0    0 -0.00000000000E+00 -0.00000000000E+00 -0.45593999997E+02  0.45594000000E+02  0.51100000000E-03 0.  1.
    9900012    2    1    2    0    0 -0.22124589581E+02  0.33695824052E+02  0.53160036913E+01  0.50528856897E+02  0.29999991023E+02 0.  0.
         12    1    1    2    0    0  0.22124589581E+02 -0.33695824052E+02 -0.53160036913E+01  0.40659143103E+02  0.00000000000E+00 0. -1.
         11    1    3    3    0    0  0.36225327866E+01  0.76732162169E+01  0.65386502642E+01  0.10712373147E+02  0.51100000000E-03 0. -1.
        -11    1    3    3    0    0  0.32383655916E+00 -0.16369618622E+01 -0.68238401378E+00  0.18028206951E+01  0.51100000000E-03 0.  1.
        -12    1    3    3    0    0 -0.26070958927E+02  0.27659569697E+02 -0.54026255912E+00  0.38013663055E+02  0.00000000000E+00 0.  1.
</event>
<event>
 7    1  0.5479172E-013  0.5052886E+02  0.7816164E-02  0.1300439E+00
        -11   -1    0    0    0    0  0.00000000000E+00  0.00000000000E+00  0.45593999997E+02  0.45594000000E+02  0.51100000000E-03 0.  1.
         11   -1    0    0    0    0 -0.00000000000E+00 -0.00000000000E+00 -0.45593999997E+02  0.45594000000E+02  0.51100000000E-03 0. -1.
    9900012    2    1    2    0    0  0.25035933123E+02  0.13668984708E+02  0.28974581205E+02  0.50528862696E+02  0.30000008652E+02 0.  0.
         12    1    1    2    0    0 -0.25035933123E+02 -0.13668984708E+02 -0.28974581205E+02  0.40659137304E+02  0.00000000000E+00 0. -1.
         11    1    3    3    0    0  0.16848557922E+00  0.10090525874E+02  0.30300152312E+00  0.10096480079E+02  0.51100000000E-03 0. -1.
        -11    1    3    3    0    0 -0.16560493523E+01  0.10977704382E+00  0.25629510917E+01  0.30534028585E+01  0.51100000000E-03 0.  1.
        -12    1    3    3    0    0  0.26523496896E+02  0.34686817905E+01  0.26108628590E+02  0.37378979759E+02  0.00000000000E+00 0.  1.
</event>
<event>
 7    1  0.5479172E-013  0.5052886E+02  0.7816164E-02  0.1300439E+00
        -11   -1    0    0    0    0  0.00000000000E+00  0.00000000000E+00  0.45593999997E+02  0.45594000000E+02  0.51100000000E-03 0.  1.
         11   -1    0    0    0    0 -0.00000000000E+00 -0.00000000000E+00 -0.45593999997E+02  0.45594000000E+02  0.51100000000E-03 0. -1.
    9900012    2    1    2    0    0 -0.21706985254E+02 -0.14925871396E+01  0.34347405081E+02  0.50528864975E+02  0.30000015579E+02 0.  0.
         12    1    1    2    0    0  0.21706985254E+02  0.14925871396E+01 -0.34347405081E+02  0.40659135025E+02  0.00000000000E+00 0. -1.
         11    1    3    3    0    0 -0.12168035348E+02  0.20947101599E+01  0.35081000923E+01  0.12835718188E+02  0.51100000000E-03 0. -1.
        -11    1    3    3    0    0 -0.12156426054E+02 -0.89662634973E+01  0.17788850265E+02  0.23337004297E+02  0.51100000000E-03 0.  1.
         12    1    3    3    0    0  0.26174761483E+01  0.53789661979E+01  0.13050454723E+02  0.14356142491E+02  0.00000000000E+00 0. -1.
</event>
<event>
 7    1  0.5479172E-013  0.5052886E+02  0.7816164E-02  0.1300439E+00
        -11   -1    0    0    0    0  0.00000000000E+00  0.00000000000E+00  0.45593999997E+02  0.45594000000E+02  0.51100000000E-03 0.  1.
         11   -1    0    0    0    0 -0.00000000000E+00 -0.00000000000E+00 -0.45593999997E+02  0.45594000000E+02  0.51100000000E-03 0. -1.
    9900012    2    1    2    0    0  0.77632954941E+01  0.11481568526E+02  0.38223950452E+02  0.50528861287E+02  0.30000004367E+02 0.  0.
         12    1    1    2    0    0 -0.77632954941E+01 -0.11481568526E+02 -0.38223950452E+02  0.40659138713E+02  0.00000000000E+00 0. -1.
         11    1    3    3    0    0  0.50799450588E+01  0.67610435891E+01  0.72358795886E+01  0.11129937372E+02  0.51100000000E-03 0. -1.
        -11    1    3    3    0    0  0.11501795483E+02  0.62301920470E+01  0.96317357914E+01  0.16244289054E+02  0.51100000000E-03 0.  1.
        -12    1    3    3    0    0 -0.88184450473E+01 -0.15096671101E+01  0.21356335072E+02  0.23154634861E+02  0.00000000000E+00 0.  1.
</event>
<event>
 7    1  0.5479172E-013  0.5052886E+02  0.7816164E-02  0.1300439E+00
        -11   -1    0    0    0    0  0.00000000000E+00  0.00000000000E+00  0.45593999997E+02  0.45594000000E+02  0.51100000000E-03 0. -1.
         11   -1    0    0    0    0 -0.00000000000E+00 -0.00000000000E+00 -0.45593999997E+02  0.45594000000E+02  0.51100000000E-03 0.  1.
    9900012    2    1    2    0    0  0.40547282425E+02  0.38022342526E+00  0.29898614028E+01  0.50528856463E+02  0.29999989706E+02 0.  0.
         12    1    1    2    0    0 -0.40547282425E+02 -0.38022342526E+00 -0.29898614028E+01  0.40659143537E+02  0.00000000000E+00 0. -1.
         11    1    3    3    0    0  0.64276064222E+01 -0.60189816932E+01  0.27588754940E+01  0.92278740343E+01  0.51100000000E-03 0.  1.
        -11    1    3    3    0    0  0.18100008983E+02  0.10176094323E+02 -0.87712784765E+01  0.22541041396E+02  0.51100000000E-03 0. -1.
         12    1    3    3    0    0  0.16019667020E+02 -0.37768892042E+01  0.90022643853E+01  0.18759941033E+02  0.00000000000E+00 0. -1.
</event>
<event>
 7    1  0.5479172E-013  0.5052887E+02  0.7816164E-02  0.1300439E+00
        -11   -1    0    0    0    0  0.00000000000E+00  0.00000000000E+00  0.45593999997E+02  0.45594000000E+02  0.51100000000E-03 0.  1.
         11   -1    0    0    0    0 -0.00000000000E+00 -0.00000000000E+00 -0.45593999997E+02  0.45594000000E+02  0.51100000000E-03 0. -1.
    9900012    2    1    2    0    0  0.12617149814E+02 -0.12823258226E+02  0.36462814202E+02  0.50528865227E+02  0.30000016344E+02 0.  0.
         12    1    1    2    0    0 -0.12617149814E+02  0.12823258226E+02 -0.36462814202E+02  0.40659134773E+02  0.00000000000E+00 0. -1.
         11    1    3    3    0    0  0.19572188107E+01  0.24055202030E+01  0.17175864781E+02  0.17453583133E+02  0.51100000000E-03 0. -1.
        -11    1    3    3    0    0  0.83571023013E+01 -0.17619373118E+01  0.17267838841E+02  0.19264574754E+02  0.51100000000E-03 0.  1.
        -12    1    3    3    0    0  0.23028287024E+01 -0.13466841117E+02  0.20191105794E+01  0.13810707340E+02  0.00000000000E+00 0.  1.
</event>
<event>
 7    1  0.5479172E-013  0.5052886E+02  0.7816164E-02  0.1300439E+00
        -11   -1    0    0    0    0  0.00000000000E+00  0.00000000000E+00  0.45593999997E+02  0.45594000000E+02  0.51100000000E-03 0.  1.
         11   -1    0    0    0    0 -0.00000000000E+00 -0.00000000000E+00 -0.45593999997E+02  0.45594000000E+02  0.51100000000E-03 0. -1.
    9900012    2    1    2    0    0  0.21889802908E+02 -0.21412776151E+02  0.26748748642E+02  0.50528855792E+02  0.29999987664E+02 0.  0.
         12    1    1    2    0    0 -0.21889802908E+02  0.21412776151E+02 -0.26748748642E+02  0.40659144208E+02  0.00000000000E+00 0. -1.
         11    1    3    3    0    0  0.23788716567E+02 -0.23513975708E+02  0.17208860460E+02  0.37615887177E+02  0.51100000000E-03 0. -1.
        -11    1    3    3    0    0  0.30368097218E+01  0.18691503084E+01  0.53767970583E+01  0.64518123833E+01  0.51100000000E-03 0.  1.
        -12    1    3    3    0    0 -0.49357233808E+01  0.23204924825E+00  0.41630911238E+01  0.64611562317E+01  0.00000000000E+00 0.  1.
</event>
<event>
 7    1  0.5479172E-013  0.5052886E+02  0.7816164E-02  0.1300439E+00
        -11   -1    0    0    0    0  0.00000000000E+00  0.00000000000E+00  0.45593999997E+02  0.45594000000E+02  0.51100000000E-03 0.  1.
         11   -1    0    0    0    0 -0.00000000000E+00 -0.00000000000E+00 -0.45593999997E+02  0.45594000000E+02  0.51100000000E-03 0. -1.
    9900012    2    1    2    0    0  0.32781748627E+02  0.23776125528E+02 -0.36356668898E+01  0.50528864964E+02  0.30000015545E+02 0.  0.
         12    1    1    2    0    0 -0.32781748627E+02 -0.23776125528E+02  0.36356668898E+01  0.40659135036E+02  0.00000000000E+00 0. -1.
         11    1    3    3    0    0  0.62881744235E+01  0.35732358909E+01 -0.98136125909E+01  0.12190822149E+02  0.51100000000E-03 0. -1.
        -11    1    3    3    0    0  0.15905364837E+02  0.62674659948E+01 -0.47017390210E+01  0.17730428948E+02  0.51100000000E-03 0.  1.
        -12    1    3    3    0    0  0.10588209367E+02  0.13935423642E+02  0.10879684722E+02  0.20607613868E+02  0.00000000000E+00 0.  1.
</event>
<event>
 7    1  0.5479172E-013  0.5052886E+02  0.7816164E-02  0.1300439E+00
        -11   -1    0    0    0    0  0.00000000000E+00  0.00000000000E+00  0.45593999997E+02  0.45594000000E+02  0.51100000000E-03 0. -1.
         11   -1    0    0    0    0 -0.00000000000E+00 -0.00000000000E+00 -0.45593999997E+02  0.45594000000E+02  0.51100000000E-03 0.  1.
    9900012    2    1    2    0    0  0.99067485388E+01 -0.12822595023E+02 -0.37290790500E+02  0.50528859996E+02  0.30000000444E+02 0.  0.
         12    1    1    2    0    0 -0.99067485388E+01  0.12822595023E+02  0.37290790500E+02  0.40659140004E+02  0.00000000000E+00 0. -1.
         11    1    3    3    0    0  0.56107301321E+01  0.27418512448E+01 -0.50909525816E+01  0.80570366335E+01  0.51100000000E-03 0. -1.
        -11    1    3    3    0    0  0.68920575326E+01 -0.11186881556E+02 -0.38830088960E+01  0.13701260319E+02  0.51100000000E-03 0.  1.
        -12    1    3    3    0    0 -0.25960391259E+01 -0.43775647124E+01 -0.28316829023E+02  0.28770563044E+02  0.00000000000E+00 0.  1.
</event>
<event>
 7    1  0.5479172E-013  0.5052887E+02  0.7816164E-02  0.1300439E+00
        -11   -1    0    0    0    0  0.00000000000E+00  0.00000000000E+00  0.45593999997E+02  0.45594000000E+02  0.51100000000E-03 0.  1.
         11   -1    0    0    0    0 -0.00000000000E+00 -0.00000000000E+00 -0.45593999997E+02  0.45594000000E+02  0.51100000000E-03 0. -1.
    9900012    2    1    2    0    0  0.81511535501E+01 -0.29037807932E+02  0.27267735523E+02  0.50528868255E+02  0.30000025549E+02 0.  0.
         12    1    1    2    0    0 -0.81511535501E+01  0.29037807932E+02 -0.27267735523E+02  0.40659131745E+02  0.00000000000E+00 0. -1.
         11    1    3    3    0    0  0.40050033446E+01 -0.36742525868E+01 -0.36473475767E+01  0.65454815307E+01  0.51100000000E-03 0. -1.
        -11    1    3    3    0    0 -0.31287205083E+01 -0.65376523655E+01  0.19484052681E+02  0.20788412628E+02  0.51100000000E-03 0.  1.
         12    1    3    3    0    0  0.72748707138E+01 -0.18825902980E+02  0.11431030418E+02  0.23194974096E+02  0.00000000000E+00 0. -1.
</event>
<event>
 7    1  0.5479172E-013  0.5052887E+02  0.7816164E-02  0.1300439E+00
        -11   -1    0    0    0    0  0.00000000000E+00  0.00000000000E+00  0.45593999997E+02  0.45594000000E+02  0.51100000000E-03 0.  1.
         11   -1    0    0    0    0 -0.00000000000E+00 -0.00000000000E+00 -0.45593999997E+02  0.45594000000E+02  0.51100000000E-03 0. -1.
    9900012    2    1    2    0    0 -0.10558488784E+02 -0.17782571745E+02  0.35006619769E+02  0.50528868543E+02  0.30000026422E+02 0.  0.
         12    1    1    2    0    0  0.10558488784E+02  0.17782571745E+02 -0.35006619769E+02  0.40659131457E+02  0.00000000000E+00 0. -1.
         11    1    3    3    0    0 -0.89345884900E+01  0.37985743814E+01  0.13574628716E+02  0.16689115730E+02  0.51100000000E-03 0. -1.
        -11    1    3    3    0    0 -0.33415865301E+01 -0.83768459882E+01  0.17931476607E+02  0.20071761328E+02  0.51100000000E-03 0.  1.
         12    1    3    3    0    0  0.17176862364E+01 -0.13204300138E+02  0.35005144462E+01  0.13767991485E+02  0.00000000000E+00 0. -1.
</event>
<event>
 7    1  0.5479172E-013  0.5052887E+02  0.7816164E-02  0.1300439E+00
        -11   -1    0    0    0    0  0.00000000000E+00  0.00000000000E+00  0.45593999997E+02  0.45594000000E+02  0.51100000000E-03 0.  1.
         11   -1    0    0    0    0 -0.00000000000E+00 -0.00000000000E+00 -0.45593999997E+02  0.45594000000E+02  0.51100000000E-03 0. -1.
    9900012    2    1    2    0    0  0.30805957554E+02  0.11803978594E+02  0.23766031258E+02  0.50528866055E+02  0.30000018860E+02 0.  0.
         12    1    1    2    0    0 -0.30805957554E+02 -0.11803978594E+02 -0.23766031258E+02  0.40659133945E+02  0.00000000000E+00 0. -1.
         11    1    3    3    0    0  0.55348162645E+01  0.50714876940E+01  0.12809197720E+02  0.14846875934E+02  0.51100000000E-03 0. -1.
        -11    1    3    3    0    0  0.33916130394E+01  0.59046844652E+01  0.11961323050E+02  0.13763778079E+02  0.51100000000E-03 0.  1.
         12    1    3    3    0    0  0.21879528250E+02  0.82780643459E+00 -0.10044895120E+01  0.21918212042E+02  0.00000000000E+00 0. -1.
</event>
<event>
 7    1  0.5479172E-013  0.5052886E+02  0.7816164E-02  0.1300439E+00
        -11   -1    0    0    0    0  0.00000000000E+00  0.00000000000E+00  0.45593999997E+02  0.45594000000E+02  0.51100000000E-03 0.  1.
         11   -1    0    0    0    0 -0.00000000000E+00 -0.00000000000E+00 -0.45593999997E+02  0.45594000000E+02  0.51100000000E-03 0. -1.
    9900012    2    1    2    0    0 -0.16822587018E+02  0.35516428092E+02  0.10428307413E+02  0.50528859651E+02  0.29999999396E+02 0.  0.
         12    1    1    2    0    0  0.16822587018E+02 -0.35516428092E+02 -0.10428307413E+02  0.40659140349E+02  0.00000000000E+00 0. -1.
         11    1    3    3    0    0  0.33636036891E+01  0.82119963374E+01 -0.43328132428E+01  0.98754232558E+01  0.51100000000E-03 0. -1.
        -11    1    3    3    0    0 -0.58539118107E+01  0.53052614316E-01 -0.11939732181E+01  0.59746690598E+01  0.51100000000E-03 0.  1.
        -12    1    3    3    0    0 -0.14332278896E+02  0.27251379140E+02  0.15955093874E+02  0.34678767336E+02  0.00000000000E+00 0.  1.
</event>
<event>
 7    1  0.5479172E-013  0.5052886E+02  0.7816164E-02  0.1300439E+00
        -11   -1    0    0    0    0  0.00000000000E+00  0.00000000000E+00  0.45593999997E+02  0.45594000000E+02  0.51100000000E-03 0. -1.
         11   -1    0    0    0    0 -0.00000000000E+00 -0.00000000000E+00 -0.45593999997E+02  0.45594000000E+02  0.51100000000E-03 0.  1.
    9900012    2    1    2    0    0 -0.32872075541E+02 -0.10175804007E+02 -0.21657454517E+02  0.50528859900E+02  0.30000000151E+02 0.  0.
         12    1    1    2    0    0  0.32872075541E+02  0.10175804007E+02  0.21657454517E+02  0.40659140100E+02  0.00000000000E+00 0. -1.
         11    1    3    3    0    0 -0.19072516980E+02  0.22983318335E+01 -0.16942034599E+02  0.25613976063E+02  0.51100000000E-03 0. -1.
        -11    1    3    3    0    0 -0.11271630670E+02  0.43137372161E+00 -0.15235623153E+01  0.11382310118E+02  0.51100000000E-03 0.  1.
         12    1    3    3    0    0 -0.25279278914E+01 -0.12905509562E+02 -0.31918576026E+01  0.13532573718E+02  0.00000000000E+00 0. -1.
</event>
<event>
 7    1  0.5479172E-013  0.5052886E+02  0.7816164E-02  0.1300439E+00
        -11   -1    0    0    0    0  0.00000000000E+00  0.00000000000E+00  0.45593999997E+02  0.45594000000E+02  0.51100000000E-03 0. -1.
         11   -1    0    0    0    0 -0.00000000000E+00 -0.00000000000E+00 -0.45593999997E+02  0.45594000000E+02  0.51100000000E-03 0.  1.
    9900012    2    1    2    0    0 -0.10741847246E+02  0.21130773181E+02 -0.33034355883E+02  0.50528861715E+02  0.30000005667E+02 0.  0.
         12    1    1    2    0    0  0.10741847246E+02 -0.21130773181E+02  0.33034355883E+02  0.40659138285E+02  0.00000000000E+00 0. -1.
         11    1    3    3    0    0  0.66973317484E+01  0.72938467943E+01 -0.23755967965E+01  0.10183217272E+02  0.51100000000E-03 0. -1.
        -11    1    3    3    0    0 -0.24675814752E+01  0.13743060918E+00 -0.13635340670E+02  0.13857501974E+02  0.51100000000E-03 0.  1.
        -12    1    3    3    0    0 -0.14971597519E+02  0.13699495778E+02 -0.17023418417E+02  0.26488142469E+02  0.00000000000E+00 0.  1.
</event>
<event>
 7    1  0.5479172E-013  0.5052885E+02  0.7816164E-02  0.1300439E+00
        -11   -1    0    0    0    0  0.00000000000E+00  0.00000000000E+00  0.45593999997E+02  0.45594000000E+02  0.51100000000E-03 0. -1.
         11   -1    0    0    0    0 -0.00000000000E+00 -0.00000000000E+00 -0.45593999997E+02  0.45594000000E+02  0.51100000000E-03 0.  1.
    9900012    2    1    2    0    0  0.38727339963E+02 -0.57637691698E+01  0.10960766802E+02  0.50528852142E+02  0.29999976571E+02 0.  0.
         12    1    1    2    0    0 -0.38727339963E+02  0.57637691698E+01 -0.10960766802E+02  0.40659147858E+02  0.00000000000E+00 0. -1.
         11    1    3    3    0    0  0.82411419239E+01 -0.50522442766E+00  0.12887972858E+02  0.15305930765E+02  0.51100000000E-03 0. -1.
        -11    1    3    3    0    0  0.31567596198E+02 -0.51954070285E+01  0.10964798191E+01  0.32011055156E+02  0.51100000000E-03 0.  1.
        -12    1    3    3    0    0 -0.10813981591E+01 -0.63137713641E-01 -0.30236858754E+01  0.32118662211E+01  0.00000000000E+00 0.  1.
</event>
<event>
 7    1  0.5479172E-013  0.5052890E+02  0.7816164E-02  0.1300439E+00
        -11   -1    0    0    0    0  0.00000000000E+00  0.00000000000E+00  0.45593999997E+02  0.45594000000E+02  0.51100000000E-03 0. -1.
         11   -1    0    0    0    0 -0.00000000000E+00 -0.00000000000E+00 -0.45593999997E+02  0.45594000000E+02  0.51100000000E-03 0.  1.
    9900012    2    1    2    0    0  0.19830407400E+02 -0.53307866653E+00 -0.35491308988E+02  0.50528902074E+02  0.30000128343E+02 0.  0.
         12    1    1    2    0    0 -0.19830407400E+02  0.53307866653E+00  0.35491308988E+02  0.40659097926E+02  0.00000000000E+00 0. -1.
         11    1    3    3    0    0  0.29223764517E+01  0.34867829021E+01  0.15043973881E+01  0.47917795122E+01  0.51100000000E-03 0. -1.
        -11    1    3    3    0    0  0.80447466595E+01  0.28945554163E+01 -0.17297436868E+01  0.87228672670E+01  0.51100000000E-03 0.  1.
        -12    1    3    3    0    0  0.88632842891E+01 -0.69144169849E+01 -0.35265962689E+02  0.37014255295E+02  0.00000000000E+00 0.  1.
</event>
<event>
 7    1  0.5479172E-013  0.5052890E+02  0.7816164E-02  0.1300439E+00
        -11   -1    0    0    0    0  0.00000000000E+00  0.00000000000E+00  0.45593999997E+02  0.45594000000E+02  0.51100000000E-03 0.  1.
         11   -1    0    0    0    0 -0.00000000000E+00 -0.00000000000E+00 -0.45593999997E+02  0.45594000000E+02  0.51100000000E-03 0. -1.
    9900012    2    1    2    0    0 -0.14795948732E+01 -0.37680149736E+02  0.15204589570E+02  0.50528899800E+02  0.30000121431E+02 0.  0.
         12    1    1    2    0    0  0.14795948732E+01  0.37680149736E+02 -0.15204589570E+02  0.40659100200E+02  0.00000000000E+00 0. -1.
         11    1    3    3    0    0  0.94422876387E+01 -0.22309525150E+02  0.48397743438E+01  0.24704151963E+02  0.51100000000E-03 0. -1.
        -11    1    3    3    0    0 -0.17723039165E+01 -0.13021717999E+02  0.97402760482E+01  0.16357847615E+02  0.51100000000E-03 0.  1.
        -12    1    3    3    0    0 -0.91495785954E+01 -0.23489065870E+01  0.62453917816E+00  0.94669002220E+01  0.00000000000E+00 0.  1.
</event>
<event>
 7    1  0.5479172E-013  0.5052885E+02  0.7816164E-02  0.1300439E+00
        -11   -1    0    0    0    0  0.00000000000E+00  0.00000000000E+00  0.45593999997E+02  0.45594000000E+02  0.51100000000E-03 0.  1.
         11   -1    0    0    0    0 -0.00000000000E+00 -0.00000000000E+00 -0.45593999997E+02  0.45594000000E+02  0.51100000000E-03 0. -1.
    9900012    2    1    2    0    0 -0.18852436146E+01 -0.35400619030E+02  0.19910000409E+02  0.50528854811E+02  0.29999984683E+02 0.  0.
         12    1    1    2    0    0  0.18852436146E+01  0.35400619030E+02 -0.19910000409E+02  0.40659145189E+02  0.00000000000E+00 0. -1.
         11    1    3    3    0    0  0.21805034171E+01 -0.10570779755E+02  0.71293576946E+01  0.12935367068E+02  0.51100000000E-03 0. -1.
        -11    1    3    3    0    0 -0.71664994505E+01 -0.26976382799E+02  0.16394101681E+02  0.32370519203E+02  0.51100000000E-03 0.  1.
         12    1    3    3    0    0  0.31007524188E+01  0.21465435243E+01 -0.36134589663E+01  0.52229685396E+01  0.00000000000E+00 0. -1.
</event>
<event>
 7    1  0.5479172E-013  0.5052883E+02  0.7816164E-02  0.1300439E+00
        -11   -1    0    0    0    0  0.00000000000E+00  0.00000000000E+00  0.45593999997E+02  0.45594000000E+02  0.51100000000E-03 0.  1.
         11   -1    0    0    0    0 -0.00000000000E+00 -0.00000000000E+00 -0.45593999997E+02  0.45594000000E+02  0.51100000000E-03 0. -1.
    9900012    2    1    2    0    0  0.10681084619E+02  0.19495488828E+02  0.34044207661E+02  0.50528834631E+02  0.29999923343E+02 0.  0.
         12    1    1    2    0    0 -0.10681084619E+02 -0.19495488828E+02 -0.34044207661E+02  0.40659165369E+02  0.00000000000E+00 0. -1.
         11    1    3    3    0    0  0.26007659665E+01 -0.43648080078E+01 -0.12773928423E+01  0.52390137709E+01  0.51100000000E-03 0. -1.
        -11    1    3    3    0    0  0.37305657947E+01  0.46885063057E+00  0.17629683967E+01  0.41527099455E+01  0.51100000000E-03 0.  1.
        -12    1    3    3    0    0  0.43497528579E+01  0.23391446205E+02  0.33558632107E+02  0.41137110914E+02  0.00000000000E+00 0.  1.
</event>
<event>
 7    1  0.5479172E-013  0.5052886E+02  0.7816164E-02  0.1300439E+00
        -11   -1    0    0    0    0  0.00000000000E+00  0.00000000000E+00  0.45593999997E+02  0.45594000000E+02  0.51100000000E-03 0. -1.
         11   -1    0    0    0    0 -0.00000000000E+00 -0.00000000000E+00 -0.45593999997E+02  0.45594000000E+02  0.51100000000E-03 0.  1.
    9900012    2    1    2    0    0  0.34121701770E+02  0.13370161689E+02 -0.17610051428E+02  0.50528859987E+02  0.30000000417E+02 0.  0.
         12    1    1    2    0    0 -0.34121701770E+02 -0.13370161689E+02  0.17610051428E+02  0.40659140013E+02  0.00000000000E+00 0. -1.
         11    1    3    3    0    0  0.34456103640E+01 -0.55701296323E+01 -0.37435391816E+01  0.75440480358E+01  0.51100000000E-03 0. -1.
        -11    1    3    3    0    0  0.22945658195E+02  0.83873216862E+01 -0.16709118776E+02  0.29598058139E+02  0.51100000000E-03 0.  1.
         12    1    3    3    0    0  0.77304332107E+01  0.10552969635E+02  0.28426065292E+01  0.13386753812E+02  0.00000000000E+00 0. -1.
</event>
<event>
 7    1  0.5479172E-013  0.5052886E+02  0.7816164E-02  0.1300439E+00
        -11   -1    0    0    0    0  0.00000000000E+00  0.00000000000E+00  0.45593999997E+02  0.45594000000E+02  0.51100000000E-03 0.  1.
         11   -1    0    0    0    0 -0.00000000000E+00 -0.00000000000E+00 -0.45593999997E+02  0.45594000000E+02  0.51100000000E-03 0. -1.
    9900012    2    1    2    0    0  0.93864998892E+01 -0.35646084493E+02  0.17158547929E+02  0.50528862197E+02  0.30000007133E+02 0.  0.
         12    1    1    2    0    0 -0.93864998892E+01  0.35646084493E+02 -0.17158547929E+02  0.40659137803E+02  0.00000000000E+00 0. -1.
         11    1    3    3    0    0  0.44104616545E+01 -0.41878196302E+01 -0.25676035647E+01  0.66017114135E+01  0.51100000000E-03 0. -1.
        -11    1    3    3    0    0  0.13100105913E+02 -0.22000809362E+02  0.80383617701E+01  0.26837728065E+02  0.51100000000E-03 0.  1.
        -12    1    3    3    0    0 -0.81240676780E+01 -0.94574555014E+01  0.11687789724E+02  0.17089422718E+02  0.00000000000E+00 0.  1.
</event>
<event>
 7    1  0.5479172E-013  0.5052885E+02  0.7816164E-02  0.1300439E+00
        -11   -1    0    0    0    0  0.00000000000E+00  0.00000000000E+00  0.45593999997E+02  0.45594000000E+02  0.51100000000E-03 0. -1.
         11   -1    0    0    0    0 -0.00000000000E+00 -0.00000000000E+00 -0.45593999997E+02  0.45594000000E+02  0.51100000000E-03 0.  1.
    9900012    2    1    2    0    0 -0.43173029432E+01  0.29344440592E+02 -0.27810629570E+02  0.50528850778E+02  0.29999972424E+02 0.  0.
         12    1    1    2    0    0  0.43173029432E+01 -0.29344440592E+02  0.27810629570E+02  0.40659149222E+02  0.00000000000E+00 0. -1.
         11    1    3    3    0    0  0.65508569580E+01  0.16268187081E+02 -0.61653232913E+01  0.18589751191E+02  0.51100000000E-03 0.  1.
        -11    1    3    3    0    0  0.37145101248E+01  0.60626124715E+01 -0.47865663208E+01  0.85711185298E+01  0.51100000000E-03 0. -1.
         12    1    3    3    0    0 -0.14582670026E+02  0.70136410399E+01 -0.16858739958E+02  0.23367981058E+02  0.00000000000E+00 0. -1.
</event>
<event>
 7    1  0.5479172E-013  0.5052886E+02  0.7816164E-02  0.1300439E+00
        -11   -1    0    0    0    0  0.00000000000E+00  0.00000000000E+00  0.45593999997E+02  0.45594000000E+02  0.51100000000E-03 0.  1.
         11   -1    0    0    0    0 -0.00000000000E+00 -0.00000000000E+00 -0.45593999997E+02  0.45594000000E+02  0.51100000000E-03 0. -1.
    9900012    2    1    2    0    0  0.13426586182E+02  0.31977216227E+02  0.21221444853E+02  0.50528864548E+02  0.30000014279E+02 0.  0.
         12    1    1    2    0    0 -0.13426586182E+02 -0.31977216227E+02 -0.21221444853E+02  0.40659135452E+02  0.00000000000E+00 0. -1.
         11    1    3    3    0    0  0.16794617224E+02  0.18267246465E+02  0.33523244153E+01  0.25039759191E+02  0.51100000000E-03 0. -1.
        -11    1    3    3    0    0 -0.25869543173E+01  0.44261729400E+01 -0.23103373700E+00  0.51319310579E+01  0.51100000000E-03 0.  1.
        -12    1    3    3    0    0 -0.78107672511E+00  0.92837968217E+01  0.18100154174E+02  0.20357174298E+02  0.00000000000E+00 0.  1.
</event>
<event>
 7    1  0.5479172E-013  0.5052888E+02  0.7816164E-02  0.1300439E+00
        -11   -1    0    0    0    0  0.00000000000E+00  0.00000000000E+00  0.45593999997E+02  0.45594000000E+02  0.51100000000E-03 0. -1.
         11   -1    0    0    0    0 -0.00000000000E+00 -0.00000000000E+00 -0.45593999997E+02  0.45594000000E+02  0.51100000000E-03 0.  1.
    9900012    2    1    2    0    0  0.31959174659E+02 -0.13937558322E+01 -0.25096473895E+02  0.50528875536E+02  0.30000047680E+02 0.  0.
         12    1    1    2    0    0 -0.31959174659E+02  0.13937558322E+01  0.25096473895E+02  0.40659124464E+02  0.00000000000E+00 0. -1.
         11    1    3    3    0    0 -0.59591419192E+00 -0.36431580558E+01 -0.15565447150E+01  0.40063132747E+01  0.51100000000E-03 0. -1.
        -11    1    3    3    0    0  0.18209043641E+01 -0.71130137018E+01 -0.79145170858E+01  0.10795843533E+02  0.51100000000E-03 0.  1.
         12    1    3    3    0    0  0.30734184486E+02  0.93624159255E+01 -0.15625412094E+02  0.35726718729E+02  0.00000000000E+00 0. -1.
</event>
<event>
 7    1  0.5479172E-013  0.5052888E+02  0.7816164E-02  0.1300439E+00
        -11   -1    0    0    0    0  0.00000000000E+00  0.00000000000E+00  0.45593999997E+02  0.45594000000E+02  0.51100000000E-03 0.  1.
         11   -1    0    0    0    0 -0.00000000000E+00 -0.00000000000E+00 -0.45593999997E+02  0.45594000000E+02  0.51100000000E-03 0. -1.
    9900012    2    1    2    0    0  0.29503519229E+02 -0.17847099515E+02  0.21545015529E+02  0.50528876767E+02  0.30000051420E+02 0.  0.
         12    1    1    2    0    0 -0.29503519229E+02  0.17847099515E+02 -0.21545015529E+02  0.40659123233E+02  0.00000000000E+00 0. -1.
         11    1    3    3    0    0  0.51853867986E+00 -0.40796065867E+01  0.59360415051E+01  0.72214029991E+01  0.51100000000E-03 0. -1.
        -11    1    3    3    0    0 -0.11263080856E+01 -0.84573722446E+01  0.82284327576E+01  0.11853388591E+02  0.51100000000E-03 0.  1.
        -12    1    3    3    0    0  0.30111288634E+02 -0.53101206838E+01  0.73805412658E+01  0.31454085176E+02  0.00000000000E+00 0.  1.
</event>
<event>
 7    1  0.5479172E-013  0.5052886E+02  0.7816164E-02  0.1300439E+00
        -11   -1    0    0    0    0  0.00000000000E+00  0.00000000000E+00  0.45593999997E+02  0.45594000000E+02  0.51100000000E-03 0. -1.
         11   -1    0    0    0    0 -0.00000000000E+00 -0.00000000000E+00 -0.45593999997E+02  0.45594000000E+02  0.51100000000E-03 0.  1.
    9900012    2    1    2    0    0 -0.20883693923E+02 -0.34167843795E+02 -0.70424300764E+01  0.50528855360E+02  0.29999986353E+02 0.  0.
         12    1    1    2    0    0  0.20883693923E+02  0.34167843795E+02  0.70424300764E+01  0.40659144640E+02  0.00000000000E+00 0. -1.
         11    1    3    3    0    0 -0.13280990540E+02 -0.64514573003E+01 -0.63871766545E+01  0.16087325350E+02  0.51100000000E-03 0. -1.
        -11    1    3    3    0    0  0.18669076657E+01  0.12800202001E+01  0.29580269231E+01  0.37247442172E+01  0.51100000000E-03 0.  1.
        -12    1    3    3    0    0 -0.94696110481E+01 -0.28996406695E+02 -0.36132803450E+01  0.30716785793E+02  0.00000000000E+00 0.  1.
</event>
<event>
 7    1  0.5479172E-013  0.5052885E+02  0.7816164E-02  0.1300439E+00
        -11   -1    0    0    0    0  0.00000000000E+00  0.00000000000E+00  0.45593999997E+02  0.45594000000E+02  0.51100000000E-03 0.  1.
         11   -1    0    0    0    0 -0.00000000000E+00 -0.00000000000E+00 -0.45593999997E+02  0.45594000000E+02  0.51100000000E-03 0. -1.
    9900012    2    1    2    0    0 -0.14616224200E+02  0.33465649114E+02  0.17876876092E+02  0.50528851223E+02  0.29999973776E+02 0.  0.
         12    1    1    2    0    0  0.14616224200E+02 -0.33465649114E+02 -0.17876876092E+02  0.40659148777E+02  0.00000000000E+00 0. -1.
         11    1    3    3    0    0 -0.95758956971E+00  0.16541775764E+02 -0.32580967513E+01  0.16886755696E+02  0.51100000000E-03 0. -1.
        -11    1    3    3    0    0  0.20604175604E+01  0.33598138053E+01  0.84174108505E+01  0.92944324742E+01  0.51100000000E-03 0.  1.
         12    1    3    3    0    0 -0.15719052191E+02  0.13564059544E+02  0.12717561993E+02  0.24347663053E+02  0.00000000000E+00 0. -1.
</event>
<event>
 7    1  0.5479172E-013  0.5052885E+02  0.7816164E-02  0.1300439E+00
        -11   -1    0    0    0    0  0.00000000000E+00  0.00000000000E+00  0.45593999997E+02  0.45594000000E+02  0.51100000000E-03 0.  1.
         11   -1    0    0    0    0 -0.00000000000E+00 -0.00000000000E+00 -0.45593999997E+02  0.45594000000E+02  0.51100000000E-03 0. -1.
    9900012    2    1    2    0    0  0.10834281545E+02  0.15890517764E+02  0.35822840705E+02  0.50528854318E+02  0.29999983186E+02 0.  0.
         12    1    1    2    0    0 -0.10834281545E+02 -0.15890517764E+02 -0.35822840705E+02  0.40659145682E+02  0.00000000000E+00 0. -1.
         11    1    3    3    0    0  0.74561209925E+01 -0.48574266521E+01  0.13378567755E+02  0.16067806614E+02  0.51100000000E-03 0. -1.
        -11    1    3    3    0    0  0.64103294547E+01  0.44110008814E+01  0.13522108230E+02  0.15601175075E+02  0.51100000000E-03 0.  1.
         12    1    3    3    0    0 -0.30321689026E+01  0.16336943534E+02  0.89221647206E+01  0.18859872629E+02  0.00000000000E+00 0. -1.
</event>
<event>
 7    1  0.5479172E-013  0.5052886E+02  0.7816164E-02  0.1300439E+00
        -11   -1    0    0    0    0  0.00000000000E+00  0.00000000000E+00  0.45593999997E+02  0.45594000000E+02  0.51100000000E-03 0.  1.
         11   -1    0    0    0    0 -0.00000000000E+00 -0.00000000000E+00 -0.45593999997E+02  0.45594000000E+02  0.51100000000E-03 0. -1.
    9900012    2    1    2    0    0 -0.10839804550E+02  0.27861217764E+01  0.39088387722E+02  0.50528857216E+02  0.29999991993E+02 0.  0.
         12    1    1    2    0    0  0.10839804550E+02 -0.27861217764E+01 -0.39088387722E+02  0.40659142784E+02  0.00000000000E+00 0. -1.
         11    1    3    3    0    0 -0.13867281510E+01  0.35295782415E+01  0.39864435756E+01  0.55020605386E+01  0.51100000000E-03 0. -1.
        -11    1    3    3    0    0 -0.43152013187E+00  0.10640915747E+02  0.53491806312E+01  0.11917593350E+02  0.51100000000E-03 0.  1.
         12    1    3    3    0    0 -0.90215562674E+01 -0.11384372213E+02  0.29752763515E+02  0.33109203327E+02  0.00000000000E+00 0. -1.
</event>
<event>
 7    1  0.5479172E-013  0.5052887E+02  0.7816164E-02  0.1300439E+00
        -11   -1    0    0    0    0  0.00000000000E+00  0.00000000000E+00  0.45593999997E+02  0.45594000000E+02  0.51100000000E-03 0.  1.
         11   -1    0    0    0    0 -0.00000000000E+00 -0.00000000000E+00 -0.45593999997E+02  0.45594000000E+02  0.51100000000E-03 0. -1.
    9900012    2    1    2    0    0  0.18943290179E+02 -0.35943181959E+02  0.15504833352E+01  0.50528873463E+02  0.30000041379E+02 0.  0.
         12    1    1    2    0    0 -0.18943290179E+02  0.35943181959E+02 -0.15504833352E+01  0.40659126537E+02  0.00000000000E+00 0. -1.
         11    1    3    3    0    0 -0.17015116755E+01  0.24557894153E+00 -0.35162036695E+01  0.39139672335E+01  0.51100000000E-03 0. -1.
        -11    1    3    3    0    0  0.11032719844E+02 -0.12371846381E+02  0.11454348129E+02  0.20149083883E+02  0.51100000000E-03 0.  1.
         12    1    3    3    0    0  0.96120820102E+01 -0.23816914520E+02 -0.63876611242E+01  0.26465822346E+02  0.00000000000E+00 0. -1.
</event>
<event>
 7    1  0.5479172E-013  0.5052887E+02  0.7816164E-02  0.1300439E+00
        -11   -1    0    0    0    0  0.00000000000E+00  0.00000000000E+00  0.45593999997E+02  0.45594000000E+02  0.51100000000E-03 0.  1.
         11   -1    0    0    0    0 -0.00000000000E+00 -0.00000000000E+00 -0.45593999997E+02  0.45594000000E+02  0.51100000000E-03 0. -1.
    9900012    2    1    2    0    0 -0.33941881600E+02  0.19366015694E+02  0.11228144043E+02  0.50528866844E+02  0.30000021258E+02 0.  0.
         12    1    1    2    0    0  0.33941881600E+02 -0.19366015694E+02 -0.11228144043E+02  0.40659133156E+02  0.00000000000E+00 0. -1.
         11    1    3    3    0    0 -0.27638803328E+02  0.25670767719E+02  0.77247396176E+01  0.38504069488E+02  0.51100000000E-03 0. -1.
        -11    1    3    3    0    0 -0.37098218395E+01  0.77515302726E+00  0.21721448812E+01  0.43682781439E+01  0.51100000000E-03 0.  1.
        -12    1    3    3    0    0 -0.25932564319E+01 -0.70799050523E+01  0.13312595437E+01  0.76565192120E+01  0.00000000000E+00 0.  1.
</event>
<event>
 7    1  0.5631570E-013  0.5052886E+02  0.7816164E-02  0.1300439E+00
        -11   -1    0    0    0    0  0.00000000000E+00  0.00000000000E+00  0.45593999997E+02  0.45594000000E+02  0.51100000000E-03 0. -1.
         11   -1    0    0    0    0 -0.00000000000E+00 -0.00000000000E+00 -0.45593999997E+02  0.45594000000E+02  0.51100000000E-03 0.  1.
    9900012    2    1    2    0    0  0.15093562041E+02 -0.17915474171E+02 -0.33232299239E+02  0.50528861512E+02  0.30000005051E+02 0.  0.
         12    1    1    2    0    0 -0.15093562041E+02  0.17915474171E+02  0.33232299239E+02  0.40659138488E+02  0.00000000000E+00 0. -1.
         11    1    3    3    0    0 -0.11805577236E+01 -0.36039666742E+01  0.17007704639E+01  0.41563099932E+01  0.51100000000E-03 0. -1.
        -11    1    3    3    0    0  0.18838849984E+01 -0.14435647389E+02 -0.10262970829E+02  0.17811948482E+02  0.51100000000E-03 0.  1.
        -12    1    3    3    0    0  0.14390234766E+02  0.12413989184E+00 -0.24670098875E+02  0.28560603037E+02  0.00000000000E+00 0.  1.
</event>
<event>
 7    1  0.5479172E-013  0.5052885E+02  0.7816164E-02  0.1300439E+00
        -11   -1    0    0    0    0  0.00000000000E+00  0.00000000000E+00  0.45593999997E+02  0.45594000000E+02  0.51100000000E-03 0.  1.
         11   -1    0    0    0    0 -0.00000000000E+00 -0.00000000000E+00 -0.45593999997E+02  0.45594000000E+02  0.51100000000E-03 0. -1.
    9900012    2    1    2    0    0  0.44626233497E+01  0.19805818111E+02  0.35227563420E+02  0.50528847737E+02  0.29999963182E+02 0.  0.
         12    1    1    2    0    0 -0.44626233497E+01 -0.19805818111E+02 -0.35227563420E+02  0.40659152263E+02  0.00000000000E+00 0. -1.
         11    1    3    3    0    0 -0.20727807436E+01  0.90486528771E+01  0.27950396832E+02  0.29451642097E+02  0.51100000000E-03 0. -1.
        -11    1    3    3    0    0  0.11076181029E+02  0.55846675120E+01  0.68759231597E+01  0.14182687227E+02  0.51100000000E-03 0.  1.
        -12    1    3    3    0    0 -0.45407769360E+01  0.51724977221E+01  0.40124342872E+00  0.68945184137E+01  0.00000000000E+00 0.  1.
</event>
<event>
 7    1  0.5479172E-013  0.5052886E+02  0.7816164E-02  0.1300439E+00
        -11   -1    0    0    0    0  0.00000000000E+00  0.00000000000E+00  0.45593999997E+02  0.45594000000E+02  0.51100000000E-03 0.  1.
         11   -1    0    0    0    0 -0.00000000000E+00 -0.00000000000E+00 -0.45593999997E+02  0.45594000000E+02  0.51100000000E-03 0. -1.
    9900012    2    1    2    0    0  0.69480431927E+01  0.25732321907E+01  0.39978354968E+02  0.50528859649E+02  0.29999999389E+02 0.  0.
         12    1    1    2    0    0 -0.69480431927E+01 -0.25732321907E+01 -0.39978354968E+02  0.40659140351E+02  0.00000000000E+00 0. -1.
         11    1    3    3    0    0  0.41452955457E+00 -0.53504877029E+01  0.13112174723E+02  0.14167874916E+02  0.51100000000E-03 0. -1.
        -11    1    3    3    0    0  0.13578113895E+02  0.10053672121E+02  0.16235991973E+02  0.23431793266E+02  0.51100000000E-03 0.  1.
         12    1    3    3    0    0 -0.70446002573E+01 -0.21299522274E+01  0.10630188273E+02  0.12929191467E+02  0.00000000000E+00 0. -1.
</event>
<event>
 7    1  0.5479172E-013  0.5052886E+02  0.7816164E-02  0.1300439E+00
        -11   -1    0    0    0    0  0.00000000000E+00  0.00000000000E+00  0.45593999997E+02  0.45594000000E+02  0.51100000000E-03 0. -1.
         11   -1    0    0    0    0 -0.00000000000E+00 -0.00000000000E+00 -0.45593999997E+02  0.45594000000E+02  0.51100000000E-03 0.  1.
    9900012    2    1    2    0    0  0.34160012528E+02 -0.68271779873E+01 -0.20967808347E+02  0.50528858321E+02  0.29999995353E+02 0.  0.
         12    1    1    2    0    0 -0.34160012528E+02  0.68271779873E+01  0.20967808347E+02  0.40659141679E+02  0.00000000000E+00 0. -1.
         11    1    3    3    0    0  0.54770776182E+01 -0.84877236804E+00  0.13292774581E+01  0.56996291625E+01  0.51100000000E-03 0. -1.
        -11    1    3    3    0    0 -0.45054528938E+00 -0.85617816523E+01 -0.96341923084E+00  0.86275879013E+01  0.51100000000E-03 0.  1.
        -12    1    3    3    0    0  0.29133480199E+02  0.25833760330E+01 -0.21333666575E+02  0.36201641258E+02  0.00000000000E+00 0.  1.
</event>
<event>
 7    1  0.5479172E-013  0.5052887E+02  0.7816164E-02  0.1300439E+00
        -11   -1    0    0    0    0  0.00000000000E+00  0.00000000000E+00  0.45593999997E+02  0.45594000000E+02  0.51100000000E-03 0. -1.
         11   -1    0    0    0    0 -0.00000000000E+00 -0.00000000000E+00 -0.45593999997E+02  0.45594000000E+02  0.51100000000E-03 0.  1.
    9900012    2    1    2    0    0 -0.19151995524E+02  0.16542088084E+02 -0.31823346879E+02  0.50528867971E+02  0.30000024686E+02 0.  0.
         12    1    1    2    0    0  0.19151995524E+02 -0.16542088084E+02  0.31823346879E+02  0.40659132029E+02  0.00000000000E+00 0. -1.
         11    1    3    3    0    0 -0.90673011909E+01  0.90687471698E+01 -0.40419941788E+01  0.13446034483E+02  0.51100000000E-03 0. -1.
        -11    1    3    3    0    0 -0.53709812784E+01  0.14574219824E+02 -0.14179263980E+02  0.21031092474E+02  0.51100000000E-03 0.  1.
         12    1    3    3    0    0 -0.47137130551E+01 -0.71008789095E+01 -0.13602088720E+02  0.16051741014E+02  0.00000000000E+00 0. -1.
</event>
<event>
 7    1  0.5479172E-013  0.5052887E+02  0.7816164E-02  0.1300439E+00
        -11   -1    0    0    0    0  0.00000000000E+00  0.00000000000E+00  0.45593999997E+02  0.45594000000E+02  0.51100000000E-03 0.  1.
         11   -1    0    0    0    0 -0.00000000000E+00 -0.00000000000E+00 -0.45593999997E+02  0.45594000000E+02  0.51100000000E-03 0. -1.
    9900012    2    1    2    0    0 -0.22741350945E+02  0.32119371065E+02  0.10214801206E+02  0.50528865675E+02  0.30000017705E+02 0.  0.
         12    1    1    2    0    0  0.22741350945E+02 -0.32119371065E+02 -0.10214801206E+02  0.40659134325E+02  0.00000000000E+00 0. -1.
         11    1    3    3    0    0 -0.18197541293E+02  0.91843487731E+01  0.90639225425E+01  0.22308237573E+02  0.51100000000E-03 0. -1.
        -11    1    3    3    0    0 -0.75932964539E+01  0.15644842050E+02  0.66229513298E+01  0.18608673203E+02  0.51100000000E-03 0.  1.
        -12    1    3    3    0    0  0.30494868011E+01  0.72901802413E+01 -0.54720726667E+01  0.96119548985E+01  0.00000000000E+00 0.  1.
</event>
<event>
 7    1  0.5479172E-013  0.5052880E+02  0.7816164E-02  0.1300439E+00
        -11   -1    0    0    0    0  0.00000000000E+00  0.00000000000E+00  0.45593999997E+02  0.45594000000E+02  0.51100000000E-03 0.  1.
         11   -1    0    0    0    0 -0.00000000000E+00 -0.00000000000E+00 -0.45593999997E+02  0.45594000000E+02  0.51100000000E-03 0. -1.
    9900012    2    1    2    0    0  0.15932385193E+02 -0.14820086561E+02  0.34346687655E+02  0.50528796657E+02  0.29999807918E+02 0.  0.
         12    1    1    2    0    0 -0.15932385193E+02  0.14820086561E+02 -0.34346687655E+02  0.40659203343E+02  0.00000000000E+00 0. -1.
         11    1    3    3    0    0 -0.39188018135E+01 -0.65847255583E+01  0.15352044808E+02  0.17158114651E+02  0.51100000000E-03 0. -1.
        -11    1    3    3    0    0  0.37053563664E+01 -0.85469913434E+01  0.13318988010E+02  0.16253497122E+02  0.51100000000E-03 0.  1.
         12    1    3    3    0    0  0.16145830640E+02  0.31163034066E+00  0.56756548376E+01  0.17117184884E+02  0.00000000000E+00 0. -1.
</event>
<event>
 7    1  0.5479172E-013  0.5052886E+02  0.7816164E-02  0.1300439E+00
        -11   -1    0    0    0    0  0.00000000000E+00  0.00000000000E+00  0.45593999997E+02  0.45594000000E+02  0.51100000000E-03 0. -1.
         11   -1    0    0    0    0 -0.00000000000E+00 -0.00000000000E+00 -0.45593999997E+02  0.45594000000E+02  0.51100000000E-03 0.  1.
    9900012    2    1    2    0    0 -0.11044464096E+02  0.27551595312E+02 -0.27786592681E+02  0.50528864197E+02  0.30000013214E+02 0.  0.
         12    1    1    2    0    0  0.11044464096E+02 -0.27551595312E+02  0.27786592681E+02  0.40659135803E+02  0.00000000000E+00 0. -1.
         11    1    3    3    0    0  0.26765592981E+01  0.48728345360E+01 -0.40438869848E+00  0.55742278902E+01  0.51100000000E-03 0. -1.
        -11    1    3    3    0    0 -0.35877762637E+01  0.53409431393E+01  0.40879758891E+01  0.76229495122E+01  0.51100000000E-03 0.  1.
         12    1    3    3    0    0 -0.10133247130E+02  0.17337817636E+02 -0.31470179872E+02  0.37331686795E+02  0.00000000000E+00 0. -1.
</event>
<event>
 7    1  0.5479172E-013  0.5052878E+02  0.7816164E-02  0.1300439E+00
        -11   -1    0    0    0    0  0.00000000000E+00  0.00000000000E+00  0.45593999997E+02  0.45594000000E+02  0.51100000000E-03 0.  1.
         11   -1    0    0    0    0 -0.00000000000E+00 -0.00000000000E+00 -0.45593999997E+02  0.45594000000E+02  0.51100000000E-03 0. -1.
    9900012    2    1    2    0    0  0.23011765582E+02 -0.23714738266E+02  0.23690538748E+02  0.50528784656E+02  0.29999771440E+02 0.  0.
         12    1    1    2    0    0 -0.23011765582E+02  0.23714738266E+02 -0.23690538748E+02  0.40659215344E+02  0.00000000000E+00 0. -1.
         11    1    3    3    0    0 -0.77234159075E+00 -0.31758661427E+01  0.14442392221E+01  0.35732988233E+01  0.51100000000E-03 0. -1.
        -11    1    3    3    0    0  0.57966464341E+01 -0.14327675294E+02  0.23228325323E+02  0.27900510511E+02  0.51100000000E-03 0.  1.
        -12    1    3    3    0    0  0.17987460738E+02 -0.62111968290E+01 -0.98202579661E+00  0.19054975322E+02  0.00000000000E+00 0.  1.
</event>
<event>
 7    1  0.5479172E-013  0.5052886E+02  0.7816164E-02  0.1300439E+00
        -11   -1    0    0    0    0  0.00000000000E+00  0.00000000000E+00  0.45593999997E+02  0.45594000000E+02  0.51100000000E-03 0. -1.
         11   -1    0    0    0    0 -0.00000000000E+00 -0.00000000000E+00 -0.45593999997E+02  0.45594000000E+02  0.51100000000E-03 0.  1.
    9900012    2    1    2    0    0 -0.32335944935E+01 -0.37493443813E+02 -0.15393214520E+02  0.50528861845E+02  0.30000006063E+02 0.  0.
         12    1    1    2    0    0  0.32335944935E+01  0.37493443813E+02  0.15393214520E+02  0.40659138155E+02  0.00000000000E+00 0. -1.
         11    1    3    3    0    0 -0.14420974910E+01 -0.21120016199E+02 -0.98986300048E+01  0.23369159285E+02  0.51100000000E-03 0.  1.
        -11    1    3    3    0    0 -0.75174630879E+01 -0.18895742381E+02 -0.44245719579E+01  0.20811971763E+02  0.51100000000E-03 0. -1.
         12    1    3    3    0    0  0.57259660854E+01  0.25223147673E+01 -0.10700125569E+01  0.63477307968E+01  0.00000000000E+00 0. -1.
</event>
<event>
 7    1  0.5479172E-013  0.5052885E+02  0.7816164E-02  0.1300439E+00
        -11   -1    0    0    0    0  0.00000000000E+00  0.00000000000E+00  0.45593999997E+02  0.45594000000E+02  0.51100000000E-03 0.  1.
         11   -1    0    0    0    0 -0.00000000000E+00 -0.00000000000E+00 -0.45593999997E+02  0.45594000000E+02  0.51100000000E-03 0. -1.
    9900012    2    1    2    0    0  0.53148721547E+00  0.26280161786E+02  0.31019944538E+02  0.50528851690E+02  0.29999975197E+02 0.  0.
         12    1    1    2    0    0 -0.53148721547E+00 -0.26280161786E+02 -0.31019944538E+02  0.40659148310E+02  0.00000000000E+00 0. -1.
         11    1    3    3    0    0 -0.84211770954E+01  0.12526250195E+02  0.11763510181E+02  0.19136440099E+02  0.51100000000E-03 0. -1.
        -11    1    3    3    0    0 -0.31758026903E+01  0.86210229065E+01  0.14929522969E+02  0.17529929122E+02  0.51100000000E-03 0.  1.
         12    1    3    3    0    0  0.12128467001E+02  0.51328886838E+01  0.43269113876E+01  0.13862482469E+02  0.00000000000E+00 0. -1.
</event>
<event>
 7    1  0.5479172E-013  0.5052886E+02  0.7816164E-02  0.1300439E+00
        -11   -1    0    0    0    0  0.00000000000E+00  0.00000000000E+00  0.45593999997E+02  0.45594000000E+02  0.51100000000E-03 0. -1.
         11   -1    0    0    0    0 -0.00000000000E+00 -0.00000000000E+00 -0.45593999997E+02  0.45594000000E+02  0.51100000000E-03 0.  1.
    9900012    2    1    2    0    0 -0.26352801819E+02 -0.30874286185E+02  0.23396123992E+01  0.50528862068E+02  0.30000006743E+02 0.  0.
         12    1    1    2    0    0  0.26352801819E+02  0.30874286185E+02 -0.23396123992E+01  0.40659137932E+02  0.00000000000E+00 0. -1.
         11    1    3    3    0    0 -0.60369014254E+01 -0.16846031201E+01  0.62291128401E+01  0.88365102573E+01  0.51100000000E-03 0. -1.
        -11    1    3    3    0    0 -0.24353897035E+02 -0.20993514624E+02 -0.12325505916E+01  0.32176997037E+02  0.51100000000E-03 0.  1.
        -12    1    3    3    0    0  0.40379966412E+01 -0.81961684408E+01 -0.26569498493E+01  0.95153547745E+01  0.00000000000E+00 0.  1.
</event>
<event>
 7    1  0.5479172E-013  0.5052886E+02  0.7816164E-02  0.1300439E+00
        -11   -1    0    0    0    0  0.00000000000E+00  0.00000000000E+00  0.45593999997E+02  0.45594000000E+02  0.51100000000E-03 0. -1.
         11   -1    0    0    0    0 -0.00000000000E+00 -0.00000000000E+00 -0.45593999997E+02  0.45594000000E+02  0.51100000000E-03 0.  1.
    9900012    2    1    2    0    0  0.24935219149E+02  0.16746649280E+02 -0.27403474626E+02  0.50528857883E+02  0.29999994021E+02 0.  0.
         12    1    1    2    0    0 -0.24935219149E+02 -0.16746649280E+02  0.27403474626E+02  0.40659142117E+02  0.00000000000E+00 0. -1.
         11    1    3    3    0    0 -0.97804837649E+00 -0.12807236053E+01 -0.41364580242E+01  0.44392698529E+01  0.51100000000E-03 0. -1.
        -11    1    3    3    0    0  0.99231528742E+01 -0.51101496905E+01 -0.10025684183E+02  0.15003230866E+02  0.51100000000E-03 0.  1.
         12    1    3    3    0    0  0.15990114651E+02  0.23137522576E+02 -0.13241332419E+02  0.31086357164E+02  0.00000000000E+00 0. -1.
</event>
<event>
 7    1  0.5479172E-013  0.5052886E+02  0.7816164E-02  0.1300439E+00
        -11   -1    0    0    0    0  0.00000000000E+00  0.00000000000E+00  0.45593999997E+02  0.45594000000E+02  0.51100000000E-03 0. -1.
         11   -1    0    0    0    0 -0.00000000000E+00 -0.00000000000E+00 -0.45593999997E+02  0.45594000000E+02  0.51100000000E-03 0.  1.
    9900012    2    1    2    0    0 -0.36895805290E+02 -0.15958557958E+02 -0.60983100950E+01  0.50528863190E+02  0.30000010153E+02 0.  0.
         12    1    1    2    0    0  0.36895805290E+02  0.15958557958E+02  0.60983100950E+01  0.40659136810E+02  0.00000000000E+00 0. -1.
         11    1    3    3    0    0 -0.32450974591E+01 -0.44516014418E+01 -0.98175285921E+01  0.11257498871E+02  0.51100000000E-03 0. -1.
        -11    1    3    3    0    0 -0.85174814383E+01 -0.10967928810E+02  0.24425271318E+01  0.14099960691E+02  0.51100000000E-03 0.  1.
         12    1    3    3    0    0 -0.25133226393E+02 -0.53902770687E+00  0.12766913653E+01  0.25171403628E+02  0.00000000000E+00 0. -1.
</event>
<event>
 7    1  0.5479172E-013  0.5052886E+02  0.7816164E-02  0.1300439E+00
        -11   -1    0    0    0    0  0.00000000000E+00  0.00000000000E+00  0.45593999997E+02  0.45594000000E+02  0.51100000000E-03 0.  1.
         11   -1    0    0    0    0 -0.00000000000E+00 -0.00000000000E+00 -0.45593999997E+02  0.45594000000E+02  0.51100000000E-03 0. -1.
    9900012    2    1    2    0    0  0.31779669278E+02 -0.20536354118E+02  0.14882086252E+02  0.50528859440E+02  0.29999998753E+02 0.  0.
         12    1    1    2    0    0 -0.31779669278E+02  0.20536354118E+02 -0.14882086252E+02  0.40659140560E+02  0.00000000000E+00 0. -1.
         11    1    3    3    0    0  0.11367363313E+02 -0.16822515228E+01  0.10722747705E+02  0.15717004724E+02  0.51100000000E-03 0. -1.
        -11    1    3    3    0    0  0.70814815743E+01  0.12751981620E+01  0.75523619408E+01  0.10431283851E+02  0.51100000000E-03 0.  1.
         12    1    3    3    0    0  0.13330824391E+02 -0.20129300757E+02 -0.33930233944E+01  0.24380570865E+02  0.00000000000E+00 0. -1.
</event>
<event>
 7    1  0.5479172E-013  0.5052886E+02  0.7816164E-02  0.1300439E+00
        -11   -1    0    0    0    0  0.00000000000E+00  0.00000000000E+00  0.45593999997E+02  0.45594000000E+02  0.51100000000E-03 0.  1.
         11   -1    0    0    0    0 -0.00000000000E+00 -0.00000000000E+00 -0.45593999997E+02  0.45594000000E+02  0.51100000000E-03 0. -1.
    9900012    2    1    2    0    0 -0.34325471359E+02  0.89423768768E+01  0.19873640268E+02  0.50528859998E+02  0.30000000449E+02 0.  0.
         12    1    1    2    0    0  0.34325471359E+02 -0.89423768768E+01 -0.19873640268E+02  0.40659140002E+02  0.00000000000E+00 0. -1.
         11    1    3    3    0    0 -0.15648655579E+01 -0.24312547225E+01 -0.10825573523E+01  0.30873507125E+01  0.51100000000E-03 0. -1.
        -11    1    3    3    0    0 -0.74094254416E+01  0.68929271652E+01 -0.46447888343E+01  0.11134904304E+02  0.51100000000E-03 0.  1.
        -12    1    3    3    0    0 -0.25351180360E+02  0.44807044341E+01  0.25600986454E+02  0.36306604981E+02  0.00000000000E+00 0.  1.
</event>
<event>
 7    1  0.5479172E-013  0.5052885E+02  0.7816164E-02  0.1300439E+00
        -11   -1    0    0    0    0  0.00000000000E+00  0.00000000000E+00  0.45593999997E+02  0.45594000000E+02  0.51100000000E-03 0.  1.
         11   -1    0    0    0    0 -0.00000000000E+00 -0.00000000000E+00 -0.45593999997E+02  0.45594000000E+02  0.51100000000E-03 0. -1.
    9900012    2    1    2    0    0 -0.22816307280E+02 -0.29630031921E+02  0.15957550268E+02  0.50528854903E+02  0.29999984962E+02 0.  0.
         12    1    1    2    0    0  0.22816307280E+02  0.29630031921E+02 -0.15957550268E+02  0.40659145097E+02  0.00000000000E+00 0. -1.
         11    1    3    3    0    0  0.82869754903E+00 -0.74645864510E+01 -0.28229613310E+01  0.80234594440E+01  0.51100000000E-03 0. -1.
        -11    1    3    3    0    0 -0.27784020969E+01 -0.15273066793E+02  0.40294021040E+01  0.16038147307E+02  0.51100000000E-03 0.  1.
        -12    1    3    3    0    0 -0.20866602732E+02 -0.68923786769E+01  0.14751109495E+02  0.26467248152E+02  0.00000000000E+00 0.  1.
</event>
<event>
 7    1  0.5479172E-013  0.5052886E+02  0.7816164E-02  0.1300439E+00
        -11   -1    0    0    0    0  0.00000000000E+00  0.00000000000E+00  0.45593999997E+02  0.45594000000E+02  0.51100000000E-03 0.  1.
         11   -1    0    0    0    0 -0.00000000000E+00 -0.00000000000E+00 -0.45593999997E+02  0.45594000000E+02  0.51100000000E-03 0. -1.
    9900012    2    1    2    0    0 -0.40925365703E+00  0.40489453941E+02  0.36880937391E+01  0.50528863211E+02  0.30000010216E+02 0.  0.
         12    1    1    2    0    0  0.40925365703E+00 -0.40489453941E+02 -0.36880937391E+01  0.40659136789E+02  0.00000000000E+00 0. -1.
         11    1    3    3    0    0 -0.68741989577E+00  0.25084408360E+02  0.88140714932E+01  0.26596765695E+02  0.51100000000E-03 0. -1.
        -11    1    3    3    0    0 -0.12185262988E+01  0.17432971245E+02  0.79853666174E+00  0.17493740418E+02  0.51100000000E-03 0.  1.
         12    1    3    3    0    0  0.14966925375E+01 -0.20279256639E+01 -0.59245144159E+01  0.64383570975E+01  0.00000000000E+00 0. -1.
</event>
<event>
 7    1  0.5479172E-013  0.5052886E+02  0.7816164E-02  0.1300439E+00
        -11   -1    0    0    0    0  0.00000000000E+00  0.00000000000E+00  0.45593999997E+02  0.45594000000E+02  0.51100000000E-03 0.  1.
         11   -1    0    0    0    0 -0.00000000000E+00 -0.00000000000E+00 -0.45593999997E+02  0.45594000000E+02  0.51100000000E-03 0. -1.
    9900012    2    1    2    0    0 -0.25543597292E+02 -0.11236311254E+02  0.29570856449E+02  0.50528860753E+02  0.30000002745E+02 0.  0.
         12    1    1    2    0    0  0.25543597292E+02  0.11236311254E+02 -0.29570856449E+02  0.40659139247E+02  0.00000000000E+00 0. -1.
         11    1    3    3    0    0 -0.48184094351E+01 -0.97570928443E+00  0.87319539979E+01  0.10020783351E+02  0.51100000000E-03 0.  1.
        -11    1    3    3    0    0 -0.25494681044E+02 -0.25412518490E+01  0.14503203250E+02  0.29441121366E+02  0.51100000000E-03 0. -1.
         12    1    3    3    0    0  0.47694931873E+01 -0.77193501203E+01  0.63356992003E+01  0.11066956036E+02  0.00000000000E+00 0. -1.
</event>
<event>
 7    1  0.5479172E-013  0.5052886E+02  0.7816164E-02  0.1300439E+00
        -11   -1    0    0    0    0  0.00000000000E+00  0.00000000000E+00  0.45593999997E+02  0.45594000000E+02  0.51100000000E-03 0. -1.
         11   -1    0    0    0    0 -0.00000000000E+00 -0.00000000000E+00 -0.45593999997E+02  0.45594000000E+02  0.51100000000E-03 0.  1.
    9900012    2    1    2    0    0 -0.17252436618E+02 -0.29742939214E+02 -0.21699693276E+02  0.50528859692E+02  0.29999999520E+02 0.  0.
         12    1    1    2    0    0  0.17252436618E+02  0.29742939214E+02  0.21699693276E+02  0.40659140308E+02  0.00000000000E+00 0. -1.
         11    1    3    3    0    0 -0.22865473104E+01 -0.15438614729E+02 -0.16250843000E+01  0.15691399638E+02  0.51100000000E-03 0. -1.
        -11    1    3    3    0    0 -0.14358699000E+02 -0.84505787748E+01 -0.31991344790E+01  0.16965228565E+02  0.51100000000E-03 0.  1.
        -12    1    3    3    0    0 -0.60719030759E+00 -0.58537457102E+01 -0.16875474497E+02  0.17872231489E+02  0.00000000000E+00 0.  1.
</event>
<event>
 7    1  0.5479172E-013  0.5052886E+02  0.7816164E-02  0.1300439E+00
        -11   -1    0    0    0    0  0.00000000000E+00  0.00000000000E+00  0.45593999997E+02  0.45594000000E+02  0.51100000000E-03 0.  1.
         11   -1    0    0    0    0 -0.00000000000E+00 -0.00000000000E+00 -0.45593999997E+02  0.45594000000E+02  0.51100000000E-03 0. -1.
    9900012    2    1    2    0    0  0.30558124756E+02 -0.43174756889E+01  0.26471235225E+02  0.50528857371E+02  0.29999992466E+02 0.  0.
         12    1    1    2    0    0 -0.30558124756E+02  0.43174756889E+01 -0.26471235225E+02  0.40659142629E+02  0.00000000000E+00 0. -1.
         11    1    3    3    0    0  0.14970750532E+02  0.24360537341E+01  0.48620233687E+00  0.15175444714E+02  0.51100000000E-03 0. -1.
        -11    1    3    3    0    0  0.18687743311E+01 -0.45478701559E+01 -0.98498900290E+00  0.50145432546E+01  0.51100000000E-03 0.  1.
        -12    1    3    3    0    0  0.13718599893E+02 -0.22056592671E+01  0.26970021891E+02  0.30338869403E+02  0.00000000000E+00 0.  1.
</event>
<event>
 7    1  0.5479172E-013  0.5052887E+02  0.7816164E-02  0.1300439E+00
        -11   -1    0    0    0    0  0.00000000000E+00  0.00000000000E+00  0.45593999997E+02  0.45594000000E+02  0.51100000000E-03 0.  1.
         11   -1    0    0    0    0 -0.00000000000E+00 -0.00000000000E+00 -0.45593999997E+02  0.45594000000E+02  0.51100000000E-03 0. -1.
    9900012    2    1    2    0    0 -0.17924647168E+02 -0.36490156184E+02  0.58357331956E+00  0.50528867788E+02  0.30000024128E+02 0.  0.
         12    1    1    2    0    0  0.17924647168E+02  0.36490156184E+02 -0.58357331956E+00  0.40659132212E+02  0.00000000000E+00 0. -1.
         11    1    3    3    0    0 -0.28731793385E+01 -0.42905135431E+00  0.39993871584E+00  0.29324385438E+01  0.51100000000E-03 0. -1.
        -11    1    3    3    0    0 -0.16976086617E+02 -0.15988583036E+02 -0.95571217053E+01  0.25202398296E+02  0.51100000000E-03 0.  1.
         12    1    3    3    0    0  0.19246187872E+01 -0.20072521794E+02  0.97407563090E+01  0.22394030948E+02  0.00000000000E+00 0. -1.
</event>
<event>
 7    1  0.5479172E-013  0.5052884E+02  0.7816164E-02  0.1300439E+00
        -11   -1    0    0    0    0  0.00000000000E+00  0.00000000000E+00  0.45593999997E+02  0.45594000000E+02  0.51100000000E-03 0.  1.
         11   -1    0    0    0    0 -0.00000000000E+00 -0.00000000000E+00 -0.45593999997E+02  0.45594000000E+02  0.51100000000E-03 0. -1.
    9900012    2    1    2    0    0  0.81682269003E+01 -0.34189937029E+02  0.20432700851E+02  0.50528843727E+02  0.29999950992E+02 0.  0.
         12    1    1    2    0    0 -0.81682269003E+01  0.34189937029E+02 -0.20432700851E+02  0.40659156273E+02  0.00000000000E+00 0. -1.
         11    1    3    3    0    0 -0.22367566615E+01  0.73158367519E+00 -0.91484369127E+00  0.25249226280E+01  0.51100000000E-03 0. -1.
        -11    1    3    3    0    0  0.11641255711E+02 -0.58481791914E+01  0.11217077345E+02  0.17191360005E+02  0.51100000000E-03 0.  1.
        -12    1    3    3    0    0 -0.12362721489E+01 -0.29073341513E+02  0.10130467197E+02  0.30812561094E+02  0.00000000000E+00 0.  1.
</event>
<event>
 7    1  0.5479172E-013  0.5052886E+02  0.7816164E-02  0.1300439E+00
        -11   -1    0    0    0    0  0.00000000000E+00  0.00000000000E+00  0.45593999997E+02  0.45594000000E+02  0.51100000000E-03 0.  1.
         11   -1    0    0    0    0 -0.00000000000E+00 -0.00000000000E+00 -0.45593999997E+02  0.45594000000E+02  0.51100000000E-03 0. -1.
    9900012    2    1    2    0    0 -0.28224956230E+02 -0.28780087745E+02  0.53126547479E+01  0.50528857052E+02  0.29999991495E+02 0.  0.
         12    1    1    2    0    0  0.28224956230E+02  0.28780087745E+02 -0.53126547479E+01  0.40659142948E+02  0.00000000000E+00 0. -1.
         11    1    3    3    0    0  0.11018764620E+01 -0.60436820968E+01 -0.10360545920E+01  0.62300589406E+01  0.51100000000E-03 0. -1.
        -11    1    3    3    0    0  0.21541031956E+01  0.26127811177E+01  0.98258500089E+00  0.35259409087E+01  0.51100000000E-03 0.  1.
        -12    1    3    3    0    0 -0.31480935888E+02 -0.25349186766E+02  0.53661243389E+01  0.40772857203E+02  0.00000000000E+00 0.  1.
</event>
<event>
 7    1  0.5479172E-013  0.5052887E+02  0.7816164E-02  0.1300439E+00
        -11   -1    0    0    0    0  0.00000000000E+00  0.00000000000E+00  0.45593999997E+02  0.45594000000E+02  0.51100000000E-03 0.  1.
         11   -1    0    0    0    0 -0.00000000000E+00 -0.00000000000E+00 -0.45593999997E+02  0.45594000000E+02  0.51100000000E-03 0. -1.
    9900012    2    1    2    0    0 -0.21427197095E+02 -0.62816799483E+01  0.33979114175E+02  0.50528874598E+02  0.30000044827E+02 0.  0.
         12    1    1    2    0    0  0.21427197095E+02  0.62816799483E+01 -0.33979114175E+02  0.40659125402E+02  0.00000000000E+00 0. -1.
         11    1    3    3    0    0  0.28034862135E+01 -0.21237217298E+00  0.16654776565E+02  0.16890417981E+02  0.51100000000E-03 0. -1.
        -11    1    3    3    0    0 -0.95747003175E+00  0.34322646290E+01  0.32806389800E+01  0.48435298826E+01  0.51100000000E-03 0.  1.
        -12    1    3    3    0    0 -0.23273213277E+02 -0.95015724043E+01  0.14043698630E+02  0.28794926734E+02  0.00000000000E+00 0.  1.
</event>
<event>
 7    1  0.5479172E-013  0.5052886E+02  0.7816164E-02  0.1300439E+00
        -11   -1    0    0    0    0  0.00000000000E+00  0.00000000000E+00  0.45593999997E+02  0.45594000000E+02  0.51100000000E-03 0. -1.
         11   -1    0    0    0    0 -0.00000000000E+00 -0.00000000000E+00 -0.45593999997E+02  0.45594000000E+02  0.51100000000E-03 0.  1.
    9900012    2    1    2    0    0  0.30735290958E+02 -0.57830599185E+01 -0.25981994501E+02  0.50528856741E+02  0.29999990550E+02 0.  0.
         12    1    1    2    0    0 -0.30735290958E+02  0.57830599185E+01  0.25981994501E+02  0.40659143259E+02  0.00000000000E+00 0. -1.
         11    1    3    3    0    0  0.94288967126E+01  0.57649384663E+01 -0.35087058846E+01  0.11595241523E+02  0.51100000000E-03 0. -1.
        -11    1    3    3    0    0 -0.55622359650E-01  0.48102188462E+01 -0.44152684202E+01  0.65296167329E+01  0.51100000000E-03 0.  1.
        -12    1    3    3    0    0  0.21362016605E+02 -0.16358217231E+02 -0.18058020196E+02  0.32403998485E+02  0.00000000000E+00 0.  1.
</event>
<event>
 7    1  0.5479172E-013  0.5052886E+02  0.7816164E-02  0.1300439E+00
        -11   -1    0    0    0    0  0.00000000000E+00  0.00000000000E+00  0.45593999997E+02  0.45594000000E+02  0.51100000000E-03 0.  1.
         11   -1    0    0    0    0 -0.00000000000E+00 -0.00000000000E+00 -0.45593999997E+02  0.45594000000E+02  0.51100000000E-03 0. -1.
    9900012    2    1    2    0    0  0.49313623553E+01 -0.35514413226E+02  0.19172217394E+02  0.50528858331E+02  0.29999995383E+02 0.  0.
         12    1    1    2    0    0 -0.49313623553E+01  0.35514413226E+02 -0.19172217394E+02  0.40659141669E+02  0.00000000000E+00 0. -1.
         11    1    3    3    0    0 -0.14154113398E+01 -0.14540902963E+02  0.11358720598E+02  0.18505722956E+02  0.51100000000E-03 0. -1.
        -11    1    3    3    0    0 -0.30747727544E+01 -0.17292810969E+02  0.11790417088E+02  0.21154419729E+02  0.51100000000E-03 0.  1.
         12    1    3    3    0    0  0.94215464495E+01 -0.36806992944E+01 -0.39769202918E+01  0.10868715646E+02  0.00000000000E+00 0. -1.
</event>
