<event>
 7    1  0.1874105E-013  0.7246158E+02  0.7816164E-02  0.1226708E+00
        -11   -1    0    0    0    0  0.00000000000E+00  0.00000000000E+00  0.45593999997E+02  0.45594000000E+02  0.51100000000E-03 0.  1.
         11   -1    0    0    0    0 -0.00000000000E+00 -0.00000000000E+00 -0.45593999997E+02  0.45594000000E+02  0.51100000000E-03 0. -1.
    9900012    2    1    2    0    0 -0.11167445027E+02  0.93928713625E+01 -0.11736311153E+02  0.72461578549E+02  0.70000010754E+02 0.  0.
        -12    1    1    2    0    0  0.11167445027E+02 -0.93928713625E+01  0.11736311153E+02  0.18726421451E+02  0.00000000000E+00 0.  1.
         11    1    3    3    0    0 -0.11832751001E+02 -0.12017679411E+01 -0.94163136126E+01  0.15169878205E+02  0.51100000000E-03 0. -1.
        -11    1    3    3    0    0  0.15930365593E+02  0.29074446168E+02  0.50513861647E+00  0.33156524745E+02  0.51100000000E-03 0.  1.
        -12    1    3    3    0    0 -0.15265059619E+02 -0.18479806864E+02 -0.28251361570E+01  0.24135175599E+02  0.00000000000E+00 0.  1.
</event>
<event>
 7    1  0.1874105E-013  0.7246159E+02  0.7816164E-02  0.1226708E+00
        -11   -1    0    0    0    0  0.00000000000E+00  0.00000000000E+00  0.45593999997E+02  0.45594000000E+02  0.51100000000E-03 0. -1.
         11   -1    0    0    0    0 -0.00000000000E+00 -0.00000000000E+00 -0.45593999997E+02  0.45594000000E+02  0.51100000000E-03 0.  1.
    9900012    2    1    2    0    0  0.11183204482E+01  0.13186763927E+02  0.13249034136E+02  0.72461593804E+02  0.70000030625E+02 0.  0.
        -12    1    1    2    0    0 -0.11183204482E+01 -0.13186763927E+02 -0.13249034136E+02  0.18726406196E+02  0.00000000000E+00 0.  1.
         11    1    3    3    0    0  0.16298279579E+02  0.89803922549E+01 -0.60427191964E+01  0.19565168485E+02  0.51100000000E-03 0. -1.
        -11    1    3    3    0    0 -0.24617499009E+02 -0.13930795695E+02  0.14954884371E+02  0.31995888688E+02  0.51100000000E-03 0.  1.
         12    1    3    3    0    0  0.94375398777E+01  0.18137167367E+02  0.43368689611E+01  0.20900536630E+02  0.00000000000E+00 0. -1.
</event>
<event>
 7    1  0.1874105E-013  0.7246154E+02  0.7816164E-02  0.1226708E+00
        -11   -1    0    0    0    0  0.00000000000E+00  0.00000000000E+00  0.45593999997E+02  0.45594000000E+02  0.51100000000E-03 0.  1.
         11   -1    0    0    0    0 -0.00000000000E+00 -0.00000000000E+00 -0.45593999997E+02  0.45594000000E+02  0.51100000000E-03 0. -1.
    9900012    2    1    2    0    0  0.38491770841E+01  0.41243666160E+01 -0.17856480167E+02  0.72461536154E+02  0.69999955526E+02 0.  0.
        -12    1    1    2    0    0 -0.38491770841E+01 -0.41243666160E+01  0.17856480167E+02  0.18726463846E+02  0.00000000000E+00 0.  1.
         11    1    3    3    0    0  0.11049982574E+02 -0.53182717125E+01 -0.21424645721E+02  0.24686060306E+02  0.51100000000E-03 0. -1.
        -11    1    3    3    0    0 -0.10212449390E+02  0.26245469246E+02  0.94723312714E+01  0.29712688172E+02  0.51100000000E-03 0.  1.
        -12    1    3    3    0    0  0.30116438994E+01 -0.16802830917E+02 -0.59041657178E+01  0.18062787676E+02  0.00000000000E+00 0.  1.
</event>
<event>
 7    1  0.1874105E-013  0.7246155E+02  0.7816164E-02  0.1226708E+00
        -11   -1    0    0    0    0  0.00000000000E+00  0.00000000000E+00  0.45593999997E+02  0.45594000000E+02  0.51100000000E-03 0.  1.
         11   -1    0    0    0    0 -0.00000000000E+00 -0.00000000000E+00 -0.45593999997E+02  0.45594000000E+02  0.51100000000E-03 0. -1.
    9900012    2    1    2    0    0  0.10685727545E+02 -0.96133799419E+01 -0.12003247646E+02  0.72461553431E+02  0.69999978032E+02 0.  0.
        -12    1    1    2    0    0 -0.10685727545E+02  0.96133799419E+01  0.12003247646E+02  0.18726446569E+02  0.00000000000E+00 0.  1.
         11    1    3    3    0    0 -0.18993946661E+02  0.13671423647E+02 -0.15223873879E+02  0.27918527369E+02  0.51100000000E-03 0. -1.
        -11    1    3    3    0    0  0.11976243808E+02 -0.20694073919E+02 -0.56567332759E+01  0.24569772948E+02  0.51100000000E-03 0.  1.
        -12    1    3    3    0    0  0.17703430398E+02 -0.25907296699E+01  0.88773595095E+01  0.19973253113E+02  0.00000000000E+00 0.  1.
</event>
<event>
 7    1  0.1874105E-013  0.7246159E+02  0.7816164E-02  0.1226708E+00
        -11   -1    0    0    0    0  0.00000000000E+00  0.00000000000E+00  0.45593999997E+02  0.45594000000E+02  0.51100000000E-03 0.  1.
         11   -1    0    0    0    0 -0.00000000000E+00 -0.00000000000E+00 -0.45593999997E+02  0.45594000000E+02  0.51100000000E-03 0. -1.
    9900012    2    1    2    0    0  0.13792519882E+00  0.96582614287E+01 -0.16042985843E+02  0.72461589988E+02  0.70000025655E+02 0.  0.
        -12    1    1    2    0    0 -0.13792519882E+00 -0.96582614287E+01  0.16042985843E+02  0.18726410012E+02  0.00000000000E+00 0.  1.
         11    1    3    3    0    0 -0.29044462885E+02  0.17208033874E+01 -0.25767915486E+02  0.38865504722E+02  0.51100000000E-03 0.  1.
        -11    1    3    3    0    0  0.21143494365E+02  0.44236434371E+01  0.11752698084E+02  0.24591500315E+02  0.51100000000E-03 0. -1.
        -12    1    3    3    0    0  0.80388937187E+01  0.35138146042E+01 -0.20277684411E+01  0.90045849512E+01  0.00000000000E+00 0.  1.
</event>
<event>
 7    1  0.1874105E-013  0.7246152E+02  0.7816164E-02  0.1226708E+00
        -11   -1    0    0    0    0  0.00000000000E+00  0.00000000000E+00  0.45593999997E+02  0.45594000000E+02  0.51100000000E-03 0.  1.
         11   -1    0    0    0    0 -0.00000000000E+00 -0.00000000000E+00 -0.45593999997E+02  0.45594000000E+02  0.51100000000E-03 0. -1.
    9900012    2    1    2    0    0  0.17080875734E+02 -0.74527494648E+01  0.18388508058E+01  0.72461517076E+02  0.69999930673E+02 0.  0.
        -12    1    1    2    0    0 -0.17080875734E+02  0.74527494648E+01 -0.18388508058E+01  0.18726482924E+02  0.00000000000E+00 0.  1.
         11    1    3    3    0    0 -0.56145815239E+01  0.17939769279E+02  0.10793631630E+01  0.18828804332E+02  0.51100000000E-03 0.  1.
        -11    1    3    3    0    0  0.26804758890E+02 -0.14861161643E+02 -0.15092003147E+02  0.34163105594E+02  0.51100000000E-03 0. -1.
         12    1    3    3    0    0 -0.41093016327E+01 -0.10531357101E+02  0.15851490790E+02  0.19469607150E+02  0.00000000000E+00 0. -1.
</event>
<event>
 7    1  0.1874105E-013  0.7246141E+02  0.7816164E-02  0.1226708E+00
        -11   -1    0    0    0    0  0.00000000000E+00  0.00000000000E+00  0.45593999997E+02  0.45594000000E+02  0.51100000000E-03 0. -1.
         11   -1    0    0    0    0 -0.00000000000E+00 -0.00000000000E+00 -0.45593999997E+02  0.45594000000E+02  0.51100000000E-03 0.  1.
    9900012    2    1    2    0    0 -0.10051219980E+02  0.13047682734E+02  0.89115626965E+01  0.72461414686E+02  0.69999797292E+02 0.  0.
        -12    1    1    2    0    0  0.10051219980E+02 -0.13047682734E+02 -0.89115626965E+01  0.18726585314E+02  0.00000000000E+00 0.  1.
         11    1    3    3    0    0  0.14522134514E+02  0.31073444815E+02  0.95436247372E+01  0.35602417571E+02  0.51100000000E-03 0. -1.
        -11    1    3    3    0    0 -0.14785432012E+02 -0.28138666499E+01 -0.83278554917E+01  0.17201163410E+02  0.51100000000E-03 0.  1.
         12    1    3    3    0    0 -0.97879224814E+01 -0.15211895432E+02  0.76957934509E+01  0.19657833705E+02  0.00000000000E+00 0. -1.
</event>
<event>
 7    1  0.1874105E-013  0.7246153E+02  0.7816164E-02  0.1226708E+00
        -11   -1    0    0    0    0  0.00000000000E+00  0.00000000000E+00  0.45593999997E+02  0.45594000000E+02  0.51100000000E-03 0.  1.
         11   -1    0    0    0    0 -0.00000000000E+00 -0.00000000000E+00 -0.45593999997E+02  0.45594000000E+02  0.51100000000E-03 0. -1.
    9900012    2    1    2    0    0 -0.12857225072E+01 -0.78071594368E+01 -0.16972797733E+02  0.72461529865E+02  0.69999947333E+02 0.  0.
        -12    1    1    2    0    0  0.12857225072E+01  0.78071594368E+01  0.16972797733E+02  0.18726470135E+02  0.00000000000E+00 0.  1.
         11    1    3    3    0    0  0.33231059131E+01  0.26310807930E+02 -0.10170707019E+02  0.28403255595E+02  0.51100000000E-03 0.  1.
        -11    1    3    3    0    0 -0.11023018804E+02 -0.25519900396E+02  0.48518243263E+01  0.28219008830E+02  0.51100000000E-03 0. -1.
         12    1    3    3    0    0  0.64141903842E+01 -0.85980669713E+01 -0.11653915040E+02  0.15839265440E+02  0.00000000000E+00 0. -1.
</event>
<event>
 7    1  0.1874105E-013  0.7246153E+02  0.7816164E-02  0.1226708E+00
        -11   -1    0    0    0    0  0.00000000000E+00  0.00000000000E+00  0.45593999997E+02  0.45594000000E+02  0.51100000000E-03 0. -1.
         11   -1    0    0    0    0 -0.00000000000E+00 -0.00000000000E+00 -0.45593999997E+02  0.45594000000E+02  0.51100000000E-03 0.  1.
    9900012    2    1    2    0    0 -0.16637204578E+02 -0.53618099741E+01  0.67182579334E+01  0.72461532847E+02  0.69999951218E+02 0.  0.
        -12    1    1    2    0    0  0.16637204578E+02  0.53618099741E+01 -0.67182579334E+01  0.18726467153E+02  0.00000000000E+00 0.  1.
         11    1    3    3    0    0 -0.12201177583E+02 -0.98953751877E-01  0.13132941969E+02  0.17926312819E+02  0.51100000000E-03 0. -1.
        -11    1    3    3    0    0  0.18708791271E+01 -0.24868386572E+02 -0.18138254514E+02  0.30837203447E+02  0.51100000000E-03 0.  1.
        -12    1    3    3    0    0 -0.63069061216E+01  0.19605530350E+02  0.11723570478E+02  0.23698016581E+02  0.00000000000E+00 0.  1.
</event>
<event>
 7    1  0.1874105E-013  0.7246156E+02  0.7816164E-02  0.1226708E+00
        -11   -1    0    0    0    0  0.00000000000E+00  0.00000000000E+00  0.45593999997E+02  0.45594000000E+02  0.51100000000E-03 0. -1.
         11   -1    0    0    0    0 -0.00000000000E+00 -0.00000000000E+00 -0.45593999997E+02  0.45594000000E+02  0.51100000000E-03 0.  1.
    9900012    2    1    2    0    0  0.90732951012E+01  0.10439866682E+01  0.16348237789E+02  0.72461562245E+02  0.69999989515E+02 0.  0.
        -12    1    1    2    0    0 -0.90732951012E+01 -0.10439866682E+01 -0.16348237789E+02  0.18726437755E+02  0.00000000000E+00 0.  1.
         11    1    3    3    0    0 -0.10560288383E+02 -0.99153982825E+01 -0.17420041442E+01  0.14590044295E+02  0.51100000000E-03 0. -1.
        -11    1    3    3    0    0  0.13863446595E+02  0.23146338962E+02  0.29666162644E+02  0.40100241460E+02  0.51100000000E-03 0.  1.
        -12    1    3    3    0    0  0.57701368886E+01 -0.12186954012E+02 -0.11575920711E+02  0.17771276490E+02  0.00000000000E+00 0.  1.
</event>
<event>
 7    1  0.1874105E-013  0.7246160E+02  0.7816164E-02  0.1226708E+00
        -11   -1    0    0    0    0  0.00000000000E+00  0.00000000000E+00  0.45593999997E+02  0.45594000000E+02  0.51100000000E-03 0.  1.
         11   -1    0    0    0    0 -0.00000000000E+00 -0.00000000000E+00 -0.45593999997E+02  0.45594000000E+02  0.51100000000E-03 0. -1.
    9900012    2    1    2    0    0  0.13145138995E+02 -0.88962447315E+01 -0.99368175716E+01  0.72461596368E+02  0.70000033966E+02 0.  0.
        -12    1    1    2    0    0 -0.13145138995E+02  0.88962447315E+01  0.99368175716E+01  0.18726403632E+02  0.00000000000E+00 0.  1.
         11    1    3    3    0    0  0.10447244874E+01 -0.11124271414E+02  0.17847062818E+01  0.11314859280E+02  0.51100000000E-03 0. -1.
        -11    1    3    3    0    0  0.52299250429E+01  0.13678892302E+02 -0.32955428335E+02  0.36062785078E+02  0.51100000000E-03 0.  1.
        -12    1    3    3    0    0  0.68704894649E+01 -0.11450865619E+02  0.21233904482E+02  0.25083952010E+02  0.00000000000E+00 0.  1.
</event>
<event>
 7    1  0.1874105E-013  0.7246159E+02  0.7816164E-02  0.1226708E+00
        -11   -1    0    0    0    0  0.00000000000E+00  0.00000000000E+00  0.45593999997E+02  0.45594000000E+02  0.51100000000E-03 0.  1.
         11   -1    0    0    0    0 -0.00000000000E+00 -0.00000000000E+00 -0.45593999997E+02  0.45594000000E+02  0.51100000000E-03 0. -1.
    9900012    2    1    2    0    0  0.14861009679E+02  0.50077361323E+01 -0.10234816683E+02  0.72461588107E+02  0.70000023204E+02 0.  0.
        -12    1    1    2    0    0 -0.14861009679E+02 -0.50077361323E+01  0.10234816683E+02  0.18726411893E+02  0.00000000000E+00 0.  1.
         11    1    3    3    0    0  0.25458027561E+02  0.11015053014E+02  0.10702661132E+02  0.29731961183E+02  0.51100000000E-03 0.  1.
        -11    1    3    3    0    0 -0.21071343232E+02 -0.39720260542E+01 -0.23441821489E+02  0.31769442733E+02  0.51100000000E-03 0. -1.
        -12    1    3    3    0    0  0.10474325350E+02 -0.20352908273E+01  0.25043436729E+01  0.10960184192E+02  0.00000000000E+00 0.  1.
</event>
<event>
 7    1  0.1874105E-013  0.7246161E+02  0.7816164E-02  0.1226708E+00
        -11   -1    0    0    0    0  0.00000000000E+00  0.00000000000E+00  0.45593999997E+02  0.45594000000E+02  0.51100000000E-03 0. -1.
         11   -1    0    0    0    0 -0.00000000000E+00 -0.00000000000E+00 -0.45593999997E+02  0.45594000000E+02  0.51100000000E-03 0.  1.
    9900012    2    1    2    0    0  0.80611237308E+01 -0.13294546862E+02  0.10437962347E+02  0.72461608195E+02  0.70000049373E+02 0.  0.
        -12    1    1    2    0    0 -0.80611237308E+01  0.13294546862E+02 -0.10437962347E+02  0.18726391805E+02  0.00000000000E+00 0.  1.
         11    1    3    3    0    0  0.50828973340E+01  0.23153563962E+02 -0.35855517105E+01  0.23974560492E+02  0.51100000000E-03 0. -1.
        -11    1    3    3    0    0  0.33318715219E+01 -0.15436428907E+02 -0.82900299335E+01  0.17835618907E+02  0.51100000000E-03 0.  1.
         12    1    3    3    0    0 -0.35364512508E+00 -0.21011681916E+02  0.22313543991E+02  0.30651428797E+02  0.00000000000E+00 0. -1.
</event>
<event>
 7    1  0.1874105E-013  0.7246170E+02  0.7816164E-02  0.1226708E+00
        -11   -1    0    0    0    0  0.00000000000E+00  0.00000000000E+00  0.45593999997E+02  0.45594000000E+02  0.51100000000E-03 0. -1.
         11   -1    0    0    0    0 -0.00000000000E+00 -0.00000000000E+00 -0.45593999997E+02  0.45594000000E+02  0.51100000000E-03 0.  1.
    9900012    2    1    2    0    0 -0.83606443145E+01 -0.13902480295E+02 -0.93538764934E+01  0.72461699320E+02  0.70000168080E+02 0.  0.
        -12    1    1    2    0    0  0.83606443145E+01  0.13902480295E+02  0.93538764934E+01  0.18726300680E+02  0.00000000000E+00 0.  1.
         11    1    3    3    0    0 -0.14315168707E+02  0.13022085127E+01  0.16414814387E+02  0.21818935210E+02  0.51100000000E-03 0. -1.
        -11    1    3    3    0    0 -0.74485339893E+01  0.61982135752E+01 -0.23341687323E+02  0.25273165165E+02  0.51100000000E-03 0.  1.
         12    1    3    3    0    0  0.13403058381E+02 -0.21402902382E+02 -0.24270035573E+01  0.25369598945E+02  0.00000000000E+00 0. -1.
</event>
<event>
 7    1  0.1874105E-013  0.7246156E+02  0.7816164E-02  0.1226708E+00
        -11   -1    0    0    0    0  0.00000000000E+00  0.00000000000E+00  0.45593999997E+02  0.45594000000E+02  0.51100000000E-03 0. -1.
         11   -1    0    0    0    0 -0.00000000000E+00 -0.00000000000E+00 -0.45593999997E+02  0.45594000000E+02  0.51100000000E-03 0.  1.
    9900012    2    1    2    0    0 -0.46494623758E+01 -0.42135014337E+01  0.17643934580E+02  0.72461560878E+02  0.69999987734E+02 0.  0.
        -12    1    1    2    0    0  0.46494623758E+01  0.42135014337E+01 -0.17643934580E+02  0.18726439122E+02  0.00000000000E+00 0.  1.
         11    1    3    3    0    0  0.16343043004E+02 -0.27558681644E+01  0.31782309384E+02  0.35844177408E+02  0.51100000000E-03 0. -1.
        -11    1    3    3    0    0 -0.25514836710E+02 -0.38071690265E+01 -0.51820379716E+01  0.26312638525E+02  0.51100000000E-03 0.  1.
         12    1    3    3    0    0  0.45223313304E+01  0.23495357572E+01 -0.89563368326E+01  0.10304744946E+02  0.00000000000E+00 0. -1.
</event>
<event>
 7    1  0.1874105E-013  0.7246125E+02  0.7816164E-02  0.1226709E+00
        -11   -1    0    0    0    0  0.00000000000E+00  0.00000000000E+00  0.45593999997E+02  0.45594000000E+02  0.51100000000E-03 0.  1.
         11   -1    0    0    0    0 -0.00000000000E+00 -0.00000000000E+00 -0.45593999997E+02  0.45594000000E+02  0.51100000000E-03 0. -1.
    9900012    2    1    2    0    0  0.64918163857E+01  0.79577072590E+00 -0.17547487548E+02  0.72461247738E+02  0.69999579809E+02 0.  0.
        -12    1    1    2    0    0 -0.64918163857E+01 -0.79577072590E+00  0.17547487548E+02  0.18726752262E+02  0.00000000000E+00 0.  1.
         11    1    3    3    0    0  0.13155643058E+01  0.26090059792E+02 -0.75060590234E+01  0.27180192268E+02  0.51100000000E-03 0.  1.
        -11    1    3    3    0    0  0.70679029613E+01 -0.19161338684E+02 -0.23037263610E+02  0.30786809957E+02  0.51100000000E-03 0. -1.
        -12    1    3    3    0    0 -0.18916508814E+01 -0.61329503817E+01  0.12995835085E+02  0.14494245513E+02  0.00000000000E+00 0.  1.
</event>
<event>
 7    1  0.1874105E-013  0.7246158E+02  0.7816164E-02  0.1226708E+00
        -11   -1    0    0    0    0  0.00000000000E+00  0.00000000000E+00  0.45593999997E+02  0.45594000000E+02  0.51100000000E-03 0.  1.
         11   -1    0    0    0    0 -0.00000000000E+00 -0.00000000000E+00 -0.45593999997E+02  0.45594000000E+02  0.51100000000E-03 0. -1.
    9900012    2    1    2    0    0  0.73432042686E+01 -0.12712511901E+02 -0.11625319340E+02  0.72461583964E+02  0.70000017808E+02 0.  0.
        -12    1    1    2    0    0 -0.73432042686E+01  0.12712511901E+02  0.11625319340E+02  0.18726416036E+02  0.00000000000E+00 0.  1.
         11    1    3    3    0    0  0.74077594578E+01  0.29194562517E+01 -0.27374898843E+02  0.28509353060E+02  0.51100000000E-03 0. -1.
        -11    1    3    3    0    0  0.81304934830E+01 -0.22999018955E+02  0.20584715679E+02  0.31918494905E+02  0.51100000000E-03 0.  1.
        -12    1    3    3    0    0 -0.81950486721E+01  0.73670508016E+01 -0.48351361765E+01  0.12033735999E+02  0.00000000000E+00 0.  1.
</event>
<event>
 7    1  0.1874105E-013  0.7246158E+02  0.7816164E-02  0.1226708E+00
        -11   -1    0    0    0    0  0.00000000000E+00  0.00000000000E+00  0.45593999997E+02  0.45594000000E+02  0.51100000000E-03 0. -1.
         11   -1    0    0    0    0 -0.00000000000E+00 -0.00000000000E+00 -0.45593999997E+02  0.45594000000E+02  0.51100000000E-03 0.  1.
    9900012    2    1    2    0    0  0.15778275537E+02  0.76870164629E+01  0.65295313655E+01  0.72461575331E+02  0.70000006561E+02 0.  0.
        -12    1    1    2    0    0 -0.15778275537E+02 -0.76870164629E+01 -0.65295313655E+01  0.18726424669E+02  0.00000000000E+00 0.  1.
         11    1    3    3    0    0  0.26035870207E+02  0.81757904942E+01 -0.24837643289E+02  0.36900116694E+02  0.51100000000E-03 0. -1.
        -11    1    3    3    0    0 -0.11727814623E+02 -0.34646190111E+01  0.17812201291E+02  0.21606011566E+02  0.51100000000E-03 0.  1.
         12    1    3    3    0    0  0.14702199538E+01  0.29758449798E+01  0.13554973364E+02  0.13955447071E+02  0.00000000000E+00 0. -1.
</event>
<event>
 7    1  0.1874105E-013  0.7246157E+02  0.7816164E-02  0.1226708E+00
        -11   -1    0    0    0    0  0.00000000000E+00  0.00000000000E+00  0.45593999997E+02  0.45594000000E+02  0.51100000000E-03 0. -1.
         11   -1    0    0    0    0 -0.00000000000E+00 -0.00000000000E+00 -0.45593999997E+02  0.45594000000E+02  0.51100000000E-03 0.  1.
    9900012    2    1    2    0    0 -0.88695231423E+01  0.26696205934E+00  0.16490584226E+02  0.72461572748E+02  0.70000003196E+02 0.  0.
        -12    1    1    2    0    0  0.88695231423E+01 -0.26696205934E+00 -0.16490584226E+02  0.18726427252E+02  0.00000000000E+00 0.  1.
         11    1    3    3    0    0 -0.15999776509E+02  0.14158049189E+01 -0.12080710157E+02  0.20098281271E+02  0.51100000000E-03 0. -1.
        -11    1    3    3    0    0 -0.95212921889E+01  0.10150091315E+02  0.29074789201E+02  0.32233875442E+02  0.51100000000E-03 0.  1.
        -12    1    3    3    0    0  0.16651545555E+02 -0.11298934175E+02 -0.50349481790E+00  0.20129416035E+02  0.00000000000E+00 0.  1.
</event>
<event>
 7    1  0.2114433E-013  0.7246157E+02  0.7816164E-02  0.1226708E+00
        -11   -1    0    0    0    0  0.00000000000E+00  0.00000000000E+00  0.45593999997E+02  0.45594000000E+02  0.51100000000E-03 0. -1.
         11   -1    0    0    0    0 -0.00000000000E+00 -0.00000000000E+00 -0.45593999997E+02  0.45594000000E+02  0.51100000000E-03 0.  1.
    9900012    2    1    2    0    0  0.36505286647E+01 -0.41855721061E+01  0.17883897997E+02  0.72461569989E+02  0.69999999602E+02 0.  0.
        -12    1    1    2    0    0 -0.36505286647E+01  0.41855721061E+01 -0.17883897997E+02  0.18726430011E+02  0.00000000000E+00 0.  1.
         11    1    3    3    0    0 -0.13330046706E+02  0.48881036741E+01  0.15551484380E+02  0.21057833920E+02  0.51100000000E-03 0. -1.
        -11    1    3    3    0    0  0.26894469647E+02  0.10400300450E+02  0.54017786092E+01  0.29336972568E+02  0.51100000000E-03 0.  1.
        -12    1    3    3    0    0 -0.99138942765E+01 -0.19473976230E+02 -0.30693649923E+01  0.22066763501E+02  0.00000000000E+00 0.  1.
</event>
<event>
 7    1  0.1874105E-013  0.7246159E+02  0.7816164E-02  0.1226708E+00
        -11   -1    0    0    0    0  0.00000000000E+00  0.00000000000E+00  0.45593999997E+02  0.45594000000E+02  0.51100000000E-03 0.  1.
         11   -1    0    0    0    0 -0.00000000000E+00 -0.00000000000E+00 -0.45593999997E+02  0.45594000000E+02  0.51100000000E-03 0. -1.
    9900012    2    1    2    0    0 -0.81112238152E+01 -0.14851504611E+02  0.80199352517E+01  0.72461588106E+02  0.70000023203E+02 0.  0.
        -12    1    1    2    0    0  0.81112238152E+01  0.14851504611E+02 -0.80199352517E+01  0.18726411894E+02  0.00000000000E+00 0.  1.
         11    1    3    3    0    0 -0.27021146387E+02 -0.89359081974E+01 -0.86780189652E+01  0.29754005122E+02  0.51100000000E-03 0. -1.
        -11    1    3    3    0    0  0.20861848511E+02 -0.64319427195E+01  0.25562566318E+02  0.33615939783E+02  0.51100000000E-03 0.  1.
         12    1    3    3    0    0 -0.19519259394E+01  0.51634630583E+00 -0.88646121012E+01  0.90916432005E+01  0.00000000000E+00 0. -1.
</event>
<event>
 7    1  0.1874105E-013  0.7246138E+02  0.7816164E-02  0.1226709E+00
        -11   -1    0    0    0    0  0.00000000000E+00  0.00000000000E+00  0.45593999997E+02  0.45594000000E+02  0.51100000000E-03 0. -1.
         11   -1    0    0    0    0 -0.00000000000E+00 -0.00000000000E+00 -0.45593999997E+02  0.45594000000E+02  0.51100000000E-03 0.  1.
    9900012    2    1    2    0    0 -0.80945701496E+01  0.12176411526E+02 -0.11700390176E+02  0.72461382745E+02  0.69999755681E+02 0.  0.
        -12    1    1    2    0    0  0.80945701496E+01 -0.12176411526E+02  0.11700390176E+02  0.18726617255E+02  0.00000000000E+00 0.  1.
         11    1    3    3    0    0  0.22016658117E+02  0.45660370226E+01 -0.88573458791E+01  0.24166805851E+02  0.51100000000E-03 0. -1.
        -11    1    3    3    0    0 -0.19419383437E+02 -0.17191353424E+01 -0.18701034417E+02  0.27014747231E+02  0.51100000000E-03 0.  1.
         12    1    3    3    0    0 -0.10691844829E+02  0.93295098460E+01  0.15857990121E+02  0.21279829663E+02  0.00000000000E+00 0. -1.
</event>
<event>
 8    1  0.1874105E-013  0.7246141E+02  0.7816164E-02  0.1226708E+00
        -11   -1    0    0    0    0  0.00000000000E+00  0.00000000000E+00  0.45593999997E+02  0.45594000000E+02  0.51100000000E-03 0. -1.
         11   -1    0    0    0    0 -0.00000000000E+00 -0.00000000000E+00 -0.45593999997E+02  0.45594000000E+02  0.51100000000E-03 0.  1.
    9900012    2    1    2    0    0 -0.11407589380E+02  0.27098893882E+01  0.14601658834E+02  0.72461413641E+02  0.69999795930E+02 0.  0.
         24    2    3    3    0    0 -0.33925415750E+01  0.56756292659E+01 -0.14830438240E+01  0.54247290983E+02  0.53822365743E+02 0.  0.
        -12    1    1    2    0    0  0.11407589380E+02 -0.27098893882E+01 -0.14601658834E+02  0.18726586359E+02  0.00000000000E+00 0.  1.
         11    1    3    3    0    0 -0.80150478048E+01 -0.29657398777E+01  0.16084702658E+02  0.18214122658E+02  0.51100000000E-03 0. -1.
        -11    1    4    4    0    0 -0.55167764570E+00 -0.86891123464E+01 -0.25039829849E+02  0.26510339506E+02  0.51100000000E-03 0.  1.
         12    1    4    4    0    0 -0.28408639293E+01  0.14364741612E+02  0.23556786025E+02  0.27736951478E+02  0.00000000000E+00 0. -1.
</event>
<event>
 7    1  0.1874105E-013  0.7246157E+02  0.7816164E-02  0.1226708E+00
        -11   -1    0    0    0    0  0.00000000000E+00  0.00000000000E+00  0.45593999997E+02  0.45594000000E+02  0.51100000000E-03 0. -1.
         11   -1    0    0    0    0 -0.00000000000E+00 -0.00000000000E+00 -0.45593999997E+02  0.45594000000E+02  0.51100000000E-03 0.  1.
    9900012    2    1    2    0    0  0.30506647957E+01 -0.10882582256E+02  0.14931237371E+02  0.72461574776E+02  0.70000005838E+02 0.  0.
        -12    1    1    2    0    0 -0.30506647957E+01  0.10882582256E+02 -0.14931237371E+02  0.18726425224E+02  0.00000000000E+00 0.  1.
         11    1    3    3    0    0  0.43659377518E+00  0.18056159013E+02  0.18524227992E+02  0.25872041191E+02  0.51100000000E-03 0. -1.
        -11    1    3    3    0    0  0.89432113047E+01 -0.34494567137E+02  0.31877438161E+01  0.35777337817E+02  0.51100000000E-03 0.  1.
        -12    1    3    3    0    0 -0.63291402841E+01  0.55558258675E+01 -0.67807344368E+01  0.10812195767E+02  0.00000000000E+00 0.  1.
</event>
<event>
 7    1  0.1874105E-013  0.7246150E+02  0.7816164E-02  0.1226708E+00
        -11   -1    0    0    0    0  0.00000000000E+00  0.00000000000E+00  0.45593999997E+02  0.45594000000E+02  0.51100000000E-03 0. -1.
         11   -1    0    0    0    0 -0.00000000000E+00 -0.00000000000E+00 -0.45593999997E+02  0.45594000000E+02  0.51100000000E-03 0.  1.
    9900012    2    1    2    0    0  0.16627481991E+02  0.56982182546E+01 -0.64605720004E+01  0.72461499013E+02  0.69999907143E+02 0.  0.
        -12    1    1    2    0    0 -0.16627481991E+02 -0.56982182546E+01  0.64605720004E+01  0.18726500987E+02  0.00000000000E+00 0.  1.
         11    1    3    3    0    0 -0.18037820461E+02  0.10081796805E+01  0.11072704297E+02  0.21189246659E+02  0.51100000000E-03 0. -1.
        -11    1    3    3    0    0  0.66071241974E+01 -0.12792188602E+02 -0.13386418338E+01  0.14459811258E+02  0.51100000000E-03 0.  1.
         12    1    3    3    0    0  0.28058178255E+02  0.17482227176E+02 -0.16194634464E+02  0.36812441096E+02  0.00000000000E+00 0. -1.
</event>
<event>
 7    1  0.1874105E-013  0.7246158E+02  0.7816164E-02  0.1226708E+00
        -11   -1    0    0    0    0  0.00000000000E+00  0.00000000000E+00  0.45593999997E+02  0.45594000000E+02  0.51100000000E-03 0.  1.
         11   -1    0    0    0    0 -0.00000000000E+00 -0.00000000000E+00 -0.45593999997E+02  0.45594000000E+02  0.51100000000E-03 0. -1.
    9900012    2    1    2    0    0 -0.58339985000E+01 -0.22725088814E+01 -0.17648771197E+02  0.72461575892E+02  0.70000007292E+02 0.  0.
        -12    1    1    2    0    0  0.58339985000E+01  0.22725088814E+01  0.17648771197E+02  0.18726424108E+02  0.00000000000E+00 0.  1.
         11    1    3    3    0    0 -0.59584173108E+01  0.20220687588E+02 -0.23142620465E+02  0.31304310017E+02  0.51100000000E-03 0. -1.
        -11    1    3    3    0    0  0.14365791001E+02 -0.83704455296E+01 -0.64269568856E+01  0.17825433642E+02  0.51100000000E-03 0.  1.
         12    1    3    3    0    0 -0.14241372190E+02 -0.14122750940E+02  0.11920806154E+02  0.23331832233E+02  0.00000000000E+00 0. -1.
</event>
<event>
 7    1  0.1874105E-013  0.7246155E+02  0.7816164E-02  0.1226708E+00
        -11   -1    0    0    0    0  0.00000000000E+00  0.00000000000E+00  0.45593999997E+02  0.45594000000E+02  0.51100000000E-03 0.  1.
         11   -1    0    0    0    0 -0.00000000000E+00 -0.00000000000E+00 -0.45593999997E+02  0.45594000000E+02  0.51100000000E-03 0. -1.
    9900012    2    1    2    0    0  0.12943801292E+01  0.18305628194E+02 -0.37293853864E+01  0.72461554559E+02  0.69999979501E+02 0.  0.
        -12    1    1    2    0    0 -0.12943801292E+01 -0.18305628194E+02  0.37293853864E+01  0.18726445441E+02  0.00000000000E+00 0.  1.
         11    1    3    3    0    0 -0.94943123901E+01 -0.24712551046E+02  0.52481112984E+00  0.26478813681E+02  0.51100000000E-03 0.  1.
        -11    1    3    3    0    0  0.11486678051E+02  0.42112038897E+02 -0.58272973924E+01  0.44037767744E+02  0.51100000000E-03 0. -1.
        -12    1    3    3    0    0 -0.69798553136E+00  0.90614034402E+00  0.15731008761E+01  0.19449731338E+01  0.00000000000E+00 0.  1.
</event>
<event>
 7    1  0.1874105E-013  0.7246166E+02  0.7816164E-02  0.1226708E+00
        -11   -1    0    0    0    0  0.00000000000E+00  0.00000000000E+00  0.45593999997E+02  0.45594000000E+02  0.51100000000E-03 0. -1.
         11   -1    0    0    0    0 -0.00000000000E+00 -0.00000000000E+00 -0.45593999997E+02  0.45594000000E+02  0.51100000000E-03 0.  1.
    9900012    2    1    2    0    0 -0.13447798028E+02 -0.43994229741E+01  0.12266935005E+02  0.72461657893E+02  0.70000114113E+02 0.  0.
        -12    1    1    2    0    0  0.13447798028E+02  0.43994229741E+01 -0.12266935005E+02  0.18726342107E+02  0.00000000000E+00 0.  1.
         11    1    3    3    0    0 -0.36818598289E+02  0.50261527187E+01  0.36949022593E+01  0.37343321947E+02  0.51100000000E-03 0. -1.
        -11    1    3    3    0    0  0.12514919199E+02 -0.81394406999E+01  0.16014327056E+02  0.21893660470E+02  0.51100000000E-03 0.  1.
         12    1    3    3    0    0  0.10855881061E+02 -0.12861349928E+01 -0.74422943101E+01  0.13224675475E+02  0.00000000000E+00 0. -1.
</event>
<event>
 7    1  0.1874105E-013  0.7246173E+02  0.7816164E-02  0.1226708E+00
        -11   -1    0    0    0    0  0.00000000000E+00  0.00000000000E+00  0.45593999997E+02  0.45594000000E+02  0.51100000000E-03 0.  1.
         11   -1    0    0    0    0 -0.00000000000E+00 -0.00000000000E+00 -0.45593999997E+02  0.45594000000E+02  0.51100000000E-03 0. -1.
    9900012    2    1    2    0    0  0.11447100441E+02 -0.85796297499E+01 -0.12084166785E+02  0.72461728560E+02  0.70000206170E+02 0.  0.
        -12    1    1    2    0    0 -0.11447100441E+02  0.85796297499E+01  0.12084166785E+02  0.18726271440E+02  0.00000000000E+00 0.  1.
         11    1    3    3    0    0  0.70100807676E+00 -0.11051613589E+02 -0.89097738792E+01  0.14213150463E+02  0.51100000000E-03 0. -1.
        -11    1    3    3    0    0  0.16793991006E+02  0.26158888588E+02  0.68412098351E+01  0.31829667581E+02  0.51100000000E-03 0.  1.
        -12    1    3    3    0    0 -0.60478986414E+01 -0.23686904750E+02 -0.10015602741E+02  0.26418910516E+02  0.00000000000E+00 0.  1.
</event>
<event>
 7    1  0.1874105E-013  0.7246156E+02  0.7816164E-02  0.1226708E+00
        -11   -1    0    0    0    0  0.00000000000E+00  0.00000000000E+00  0.45593999997E+02  0.45594000000E+02  0.51100000000E-03 0.  1.
         11   -1    0    0    0    0 -0.00000000000E+00 -0.00000000000E+00 -0.45593999997E+02  0.45594000000E+02  0.51100000000E-03 0. -1.
    9900012    2    1    2    0    0  0.38880828996E+00  0.34518508324E+01 -0.18401439007E+02  0.72461564045E+02  0.69999991859E+02 0.  0.
        -12    1    1    2    0    0 -0.38880828996E+00 -0.34518508324E+01  0.18401439007E+02  0.18726435955E+02  0.00000000000E+00 0.  1.
         11    1    3    3    0    0  0.21844546777E+02 -0.10421216978E+02 -0.17513768735E+02  0.29875041134E+02  0.51100000000E-03 0.  1.
        -11    1    3    3    0    0 -0.22896647960E+02  0.18665523698E+02 -0.10823808353E+02  0.31461295114E+02  0.51100000000E-03 0. -1.
        -12    1    3    3    0    0  0.14409094735E+01 -0.47924558884E+01  0.99361380814E+01  0.11125227797E+02  0.00000000000E+00 0.  1.
</event>
<event>
 7    1  0.1874105E-013  0.7246161E+02  0.7816164E-02  0.1226708E+00
        -11   -1    0    0    0    0  0.00000000000E+00  0.00000000000E+00  0.45593999997E+02  0.45594000000E+02  0.51100000000E-03 0. -1.
         11   -1    0    0    0    0 -0.00000000000E+00 -0.00000000000E+00 -0.45593999997E+02  0.45594000000E+02  0.51100000000E-03 0.  1.
    9900012    2    1    2    0    0 -0.44041145454E+01 -0.18015996285E+02 -0.25894354988E+01  0.72461614250E+02  0.70000057260E+02 0.  0.
        -12    1    1    2    0    0  0.44041145454E+01  0.18015996285E+02  0.25894354988E+01  0.18726385750E+02  0.00000000000E+00 0.  1.
         11    1    3    3    0    0 -0.12270741147E+02 -0.14614025752E+02  0.94065144020E+00  0.19105644778E+02  0.51100000000E-03 0. -1.
        -11    1    3    3    0    0 -0.19945744782E+01  0.23120379601E+02 -0.83289567537E+01  0.24655664686E+02  0.51100000000E-03 0.  1.
        -12    1    3    3    0    0  0.98612010800E+01 -0.26522350133E+02  0.47988698147E+01  0.28700304786E+02  0.00000000000E+00 0.  1.
</event>
<event>
 7    1  0.1874105E-013  0.7246159E+02  0.7816164E-02  0.1226708E+00
        -11   -1    0    0    0    0  0.00000000000E+00  0.00000000000E+00  0.45593999997E+02  0.45594000000E+02  0.51100000000E-03 0.  1.
         11   -1    0    0    0    0 -0.00000000000E+00 -0.00000000000E+00 -0.45593999997E+02  0.45594000000E+02  0.51100000000E-03 0. -1.
    9900012    2    1    2    0    0  0.18023507041E+02  0.33210452985E+01 -0.38473701990E+01  0.72461590697E+02  0.70000026578E+02 0.  0.
        -12    1    1    2    0    0 -0.18023507041E+02 -0.33210452985E+01  0.38473701990E+01  0.18726409303E+02  0.00000000000E+00 0.  1.
         11    1    3    3    0    0  0.32199623255E+01  0.29270371728E+01 -0.55435791560E+01  0.70474799828E+01  0.51100000000E-03 0. -1.
        -11    1    3    3    0    0 -0.21628231789E+02 -0.13505349072E+02  0.59680846189E+01  0.26187647817E+02  0.51100000000E-03 0.  1.
        -12    1    3    3    0    0  0.36431776505E+02  0.13899357197E+02 -0.42718756619E+01  0.39226462898E+02  0.00000000000E+00 0.  1.
</event>
<event>
 7    1  0.1874105E-013  0.7246155E+02  0.7816164E-02  0.1226708E+00
        -11   -1    0    0    0    0  0.00000000000E+00  0.00000000000E+00  0.45593999997E+02  0.45594000000E+02  0.51100000000E-03 0. -1.
         11   -1    0    0    0    0 -0.00000000000E+00 -0.00000000000E+00 -0.45593999997E+02  0.45594000000E+02  0.51100000000E-03 0.  1.
    9900012    2    1    2    0    0 -0.88338591332E+01 -0.15753195825E+02  0.49477017284E+01  0.72461548167E+02  0.69999971175E+02 0.  0.
        -12    1    1    2    0    0  0.88338591332E+01  0.15753195825E+02 -0.49477017284E+01  0.18726451833E+02  0.00000000000E+00 0.  1.
         11    1    3    3    0    0 -0.28629343656E+02  0.11096529293E+01  0.77191718679E+01  0.29672483252E+02  0.51100000000E-03 0.  1.
        -11    1    3    3    0    0  0.20320264590E+02 -0.38992493785E+01 -0.14526868670E+02  0.25281360967E+02  0.51100000000E-03 0. -1.
         12    1    3    3    0    0 -0.52478006706E+00 -0.12963599375E+02  0.11755398531E+02  0.17507703947E+02  0.00000000000E+00 0. -1.
</event>
<event>
 7    1  0.1874105E-013  0.7246156E+02  0.7816164E-02  0.1226708E+00
        -11   -1    0    0    0    0  0.00000000000E+00  0.00000000000E+00  0.45593999997E+02  0.45594000000E+02  0.51100000000E-03 0.  1.
         11   -1    0    0    0    0 -0.00000000000E+00 -0.00000000000E+00 -0.45593999997E+02  0.45594000000E+02  0.51100000000E-03 0. -1.
    9900012    2    1    2    0    0 -0.10498785681E+02 -0.26094071205E+01 -0.15285488052E+02  0.72461557431E+02  0.69999983244E+02 0.  0.
        -12    1    1    2    0    0  0.10498785681E+02  0.26094071205E+01  0.15285488052E+02  0.18726442569E+02  0.00000000000E+00 0.  1.
         11    1    3    3    0    0  0.62179874036E+00 -0.11654797984E+02 -0.25589151658E+02  0.28125177912E+02  0.51100000000E-03 0. -1.
        -11    1    3    3    0    0 -0.12269907889E+02 -0.27514123481E+01  0.23466658539E+02  0.26623391459E+02  0.51100000000E-03 0.  1.
         12    1    3    3    0    0  0.11493234674E+01  0.11796803212E+02 -0.13162994933E+02  0.17712988061E+02  0.00000000000E+00 0. -1.
</event>
<event>
 7    1  0.1874105E-013  0.7246158E+02  0.7816164E-02  0.1226708E+00
        -11   -1    0    0    0    0  0.00000000000E+00  0.00000000000E+00  0.45593999997E+02  0.45594000000E+02  0.51100000000E-03 0. -1.
         11   -1    0    0    0    0 -0.00000000000E+00 -0.00000000000E+00 -0.45593999997E+02  0.45594000000E+02  0.51100000000E-03 0.  1.
    9900012    2    1    2    0    0  0.92519858409E+01  0.16083758825E+02  0.25282610910E+01  0.72461584324E+02  0.70000018276E+02 0.  0.
        -12    1    1    2    0    0 -0.92519858409E+01 -0.16083758825E+02 -0.25282610910E+01  0.18726415676E+02  0.00000000000E+00 0.  1.
         11    1    3    3    0    0  0.56396286422E+01  0.19643295717E+02  0.16375865911E+02  0.26188422298E+02  0.51100000000E-03 0. -1.
        -11    1    3    3    0    0  0.19642848330E+02 -0.14759968465E+02 -0.69122492984E+01  0.25524054346E+02  0.51100000000E-03 0.  1.
        -12    1    3    3    0    0 -0.16030491131E+02  0.11200431573E+02 -0.69353555211E+01  0.20749107680E+02  0.00000000000E+00 0.  1.
</event>
<event>
 7    1  0.1874105E-013  0.7246162E+02  0.7816164E-02  0.1226708E+00
        -11   -1    0    0    0    0  0.00000000000E+00  0.00000000000E+00  0.45593999997E+02  0.45594000000E+02  0.51100000000E-03 0.  1.
         11   -1    0    0    0    0 -0.00000000000E+00 -0.00000000000E+00 -0.45593999997E+02  0.45594000000E+02  0.51100000000E-03 0. -1.
    9900012    2    1    2    0    0 -0.13833491435E+01  0.14258331349E+02 -0.12060829600E+02  0.72461620789E+02  0.70000065778E+02 0.  0.
        -12    1    1    2    0    0  0.13833491435E+01 -0.14258331349E+02  0.12060829600E+02  0.18726379211E+02  0.00000000000E+00 0.  1.
         11    1    3    3    0    0 -0.15487249892E+02 -0.16467349947E+02 -0.25724042522E+02  0.34245509011E+02  0.51100000000E-03 0. -1.
        -11    1    3    3    0    0  0.75743726256E+01  0.18487030868E+02  0.19733143618E+01  0.20075741601E+02  0.51100000000E-03 0.  1.
         12    1    3    3    0    0  0.65295281231E+01  0.12238650428E+02  0.11689898560E+02  0.18140370177E+02  0.00000000000E+00 0. -1.
</event>
<event>
 7    1  0.1874105E-013  0.7246158E+02  0.7816164E-02  0.1226708E+00
        -11   -1    0    0    0    0  0.00000000000E+00  0.00000000000E+00  0.45593999997E+02  0.45594000000E+02  0.51100000000E-03 0.  1.
         11   -1    0    0    0    0 -0.00000000000E+00 -0.00000000000E+00 -0.45593999997E+02  0.45594000000E+02  0.51100000000E-03 0. -1.
    9900012    2    1    2    0    0 -0.10811994043E+02  0.14572568134E+02  0.46281509716E+01  0.72461581800E+02  0.70000014988E+02 0.  0.
        -12    1    1    2    0    0  0.10811994043E+02 -0.14572568134E+02 -0.46281509716E+01  0.18726418200E+02  0.00000000000E+00 0.  1.
         11    1    3    3    0    0  0.21451052680E+02  0.24087032842E+02 -0.11071980691E+02  0.34101635868E+02  0.51100000000E-03 0. -1.
        -11    1    3    3    0    0 -0.55105084770E+01 -0.80825044504E+00  0.69309509934E+01  0.88914033983E+01  0.51100000000E-03 0.  1.
         12    1    3    3    0    0 -0.26752538246E+02 -0.87062142632E+01  0.87691806693E+01  0.29468542533E+02  0.00000000000E+00 0. -1.
</event>
<event>
 7    1  0.1874105E-013  0.7246178E+02  0.7816164E-02  0.1226707E+00
        -11   -1    0    0    0    0  0.00000000000E+00  0.00000000000E+00  0.45593999997E+02  0.45594000000E+02  0.51100000000E-03 0.  1.
         11   -1    0    0    0    0 -0.00000000000E+00 -0.00000000000E+00 -0.45593999997E+02  0.45594000000E+02  0.51100000000E-03 0. -1.
    9900012    2    1    2    0    0 -0.74939974386E+01 -0.11083968187E+02 -0.13101797779E+02  0.72461776317E+02  0.70000268382E+02 0.  0.
        -12    1    1    2    0    0  0.74939974386E+01  0.11083968187E+02  0.13101797779E+02  0.18726223683E+02  0.00000000000E+00 0.  1.
         11    1    3    3    0    0 -0.14764961284E+02 -0.94567139777E+01 -0.82923064155E+00  0.17553379865E+02  0.51100000000E-03 0. -1.
        -11    1    3    3    0    0  0.26873108797E+02 -0.13253523438E+02 -0.11530546600E+02  0.32105659393E+02  0.51100000000E-03 0.  1.
        -12    1    3    3    0    0 -0.19602144952E+02  0.11626269228E+02 -0.74202053829E+00  0.22802737059E+02  0.00000000000E+00 0.  1.
</event>
<event>
 7    1  0.1874105E-013  0.7246155E+02  0.7816164E-02  0.1226708E+00
        -11   -1    0    0    0    0  0.00000000000E+00  0.00000000000E+00  0.45593999997E+02  0.45594000000E+02  0.51100000000E-03 0.  1.
         11   -1    0    0    0    0 -0.00000000000E+00 -0.00000000000E+00 -0.45593999997E+02  0.45594000000E+02  0.51100000000E-03 0. -1.
    9900012    2    1    2    0    0  0.11513638899E+02  0.25628450269E+01 -0.14544685853E+02  0.72461549672E+02  0.69999973135E+02 0.  0.
        -12    1    1    2    0    0 -0.11513638899E+02 -0.25628450269E+01  0.14544685853E+02  0.18726450328E+02  0.00000000000E+00 0.  1.
         11    1    3    3    0    0  0.81886554323E+01  0.11787927187E+02 -0.25420579173E+02  0.29192724280E+02  0.51100000000E-03 0. -1.
        -11    1    3    3    0    0 -0.97273009059E+01 -0.21646721881E+02  0.78617074200E+01  0.25000147898E+02  0.51100000000E-03 0.  1.
        -12    1    3    3    0    0  0.13052284373E+02  0.12421639722E+02  0.30141858995E+01  0.18268677494E+02  0.00000000000E+00 0.  1.
</event>
<event>
 7    1  0.1874105E-013  0.7246161E+02  0.7816164E-02  0.1226708E+00
        -11   -1    0    0    0    0  0.00000000000E+00  0.00000000000E+00  0.45593999997E+02  0.45594000000E+02  0.51100000000E-03 0. -1.
         11   -1    0    0    0    0 -0.00000000000E+00 -0.00000000000E+00 -0.45593999997E+02  0.45594000000E+02  0.51100000000E-03 0.  1.
    9900012    2    1    2    0    0 -0.18492434584E+02  0.28815513182E+01 -0.63591199632E+00  0.72461605288E+02  0.70000045585E+02 0.  0.
        -12    1    1    2    0    0  0.18492434584E+02 -0.28815513182E+01  0.63591199632E+00  0.18726394712E+02  0.00000000000E+00 0.  1.
         11    1    3    3    0    0 -0.50771634349E+01  0.19580421608E+02  0.26346600036E+02  0.33216168241E+02  0.51100000000E-03 0. -1.
        -11    1    3    3    0    0 -0.75203143549E+00 -0.14787832908E+02 -0.19248106834E+02  0.24284463559E+02  0.51100000000E-03 0.  1.
        -12    1    3    3    0    0 -0.12663239714E+02 -0.19110373816E+01 -0.77344051980E+01  0.14960973487E+02  0.00000000000E+00 0.  1.
</event>
<event>
 7    1  0.1874105E-013  0.7246158E+02  0.7816164E-02  0.1226708E+00
        -11   -1    0    0    0    0  0.00000000000E+00  0.00000000000E+00  0.45593999997E+02  0.45594000000E+02  0.51100000000E-03 0. -1.
         11   -1    0    0    0    0 -0.00000000000E+00 -0.00000000000E+00 -0.45593999997E+02  0.45594000000E+02  0.51100000000E-03 0.  1.
    9900012    2    1    2    0    0 -0.48553213476E+01  0.23217807754E+01  0.17936387028E+02  0.72461580402E+02  0.70000013167E+02 0.  0.
        -12    1    1    2    0    0  0.48553213476E+01 -0.23217807754E+01 -0.17936387028E+02  0.18726419598E+02  0.00000000000E+00 0.  1.
         11    1    3    3    0    0 -0.54089876294E+00  0.12302001800E+02 -0.15456540976E+02  0.19761995824E+02  0.51100000000E-03 0. -1.
        -11    1    3    3    0    0  0.15868444974E+02 -0.78267473283E+01  0.61613914647E+01  0.18735748308E+02  0.51100000000E-03 0.  1.
         12    1    3    3    0    0 -0.20182867558E+02 -0.21534736968E+01  0.27231536539E+02  0.33963836269E+02  0.00000000000E+00 0. -1.
</event>
<event>
 8    1  0.1874105E-013  0.7246153E+02  0.7816164E-02  0.1226708E+00
        -11   -1    0    0    0    0  0.00000000000E+00  0.00000000000E+00  0.45593999997E+02  0.45594000000E+02  0.51100000000E-03 0.  1.
         11   -1    0    0    0    0 -0.00000000000E+00 -0.00000000000E+00 -0.45593999997E+02  0.45594000000E+02  0.51100000000E-03 0. -1.
    9900012    2    1    2    0    0 -0.81450900188E+01 -0.69110909942E+00 -0.16848161754E+02  0.72461530026E+02  0.69999947543E+02 0.  0.
         24    2    3    3    0    0  0.34680704332E+00  0.26585226620E+01  0.46984465264E+01  0.49060917271E+02  0.48761769716E+02 0.  0.
        -12    1    1    2    0    0  0.81450900188E+01  0.69110909942E+00  0.16848161754E+02  0.18726469974E+02  0.00000000000E+00 0.  1.
         11    1    3    3    0    0 -0.84918970621E+01 -0.33496317615E+01 -0.21546608280E+02  0.23400612755E+02  0.51100000000E-03 0. -1.
        -11    1    4    4    0    0  0.80372519430E+01 -0.88630717750E+01  0.23108023117E+02  0.26021763828E+02  0.51100000000E-03 0.  1.
         12    1    4    4    0    0 -0.76904448997E+01  0.11521594437E+02 -0.18409576591E+02  0.23039153443E+02  0.00000000000E+00 0. -1.
</event>
<event>
 7    1  0.1874105E-013  0.7246163E+02  0.7816164E-02  0.1226708E+00
        -11   -1    0    0    0    0  0.00000000000E+00  0.00000000000E+00  0.45593999997E+02  0.45594000000E+02  0.51100000000E-03 0.  1.
         11   -1    0    0    0    0 -0.00000000000E+00 -0.00000000000E+00 -0.45593999997E+02  0.45594000000E+02  0.51100000000E-03 0. -1.
    9900012    2    1    2    0    0  0.71173897253E+01  0.13431482892E+02 -0.10936859342E+02  0.72461631921E+02  0.70000080280E+02 0.  0.
        -12    1    1    2    0    0 -0.71173897253E+01 -0.13431482892E+02  0.10936859342E+02  0.18726368079E+02  0.00000000000E+00 0.  1.
         11    1    3    3    0    0 -0.46371689422E+01 -0.14642786689E+02 -0.19353787443E+02  0.24707966862E+02  0.51100000000E-03 0. -1.
        -11    1    3    3    0    0  0.89939886493E+01  0.16158871138E+02  0.22484301909E+02  0.29112622364E+02  0.51100000000E-03 0.  1.
        -12    1    3    3    0    0  0.27605700182E+01  0.11915398443E+02 -0.14067373808E+02  0.18641042695E+02  0.00000000000E+00 0.  1.
</event>
<event>
 7    1  0.1874105E-013  0.7246157E+02  0.7816164E-02  0.1226708E+00
        -11   -1    0    0    0    0  0.00000000000E+00  0.00000000000E+00  0.45593999997E+02  0.45594000000E+02  0.51100000000E-03 0.  1.
         11   -1    0    0    0    0 -0.00000000000E+00 -0.00000000000E+00 -0.45593999997E+02  0.45594000000E+02  0.51100000000E-03 0. -1.
    9900012    2    1    2    0    0  0.15677524668E+02 -0.11570844832E+01 -0.10176226624E+02  0.72461569147E+02  0.69999998505E+02 0.  0.
        -12    1    1    2    0    0 -0.15677524668E+02  0.11570844832E+01  0.10176226624E+02  0.18726430853E+02  0.00000000000E+00 0.  1.
         11    1    3    3    0    0 -0.15890601291E+01  0.22193218766E+02 -0.10351152720E+02  0.24539976247E+02  0.51100000000E-03 0. -1.
        -11    1    3    3    0    0 -0.11471665802E+01 -0.30100324699E+01  0.15950527340E+02  0.16272541575E+02  0.51100000000E-03 0.  1.
         12    1    3    3    0    0  0.18413751377E+02 -0.20340270779E+02 -0.15775601244E+02  0.31649051325E+02  0.00000000000E+00 0. -1.
</event>
<event>
 7    1  0.1874105E-013  0.7246155E+02  0.7816164E-02  0.1226708E+00
        -11   -1    0    0    0    0  0.00000000000E+00  0.00000000000E+00  0.45593999997E+02  0.45594000000E+02  0.51100000000E-03 0.  1.
         11   -1    0    0    0    0 -0.00000000000E+00 -0.00000000000E+00 -0.45593999997E+02  0.45594000000E+02  0.51100000000E-03 0. -1.
    9900012    2    1    2    0    0  0.99721277695E+01 -0.15450315662E+02 -0.35389824128E+01  0.72461548579E+02  0.69999971712E+02 0.  0.
        -12    1    1    2    0    0 -0.99721277695E+01  0.15450315662E+02  0.35389824128E+01  0.18726451421E+02  0.00000000000E+00 0.  1.
         11    1    3    3    0    0  0.17353831285E+02 -0.21187050312E+01  0.15300577188E+02  0.23232564082E+02  0.51100000000E-03 0.  1.
        -11    1    3    3    0    0 -0.24903842353E+02 -0.12555351211E+02 -0.12711141973E+02  0.30649817920E+02  0.51100000000E-03 0. -1.
        -12    1    3    3    0    0  0.17522138837E+02 -0.77625941910E+00 -0.61284176273E+01  0.18579166578E+02  0.00000000000E+00 0.  1.
</event>
<event>
 7    1  0.1874105E-013  0.7246158E+02  0.7816164E-02  0.1226708E+00
        -11   -1    0    0    0    0  0.00000000000E+00  0.00000000000E+00  0.45593999997E+02  0.45594000000E+02  0.51100000000E-03 0.  1.
         11   -1    0    0    0    0 -0.00000000000E+00 -0.00000000000E+00 -0.45593999997E+02  0.45594000000E+02  0.51100000000E-03 0. -1.
    9900012    2    1    2    0    0 -0.20815797682E+01  0.13584564989E+02 -0.12720278625E+02  0.72461578330E+02  0.70000010468E+02 0.  0.
        -12    1    1    2    0    0  0.20815797682E+01 -0.13584564989E+02  0.12720278625E+02  0.18726421670E+02  0.00000000000E+00 0.  1.
         11    1    3    3    0    0 -0.15858181786E+02  0.46182651637E+00  0.16658700896E+02  0.23004511059E+02  0.51100000000E-03 0. -1.
        -11    1    3    3    0    0 -0.50096625159E+01  0.18833974899E+02 -0.19126281477E+02  0.27306225891E+02  0.51100000000E-03 0.  1.
        -12    1    3    3    0    0  0.18786264534E+02 -0.57112364264E+01 -0.10252698044E+02  0.22150841379E+02  0.00000000000E+00 0.  1.
</event>
<event>
 7    1  0.1874105E-013  0.7246157E+02  0.7816164E-02  0.1226708E+00
        -11   -1    0    0    0    0  0.00000000000E+00  0.00000000000E+00  0.45593999997E+02  0.45594000000E+02  0.51100000000E-03 0.  1.
         11   -1    0    0    0    0 -0.00000000000E+00 -0.00000000000E+00 -0.45593999997E+02  0.45594000000E+02  0.51100000000E-03 0. -1.
    9900012    2    1    2    0    0  0.16095166894E+02 -0.93487926665E+01  0.20554090755E+01  0.72461574069E+02  0.70000004917E+02 0.  0.
        -12    1    1    2    0    0 -0.16095166894E+02  0.93487926665E+01 -0.20554090755E+01  0.18726425931E+02  0.00000000000E+00 0.  1.
         11    1    3    3    0    0  0.39621560049E+02 -0.26423338684E+01 -0.14100318461E+01  0.39734596249E+02  0.51100000000E-03 0. -1.
        -11    1    3    3    0    0 -0.17937424229E+01 -0.56954419239E+01  0.85077960062E+01  0.10394140837E+02  0.51100000000E-03 0.  1.
         12    1    3    3    0    0 -0.21732650732E+02 -0.10110168741E+01 -0.50423550846E+01  0.22332836984E+02  0.00000000000E+00 0. -1.
</event>
<event>
 7    1  0.1874105E-013  0.7246154E+02  0.7816164E-02  0.1226708E+00
        -11   -1    0    0    0    0  0.00000000000E+00  0.00000000000E+00  0.45593999997E+02  0.45594000000E+02  0.51100000000E-03 0. -1.
         11   -1    0    0    0    0 -0.00000000000E+00 -0.00000000000E+00 -0.45593999997E+02  0.45594000000E+02  0.51100000000E-03 0.  1.
    9900012    2    1    2    0    0  0.32321019265E+01 -0.11383557072E+02  0.14513736992E+02  0.72461537015E+02  0.69999956647E+02 0.  0.
        -12    1    1    2    0    0 -0.32321019265E+01  0.11383557072E+02 -0.14513736992E+02  0.18726462985E+02  0.00000000000E+00 0.  1.
         11    1    3    3    0    0 -0.11701697992E+02 -0.33813387905E+02 -0.60426242857E+01  0.36287577020E+02  0.51100000000E-03 0. -1.
        -11    1    3    3    0    0  0.14033634063E+02  0.10067896857E+02  0.13413666926E+02  0.21868513731E+02  0.51100000000E-03 0.  1.
         12    1    3    3    0    0  0.90016585488E+00  0.12361933976E+02  0.71426943515E+01  0.14305446263E+02  0.00000000000E+00 0. -1.
</event>
<event>
 7    1  0.1874105E-013  0.7246157E+02  0.7816164E-02  0.1226708E+00
        -11   -1    0    0    0    0  0.00000000000E+00  0.00000000000E+00  0.45593999997E+02  0.45594000000E+02  0.51100000000E-03 0.  1.
         11   -1    0    0    0    0 -0.00000000000E+00 -0.00000000000E+00 -0.45593999997E+02  0.45594000000E+02  0.51100000000E-03 0. -1.
    9900012    2    1    2    0    0  0.13215119638E+02  0.34769733330E+01 -0.12804307895E+02  0.72461573985E+02  0.70000004808E+02 0.  0.
        -12    1    1    2    0    0 -0.13215119638E+02 -0.34769733330E+01  0.12804307895E+02  0.18726426015E+02  0.00000000000E+00 0.  1.
         11    1    3    3    0    0 -0.10552246102E+01  0.97398125003E+01 -0.12257094361E+02  0.15691201642E+02  0.51100000000E-03 0. -1.
        -11    1    3    3    0    0  0.32293132288E+02 -0.61788590140E+01  0.11790372256E+02  0.34929036200E+02  0.51100000000E-03 0.  1.
        -12    1    3    3    0    0 -0.18022788040E+02 -0.83980153228E-01 -0.12337585790E+02  0.21841336143E+02  0.00000000000E+00 0.  1.
</event>
<event>
 7    1  0.1874105E-013  0.7246162E+02  0.7816164E-02  0.1226708E+00
        -11   -1    0    0    0    0  0.00000000000E+00  0.00000000000E+00  0.45593999997E+02  0.45594000000E+02  0.51100000000E-03 0.  1.
         11   -1    0    0    0    0 -0.00000000000E+00 -0.00000000000E+00 -0.45593999997E+02  0.45594000000E+02  0.51100000000E-03 0. -1.
    9900012    2    1    2    0    0 -0.11061789173E+02  0.13613831070E+02 -0.65557371897E+01  0.72461621113E+02  0.70000066200E+02 0.  0.
        -12    1    1    2    0    0  0.11061789173E+02 -0.13613831070E+02  0.65557371897E+01  0.18726378887E+02  0.00000000000E+00 0.  1.
         11    1    3    3    0    0  0.14805822244E+02  0.10396430483E+02 -0.41254333423E+01  0.18555789922E+02  0.51100000000E-03 0. -1.
        -11    1    3    3    0    0 -0.20952613436E+02  0.20854667581E+02 -0.13512210458E+02  0.32503984393E+02  0.51100000000E-03 0.  1.
         12    1    3    3    0    0 -0.49149979821E+01 -0.17637266994E+02  0.11081906611E+02  0.21401846797E+02  0.00000000000E+00 0. -1.
</event>
<event>
 7    1  0.1874105E-013  0.7246155E+02  0.7816164E-02  0.1226708E+00
        -11   -1    0    0    0    0  0.00000000000E+00  0.00000000000E+00  0.45593999997E+02  0.45594000000E+02  0.51100000000E-03 0.  1.
         11   -1    0    0    0    0 -0.00000000000E+00 -0.00000000000E+00 -0.45593999997E+02  0.45594000000E+02  0.51100000000E-03 0. -1.
    9900012    2    1    2    0    0  0.17531096052E+02  0.64198979136E+01  0.14579399625E+01  0.72461547935E+02  0.69999970873E+02 0.  0.
        -12    1    1    2    0    0 -0.17531096052E+02 -0.64198979136E+01 -0.14579399625E+01  0.18726452065E+02  0.00000000000E+00 0.  1.
         11    1    3    3    0    0  0.14654750001E+02 -0.53261775916E+01 -0.16960008006E+02  0.23038483829E+02  0.51100000000E-03 0. -1.
        -11    1    3    3    0    0  0.10835496860E+02  0.22378511685E+02  0.24418290226E+02  0.34849084281E+02  0.51100000000E-03 0.  1.
        -12    1    3    3    0    0 -0.79591508095E+01 -0.10632436179E+02 -0.60003422577E+01  0.14573979825E+02  0.00000000000E+00 0.  1.
</event>
<event>
 7    1  0.1874105E-013  0.7246164E+02  0.7816164E-02  0.1226708E+00
        -11   -1    0    0    0    0  0.00000000000E+00  0.00000000000E+00  0.45593999997E+02  0.45594000000E+02  0.51100000000E-03 0. -1.
         11   -1    0    0    0    0 -0.00000000000E+00 -0.00000000000E+00 -0.45593999997E+02  0.45594000000E+02  0.51100000000E-03 0.  1.
    9900012    2    1    2    0    0  0.14124626144E+02  0.73516051380E+01  0.98552222135E+01  0.72461639791E+02  0.70000090532E+02 0.  0.
        -12    1    1    2    0    0 -0.14124626144E+02 -0.73516051380E+01 -0.98552222135E+01  0.18726360209E+02  0.00000000000E+00 0.  1.
         11    1    3    3    0    0  0.16350918017E+02  0.28234383608E+02 -0.14430608328E+02  0.35675977838E+02  0.51100000000E-03 0. -1.
        -11    1    3    3    0    0 -0.64911618892E+01 -0.12743507657E+02  0.23569195125E+02  0.27568807178E+02  0.51100000000E-03 0.  1.
         12    1    3    3    0    0  0.42648700159E+01 -0.81392708131E+01  0.71663541587E+00  0.92168547748E+01  0.00000000000E+00 0. -1.
</event>
<event>
 7    1  0.1874105E-013  0.7246125E+02  0.7816164E-02  0.1226709E+00
        -11   -1    0    0    0    0  0.00000000000E+00  0.00000000000E+00  0.45593999997E+02  0.45594000000E+02  0.51100000000E-03 0.  1.
         11   -1    0    0    0    0 -0.00000000000E+00 -0.00000000000E+00 -0.45593999997E+02  0.45594000000E+02  0.51100000000E-03 0. -1.
    9900012    2    1    2    0    0 -0.76473456809E+01  0.15727174838E+02  0.66981512348E+01  0.72461250300E+02  0.69999583147E+02 0.  0.
        -12    1    1    2    0    0  0.76473456809E+01 -0.15727174838E+02 -0.66981512348E+01  0.18726749700E+02  0.00000000000E+00 0.  1.
         11    1    3    3    0    0 -0.14983703595E+02  0.43569601545E+01 -0.97504203009E+01  0.18400140530E+02  0.51100000000E-03 0. -1.
        -11    1    3    3    0    0  0.98748265923E+01 -0.18712638553E+02  0.47569002170E+01  0.21686473706E+02  0.51100000000E-03 0.  1.
        -12    1    3    3    0    0 -0.25384686778E+01  0.30082853237E+02  0.11691671319E+02  0.32374636065E+02  0.00000000000E+00 0.  1.
</event>
<event>
 7    1  0.1874105E-013  0.7246156E+02  0.7816164E-02  0.1226708E+00
        -11   -1    0    0    0    0  0.00000000000E+00  0.00000000000E+00  0.45593999997E+02  0.45594000000E+02  0.51100000000E-03 0.  1.
         11   -1    0    0    0    0 -0.00000000000E+00 -0.00000000000E+00 -0.45593999997E+02  0.45594000000E+02  0.51100000000E-03 0. -1.
    9900012    2    1    2    0    0 -0.85530712655E+00 -0.17714353944E+02 -0.60124636575E+01  0.72461558663E+02  0.69999984847E+02 0.  0.
        -12    1    1    2    0    0  0.85530712655E+00  0.17714353944E+02  0.60124636575E+01  0.18726441337E+02  0.00000000000E+00 0.  1.
         11    1    3    3    0    0  0.60094998658E+01 -0.14385299449E+02  0.12186610603E+02  0.19787986434E+02  0.51100000000E-03 0. -1.
        -11    1    3    3    0    0  0.15432057070E+02  0.70320482618E+01 -0.22018216497E+02  0.27792084235E+02  0.51100000000E-03 0.  1.
        -12    1    3    3    0    0 -0.22296864062E+02 -0.10361102757E+02  0.38191422365E+01  0.24881487993E+02  0.00000000000E+00 0.  1.
</event>
<event>
 7    1  0.1874105E-013  0.7246157E+02  0.7816164E-02  0.1226708E+00
        -11   -1    0    0    0    0  0.00000000000E+00  0.00000000000E+00  0.45593999997E+02  0.45594000000E+02  0.51100000000E-03 0. -1.
         11   -1    0    0    0    0 -0.00000000000E+00 -0.00000000000E+00 -0.45593999997E+02  0.45594000000E+02  0.51100000000E-03 0.  1.
    9900012    2    1    2    0    0  0.65698815640E+01  0.89399559555E+01  0.15086192183E+02  0.72461565453E+02  0.69999993693E+02 0.  0.
        -12    1    1    2    0    0 -0.65698815640E+01 -0.89399559555E+01 -0.15086192183E+02  0.18726434547E+02  0.00000000000E+00 0.  1.
         11    1    3    3    0    0  0.14101834961E+02  0.36865235678E+02  0.17790943491E+02  0.43294630399E+02  0.51100000000E-03 0. -1.
        -11    1    3    3    0    0 -0.31431415480E+01 -0.13698151759E+02 -0.11441945974E+00  0.14054600403E+02  0.51100000000E-03 0.  1.
         12    1    3    3    0    0 -0.43888118491E+01 -0.14227127963E+02 -0.25903318481E+01  0.15112334651E+02  0.00000000000E+00 0. -1.
</event>
<event>
 7    1  0.1874105E-013  0.7246145E+02  0.7816164E-02  0.1226708E+00
        -11   -1    0    0    0    0  0.00000000000E+00  0.00000000000E+00  0.45593999997E+02  0.45594000000E+02  0.51100000000E-03 0. -1.
         11   -1    0    0    0    0 -0.00000000000E+00 -0.00000000000E+00 -0.45593999997E+02  0.45594000000E+02  0.51100000000E-03 0.  1.
    9900012    2    1    2    0    0 -0.17030700759E+02  0.57825604368E+01  0.52154558387E+01  0.72461447910E+02  0.69999840572E+02 0.  0.
        -12    1    1    2    0    0  0.17030700759E+02 -0.57825604368E+01 -0.52154558387E+01  0.18726552090E+02  0.00000000000E+00 0.  1.
         11    1    3    3    0    0  0.19886881998E+00  0.22640291260E+02  0.12410666306E+01  0.22675153446E+02  0.51100000000E-03 0. -1.
        -11    1    3    3    0    0 -0.29260100959E+02 -0.46018631644E+01  0.10483568661E+02  0.31420309751E+02  0.51100000000E-03 0.  1.
         12    1    3    3    0    0  0.12030531379E+02 -0.12255867659E+02 -0.65091794533E+01  0.18365984714E+02  0.00000000000E+00 0. -1.
</event>
<event>
 7    1  0.1874105E-013  0.7246153E+02  0.7816164E-02  0.1226708E+00
        -11   -1    0    0    0    0  0.00000000000E+00  0.00000000000E+00  0.45593999997E+02  0.45594000000E+02  0.51100000000E-03 0.  1.
         11   -1    0    0    0    0 -0.00000000000E+00 -0.00000000000E+00 -0.45593999997E+02  0.45594000000E+02  0.51100000000E-03 0. -1.
    9900012    2    1    2    0    0  0.93009974768E+01 -0.13453304031E+02  0.91203524372E+01  0.72461527508E+02  0.69999944262E+02 0.  0.
        -12    1    1    2    0    0 -0.93009974768E+01  0.13453304031E+02 -0.91203524372E+01  0.18726472492E+02  0.00000000000E+00 0.  1.
         11    1    3    3    0    0  0.20502138220E+02 -0.20156121569E+02 -0.11382256487E+02  0.30921880138E+02  0.51100000000E-03 0. -1.
        -11    1    3    3    0    0 -0.12898426609E+02  0.13406200860E+02 -0.13173230886E+01  0.18650227099E+02  0.51100000000E-03 0.  1.
         12    1    3    3    0    0  0.16972858659E+01 -0.67033833218E+01  0.21819932012E+02  0.22889420270E+02  0.00000000000E+00 0. -1.
</event>
<event>
 7    1  0.1874105E-013  0.7246159E+02  0.7816164E-02  0.1226708E+00
        -11   -1    0    0    0    0  0.00000000000E+00  0.00000000000E+00  0.45593999997E+02  0.45594000000E+02  0.51100000000E-03 0.  1.
         11   -1    0    0    0    0 -0.00000000000E+00 -0.00000000000E+00 -0.45593999997E+02  0.45594000000E+02  0.51100000000E-03 0. -1.
    9900012    2    1    2    0    0  0.57533052536E+01  0.30013142557E+00 -0.17818186897E+02  0.72461591254E+02  0.70000027304E+02 0.  0.
        -12    1    1    2    0    0 -0.57533052536E+01 -0.30013142557E+00  0.17818186897E+02  0.18726408746E+02  0.00000000000E+00 0.  1.
         11    1    3    3    0    0 -0.27807276229E+00  0.21100790673E+02 -0.16528913374E+02  0.26805329118E+02  0.51100000000E-03 0. -1.
        -11    1    3    3    0    0  0.13511600211E+02 -0.15734056770E+02 -0.17474779527E+02  0.27119952111E+02  0.51100000000E-03 0.  1.
        -12    1    3    3    0    0 -0.74802221948E+01 -0.50666024776E+01  0.16185506004E+02  0.18536310026E+02  0.00000000000E+00 0.  1.
</event>
<event>
 7    1  0.1874105E-013  0.7246113E+02  0.7816164E-02  0.1226709E+00
        -11   -1    0    0    0    0  0.00000000000E+00  0.00000000000E+00  0.45593999997E+02  0.45594000000E+02  0.51100000000E-03 0.  1.
         11   -1    0    0    0    0 -0.00000000000E+00 -0.00000000000E+00 -0.45593999997E+02  0.45594000000E+02  0.51100000000E-03 0. -1.
    9900012    2    1    2    0    0  0.40698137425E+00 -0.15701878451E+02 -0.10197105001E+02  0.72461132373E+02  0.69999429523E+02 0.  0.
        -12    1    1    2    0    0 -0.40698137425E+00  0.15701878451E+02  0.10197105001E+02  0.18726867627E+02  0.00000000000E+00 0.  1.
         11    1    3    3    0    0 -0.25174460139E+02 -0.19390408102E+02 -0.11094452888E+02  0.33657514091E+02  0.51100000000E-03 0. -1.
        -11    1    3    3    0    0  0.73234978295E+01  0.14844168358E+02 -0.36009584554E+01  0.16939594351E+02  0.51100000000E-03 0.  1.
         12    1    3    3    0    0  0.18257943683E+02 -0.11155638707E+02  0.44983063418E+01  0.21864023931E+02  0.00000000000E+00 0. -1.
</event>
<event>
 7    1  0.1874105E-013  0.7246157E+02  0.7816164E-02  0.1226708E+00
        -11   -1    0    0    0    0  0.00000000000E+00  0.00000000000E+00  0.45593999997E+02  0.45594000000E+02  0.51100000000E-03 0.  1.
         11   -1    0    0    0    0 -0.00000000000E+00 -0.00000000000E+00 -0.45593999997E+02  0.45594000000E+02  0.51100000000E-03 0. -1.
    9900012    2    1    2    0    0  0.17467533425E+02  0.48854537653E+01 -0.46579897245E+01  0.72461568126E+02  0.69999997175E+02 0.  0.
        -12    1    1    2    0    0 -0.17467533425E+02 -0.48854537653E+01  0.46579897245E+01  0.18726431874E+02  0.00000000000E+00 0.  1.
         11    1    3    3    0    0 -0.20690385310E+02  0.84717403069E+01  0.87281276121E+01  0.24000888317E+02  0.51100000000E-03 0. -1.
        -11    1    3    3    0    0  0.24891485876E+02  0.66620276210E+01  0.18144842446E+01  0.25831396294E+02  0.51100000000E-03 0.  1.
         12    1    3    3    0    0  0.13266432859E+02 -0.10248314163E+02 -0.15200601581E+02  0.22629283515E+02  0.00000000000E+00 0. -1.
</event>
<event>
 7    1  0.1874105E-013  0.7246154E+02  0.7816164E-02  0.1226708E+00
        -11   -1    0    0    0    0  0.00000000000E+00  0.00000000000E+00  0.45593999997E+02  0.45594000000E+02  0.51100000000E-03 0. -1.
         11   -1    0    0    0    0 -0.00000000000E+00 -0.00000000000E+00 -0.45593999997E+02  0.45594000000E+02  0.51100000000E-03 0.  1.
    9900012    2    1    2    0    0  0.13749257491E+02  0.12630668354E+02  0.14507269596E+01  0.72461535482E+02  0.69999954651E+02 0.  0.
        -12    1    1    2    0    0 -0.13749257491E+02 -0.12630668354E+02 -0.14507269596E+01  0.18726464518E+02  0.00000000000E+00 0.  1.
         11    1    3    3    0    0 -0.14812786099E+02 -0.18467861126E+02 -0.26002749100E+01  0.23816841866E+02  0.51100000000E-03 0. -1.
        -11    1    3    3    0    0  0.42247557846E+01  0.90565892604E+01 -0.88666194714E+01  0.13359914355E+02  0.51100000000E-03 0.  1.
         12    1    3    3    0    0  0.24337287806E+02  0.22041940220E+02  0.12917621341E+02  0.35284779261E+02  0.00000000000E+00 0. -1.
</event>
<event>
 7    1  0.1874105E-013  0.7246157E+02  0.7816164E-02  0.1226708E+00
        -11   -1    0    0    0    0  0.00000000000E+00  0.00000000000E+00  0.45593999997E+02  0.45594000000E+02  0.51100000000E-03 0. -1.
         11   -1    0    0    0    0 -0.00000000000E+00 -0.00000000000E+00 -0.45593999997E+02  0.45594000000E+02  0.51100000000E-03 0.  1.
    9900012    2    1    2    0    0  0.84703889774E+01 -0.12593290130E+02  0.10969993988E+02  0.72461569111E+02  0.69999998459E+02 0.  0.
        -12    1    1    2    0    0 -0.84703889774E+01  0.12593290130E+02 -0.10969993988E+02  0.18726430889E+02  0.00000000000E+00 0.  1.
         11    1    3    3    0    0 -0.40946509341E+01 -0.12165881240E+02  0.37274973818E+02  0.39423324391E+02  0.51100000000E-03 0. -1.
        -11    1    3    3    0    0 -0.25920898666E+01  0.25322420060E+01 -0.97340516486E+01  0.10386671325E+02  0.51100000000E-03 0.  1.
         12    1    3    3    0    0  0.15157129778E+02 -0.29596508955E+01 -0.16570928181E+02  0.22651573396E+02  0.00000000000E+00 0. -1.
</event>
<event>
 7    1  0.1874105E-013  0.7246158E+02  0.7816164E-02  0.1226708E+00
        -11   -1    0    0    0    0  0.00000000000E+00  0.00000000000E+00  0.45593999997E+02  0.45594000000E+02  0.51100000000E-03 0. -1.
         11   -1    0    0    0    0 -0.00000000000E+00 -0.00000000000E+00 -0.45593999997E+02  0.45594000000E+02  0.51100000000E-03 0.  1.
    9900012    2    1    2    0    0  0.15878462596E+02 -0.41449557421E+01  0.90206776474E+01  0.72461578619E+02  0.70000010844E+02 0.  0.
        -12    1    1    2    0    0 -0.15878462596E+02  0.41449557421E+01 -0.90206776474E+01  0.18726421381E+02  0.00000000000E+00 0.  1.
         11    1    3    3    0    0 -0.19361261423E+02  0.16530654460E+02  0.10649734747E+02  0.27595974910E+02  0.51100000000E-03 0. -1.
        -11    1    3    3    0    0  0.32694159645E+02 -0.10675321314E+02  0.15554036921E+00  0.34393237026E+02  0.51100000000E-03 0.  1.
         12    1    3    3    0    0  0.25455643739E+01 -0.10000288888E+02 -0.17845974690E+01  0.10472366683E+02  0.00000000000E+00 0. -1.
</event>
<event>
 7    1  0.1874105E-013  0.7246170E+02  0.7816164E-02  0.1226708E+00
        -11   -1    0    0    0    0  0.00000000000E+00  0.00000000000E+00  0.45593999997E+02  0.45594000000E+02  0.51100000000E-03 0.  1.
         11   -1    0    0    0    0 -0.00000000000E+00 -0.00000000000E+00 -0.45593999997E+02  0.45594000000E+02  0.51100000000E-03 0. -1.
    9900012    2    1    2    0    0  0.13421087754E+02  0.10360899290E+01 -0.13018264204E+02  0.72461700800E+02  0.70000170007E+02 0.  0.
        -12    1    1    2    0    0 -0.13421087754E+02 -0.10360899290E+01  0.13018264204E+02  0.18726299200E+02  0.00000000000E+00 0.  1.
         11    1    3    3    0    0  0.29430076217E+02 -0.22330702219E+00  0.76566344407E+01  0.30410578808E+02  0.51100000000E-03 0. -1.
        -11    1    3    3    0    0 -0.73257431875E+01  0.17071915698E+02 -0.10386943280E+02  0.21283923741E+02  0.51100000000E-03 0.  1.
         12    1    3    3    0    0 -0.86832452758E+01 -0.15812518747E+02 -0.10287955365E+02  0.20767198252E+02  0.00000000000E+00 0. -1.
</event>
<event>
 7    1  0.1874105E-013  0.7246160E+02  0.7816164E-02  0.1226708E+00
        -11   -1    0    0    0    0  0.00000000000E+00  0.00000000000E+00  0.45593999997E+02  0.45594000000E+02  0.51100000000E-03 0.  1.
         11   -1    0    0    0    0 -0.00000000000E+00 -0.00000000000E+00 -0.45593999997E+02  0.45594000000E+02  0.51100000000E-03 0. -1.
    9900012    2    1    2    0    0  0.46993188392E+01  0.11871146583E+02 -0.13699277327E+02  0.72461603710E+02  0.70000043530E+02 0.  0.
        -12    1    1    2    0    0 -0.46993188392E+01 -0.11871146583E+02  0.13699277327E+02  0.18726396290E+02  0.00000000000E+00 0.  1.
         11    1    3    3    0    0  0.42187910991E+01 -0.28891873938E+01 -0.38464175898E+02  0.38802557003E+02  0.51100000000E-03 0. -1.
        -11    1    3    3    0    0  0.23109818323E+01  0.17287674724E+02  0.13747000096E+02  0.22207754192E+02  0.51100000000E-03 0.  1.
         12    1    3    3    0    0 -0.18304540923E+01 -0.25273407467E+01  0.11017898476E+02  0.11451292515E+02  0.00000000000E+00 0. -1.
</event>
<event>
 7    1  0.1874105E-013  0.7246159E+02  0.7816164E-02  0.1226708E+00
        -11   -1    0    0    0    0  0.00000000000E+00  0.00000000000E+00  0.45593999997E+02  0.45594000000E+02  0.51100000000E-03 0. -1.
         11   -1    0    0    0    0 -0.00000000000E+00 -0.00000000000E+00 -0.45593999997E+02  0.45594000000E+02  0.51100000000E-03 0.  1.
    9900012    2    1    2    0    0  0.10072385790E+02 -0.15664919338E+02  0.19585192291E+01  0.72461589481E+02  0.70000024994E+02 0.  0.
        -12    1    1    2    0    0 -0.10072385790E+02  0.15664919338E+02 -0.19585192291E+01  0.18726410519E+02  0.00000000000E+00 0.  1.
         11    1    3    3    0    0  0.40591533790E+01 -0.31332442339E+01  0.21194142995E+02  0.21805633289E+02  0.51100000000E-03 0. -1.
        -11    1    3    3    0    0  0.22870670703E+02 -0.14060878688E+02 -0.20356572829E+02  0.33692223814E+02  0.51100000000E-03 0.  1.
         12    1    3    3    0    0 -0.16857438293E+02  0.15292035838E+01  0.11209490630E+01  0.16963732378E+02  0.00000000000E+00 0. -1.
</event>
<event>
 7    1  0.1874105E-013  0.7246160E+02  0.7816164E-02  0.1226708E+00
        -11   -1    0    0    0    0  0.00000000000E+00  0.00000000000E+00  0.45593999997E+02  0.45594000000E+02  0.51100000000E-03 0.  1.
         11   -1    0    0    0    0 -0.00000000000E+00 -0.00000000000E+00 -0.45593999997E+02  0.45594000000E+02  0.51100000000E-03 0. -1.
    9900012    2    1    2    0    0  0.13181311630E+02 -0.13119121720E+02  0.21954270261E+01  0.72461595358E+02  0.70000032650E+02 0.  0.
        -12    1    1    2    0    0 -0.13181311630E+02  0.13119121720E+02 -0.21954270261E+01  0.18726404642E+02  0.00000000000E+00 0.  1.
         11    1    3    3    0    0  0.12525431816E+02  0.11651111621E+02 -0.26463721185E+01  0.17310058632E+02  0.51100000000E-03 0. -1.
        -11    1    3    3    0    0  0.69093012732E+01 -0.38415801776E+02 -0.99895971313E+00  0.39044976514E+02  0.51100000000E-03 0.  1.
        -12    1    3    3    0    0 -0.62534214590E+01  0.13645568435E+02  0.58407588577E+01  0.16106560213E+02  0.00000000000E+00 0.  1.
</event>
<event>
 7    1  0.1874105E-013  0.7246156E+02  0.7816164E-02  0.1226708E+00
        -11   -1    0    0    0    0  0.00000000000E+00  0.00000000000E+00  0.45593999997E+02  0.45594000000E+02  0.51100000000E-03 0. -1.
         11   -1    0    0    0    0 -0.00000000000E+00 -0.00000000000E+00 -0.45593999997E+02  0.45594000000E+02  0.51100000000E-03 0.  1.
    9900012    2    1    2    0    0 -0.26522283436E+01 -0.82689672688E+01  0.16591248906E+02  0.72461556794E+02  0.69999982414E+02 0.  0.
        -12    1    1    2    0    0  0.26522283436E+01  0.82689672688E+01 -0.16591248906E+02  0.18726443206E+02  0.00000000000E+00 0.  1.
         11    1    3    3    0    0 -0.13548928176E+01  0.14077740857E+02 -0.60660741977E+01  0.15388819923E+02  0.51100000000E-03 0. -1.
        -11    1    3    3    0    0  0.11775183672E+02 -0.26418595904E+02 -0.18680142748E+01  0.28984248095E+02  0.51100000000E-03 0.  1.
        -12    1    3    3    0    0 -0.13072519198E+02  0.40718877780E+01  0.24525337378E+02  0.28088488777E+02  0.00000000000E+00 0.  1.
</event>
<event>
 7    1  0.1874105E-013  0.7246152E+02  0.7816164E-02  0.1226708E+00
        -11   -1    0    0    0    0  0.00000000000E+00  0.00000000000E+00  0.45593999997E+02  0.45594000000E+02  0.51100000000E-03 0. -1.
         11   -1    0    0    0    0 -0.00000000000E+00 -0.00000000000E+00 -0.45593999997E+02  0.45594000000E+02  0.51100000000E-03 0.  1.
    9900012    2    1    2    0    0 -0.15763556817E+02 -0.88528912480E+01 -0.48803327858E+01  0.72461519950E+02  0.69999934417E+02 0.  0.
        -12    1    1    2    0    0  0.15763556817E+02  0.88528912480E+01  0.48803327858E+01  0.18726480050E+02  0.00000000000E+00 0.  1.
         11    1    3    3    0    0  0.21555071295E+02  0.17671249022E+01 -0.16386922449E+01  0.21689378540E+02  0.51100000000E-03 0. -1.
        -11    1    3    3    0    0 -0.31401951390E+02 -0.19692740969E+02  0.46698271705E+01  0.37358986657E+02  0.51100000000E-03 0.  1.
        -12    1    3    3    0    0 -0.59166767208E+01  0.90727248189E+01 -0.79114677114E+01  0.13413154752E+02  0.00000000000E+00 0.  1.
</event>
<event>
 7    1  0.1874105E-013  0.7246154E+02  0.7816164E-02  0.1226708E+00
        -11   -1    0    0    0    0  0.00000000000E+00  0.00000000000E+00  0.45593999997E+02  0.45594000000E+02  0.51100000000E-03 0.  1.
         11   -1    0    0    0    0 -0.00000000000E+00 -0.00000000000E+00 -0.45593999997E+02  0.45594000000E+02  0.51100000000E-03 0. -1.
    9900012    2    1    2    0    0 -0.14751150148E+02  0.82193052618E+01 -0.80948788981E+01  0.72461535463E+02  0.69999954626E+02 0.  0.
        -12    1    1    2    0    0  0.14751150148E+02 -0.82193052618E+01  0.80948788981E+01  0.18726464537E+02  0.00000000000E+00 0.  1.
         11    1    3    3    0    0 -0.36308254089E+02  0.13848888458E+02 -0.38734710956E+01  0.39052334182E+02  0.51100000000E-03 0. -1.
        -11    1    3    3    0    0  0.21481938375E+02  0.29202385526E+01  0.34131923003E+01  0.21946556711E+02  0.51100000000E-03 0.  1.
         12    1    3    3    0    0  0.75165565776E-01 -0.85498217488E+01 -0.76346001028E+01  0.11462644570E+02  0.00000000000E+00 0. -1.
</event>
<event>
 7    1  0.1874105E-013  0.7246149E+02  0.7816164E-02  0.1226708E+00
        -11   -1    0    0    0    0  0.00000000000E+00  0.00000000000E+00  0.45593999997E+02  0.45594000000E+02  0.51100000000E-03 0.  1.
         11   -1    0    0    0    0 -0.00000000000E+00 -0.00000000000E+00 -0.45593999997E+02  0.45594000000E+02  0.51100000000E-03 0. -1.
    9900012    2    1    2    0    0  0.18536044623E+02 -0.23210199505E+01 -0.13077001514E+01  0.72461490353E+02  0.69999895861E+02 0.  0.
        -12    1    1    2    0    0 -0.18536044623E+02  0.23210199505E+01  0.13077001514E+01  0.18726509647E+02  0.00000000000E+00 0.  1.
         11    1    3    3    0    0  0.67066269391E+01 -0.23611485885E+02  0.32562315936E+01  0.24760536243E+02  0.51100000000E-03 0. -1.
        -11    1    3    3    0    0 -0.65935036928E+01  0.24015813797E+02 -0.12003829204E+02  0.27646437729E+02  0.51100000000E-03 0.  1.
        -12    1    3    3    0    0  0.18422921377E+02 -0.27253478628E+01  0.74398974594E+01  0.20054516380E+02  0.00000000000E+00 0.  1.
</event>
<event>
 7    1  0.1874105E-013  0.7246141E+02  0.7816164E-02  0.1226708E+00
        -11   -1    0    0    0    0  0.00000000000E+00  0.00000000000E+00  0.45593999997E+02  0.45594000000E+02  0.51100000000E-03 0. -1.
         11   -1    0    0    0    0 -0.00000000000E+00 -0.00000000000E+00 -0.45593999997E+02  0.45594000000E+02  0.51100000000E-03 0.  1.
    9900012    2    1    2    0    0  0.94477547617E+01 -0.17129393279E+01  0.16077656409E+02  0.72461407497E+02  0.69999787926E+02 0.  0.
        -12    1    1    2    0    0 -0.94477547617E+01  0.17129393279E+01 -0.16077656409E+02  0.18726592503E+02  0.00000000000E+00 0.  1.
         11    1    3    3    0    0  0.34037497179E+02  0.28178755490E+00  0.80032052766E+01  0.34966868796E+02  0.51100000000E-03 0. -1.
        -11    1    3    3    0    0 -0.14998876204E+02  0.85071519691E+01  0.13877188085E+02  0.22134007125E+02  0.51100000000E-03 0.  1.
        -12    1    3    3    0    0 -0.95908662129E+01 -0.10501878852E+02 -0.58027369526E+01  0.15360531575E+02  0.00000000000E+00 0.  1.
</event>
<event>
 7    1  0.1874105E-013  0.7246162E+02  0.7816164E-02  0.1226708E+00
        -11   -1    0    0    0    0  0.00000000000E+00  0.00000000000E+00  0.45593999997E+02  0.45594000000E+02  0.51100000000E-03 0. -1.
         11   -1    0    0    0    0 -0.00000000000E+00 -0.00000000000E+00 -0.45593999997E+02  0.45594000000E+02  0.51100000000E-03 0.  1.
    9900012    2    1    2    0    0  0.91874107309E+01 -0.16138515863E+02  0.24118795230E+01  0.72461618261E+02  0.70000062486E+02 0.  0.
        -12    1    1    2    0    0 -0.91874107309E+01  0.16138515863E+02 -0.24118795230E+01  0.18726381739E+02  0.00000000000E+00 0.  1.
         11    1    3    3    0    0 -0.32837132051E+01 -0.26011854277E+02 -0.20312653892E+02  0.33166296805E+02  0.51100000000E-03 0.  1.
        -11    1    3    3    0    0  0.21388887531E+02  0.85665652373E+01  0.16040300655E+02  0.28074219405E+02  0.51100000000E-03 0. -1.
         12    1    3    3    0    0 -0.89177635954E+01  0.13067731768E+01  0.66842327595E+01  0.11221102052E+02  0.00000000000E+00 0. -1.
</event>
<event>
 7    1  0.1874105E-013  0.7246156E+02  0.7816164E-02  0.1226708E+00
        -11   -1    0    0    0    0  0.00000000000E+00  0.00000000000E+00  0.45593999997E+02  0.45594000000E+02  0.51100000000E-03 0. -1.
         11   -1    0    0    0    0 -0.00000000000E+00 -0.00000000000E+00 -0.45593999997E+02  0.45594000000E+02  0.51100000000E-03 0.  1.
    9900012    2    1    2    0    0  0.11549545517E+02 -0.18566956314E+01  0.14623280448E+02  0.72461557429E+02  0.69999983240E+02 0.  0.
        -12    1    1    2    0    0 -0.11549545517E+02  0.18566956314E+01 -0.14623280448E+02  0.18726442571E+02  0.00000000000E+00 0.  1.
         11    1    3    3    0    0  0.97335275523E+01  0.28701495650E+02  0.80990121956E+00  0.30317871815E+02  0.51100000000E-03 0. -1.
        -11    1    3    3    0    0  0.37736542248E+00 -0.27459048105E+02  0.20744453533E+02  0.34416189216E+02  0.51100000000E-03 0.  1.
         12    1    3    3    0    0  0.14386525422E+01 -0.30991431760E+01 -0.69310743044E+01  0.77274963977E+01  0.00000000000E+00 0. -1.
</event>
<event>
 7    1  0.1874105E-013  0.7246154E+02  0.7816164E-02  0.1226708E+00
        -11   -1    0    0    0    0  0.00000000000E+00  0.00000000000E+00  0.45593999997E+02  0.45594000000E+02  0.51100000000E-03 0.  1.
         11   -1    0    0    0    0 -0.00000000000E+00 -0.00000000000E+00 -0.45593999997E+02  0.45594000000E+02  0.51100000000E-03 0. -1.
    9900012    2    1    2    0    0  0.90415963094E+01 -0.88717784542E+01 -0.13792077363E+02  0.72461539717E+02  0.69999960167E+02 0.  0.
        -12    1    1    2    0    0 -0.90415963094E+01  0.88717784542E+01  0.13792077363E+02  0.18726460283E+02  0.00000000000E+00 0.  1.
         11    1    3    3    0    0  0.32695928835E+02 -0.71855413449E+01  0.87646078942E+01  0.34604538989E+02  0.51100000000E-03 0. -1.
        -11    1    3    3    0    0 -0.13774085653E+02  0.70672766131E+01 -0.58151365523E+01  0.16537461948E+02  0.51100000000E-03 0.  1.
         12    1    3    3    0    0 -0.98802468728E+01 -0.87535137224E+01 -0.16741548705E+02  0.21319538780E+02  0.00000000000E+00 0. -1.
</event>
<event>
 7    1  0.1874105E-013  0.7246155E+02  0.7816164E-02  0.1226708E+00
        -11   -1    0    0    0    0  0.00000000000E+00  0.00000000000E+00  0.45593999997E+02  0.45594000000E+02  0.51100000000E-03 0. -1.
         11   -1    0    0    0    0 -0.00000000000E+00 -0.00000000000E+00 -0.45593999997E+02  0.45594000000E+02  0.51100000000E-03 0.  1.
    9900012    2    1    2    0    0 -0.12983584829E+02 -0.12769931280E+01  0.13434128274E+02  0.72461548416E+02  0.69999971499E+02 0.  0.
        -12    1    1    2    0    0  0.12983584829E+02  0.12769931280E+01 -0.13434128274E+02  0.18726451584E+02  0.00000000000E+00 0.  1.
         11    1    3    3    0    0 -0.12246715634E+01  0.23723499107E+02  0.12677946011E+02  0.26926465524E+02  0.51100000000E-03 0. -1.
        -11    1    3    3    0    0 -0.77231812775E+01 -0.22488770013E+02 -0.15642125637E+02  0.28461700590E+02  0.51100000000E-03 0.  1.
        -12    1    3    3    0    0 -0.40357319881E+01 -0.25117222216E+01  0.16398307901E+02  0.17073382301E+02  0.00000000000E+00 0.  1.
</event>
<event>
 7    1  0.1874105E-013  0.7246160E+02  0.7816164E-02  0.1226708E+00
        -11   -1    0    0    0    0  0.00000000000E+00  0.00000000000E+00  0.45593999997E+02  0.45594000000E+02  0.51100000000E-03 0.  1.
         11   -1    0    0    0    0 -0.00000000000E+00 -0.00000000000E+00 -0.45593999997E+02  0.45594000000E+02  0.51100000000E-03 0. -1.
    9900012    2    1    2    0    0 -0.15685875835E+02  0.86575937761E+01 -0.54476913574E+01  0.72461602273E+02  0.70000041658E+02 0.  0.
        -12    1    1    2    0    0  0.15685875835E+02 -0.86575937761E+01  0.54476913574E+01  0.18726397727E+02  0.00000000000E+00 0.  1.
         11    1    3    3    0    0  0.11468077499E+02  0.34786601819E+01  0.11498772845E+02  0.16608421219E+02  0.51100000000E-03 0. -1.
        -11    1    3    3    0    0 -0.17651026164E+02  0.21401304760E+02 -0.23069784821E+02  0.36080320703E+02  0.51100000000E-03 0.  1.
        -12    1    3    3    0    0 -0.95029271705E+01 -0.16222371166E+02  0.61233206190E+01  0.19772860351E+02  0.00000000000E+00 0.  1.
</event>
<event>
 7    1  0.1874105E-013  0.7246159E+02  0.7816164E-02  0.1226708E+00
        -11   -1    0    0    0    0  0.00000000000E+00  0.00000000000E+00  0.45593999997E+02  0.45594000000E+02  0.51100000000E-03 0.  1.
         11   -1    0    0    0    0 -0.00000000000E+00 -0.00000000000E+00 -0.45593999997E+02  0.45594000000E+02  0.51100000000E-03 0. -1.
    9900012    2    1    2    0    0  0.23029611924E+01  0.36897814921E+01 -0.18214292048E+02  0.72461586769E+02  0.70000021461E+02 0.  0.
        -12    1    1    2    0    0 -0.23029611924E+01 -0.36897814921E+01  0.18214292048E+02  0.18726413231E+02  0.00000000000E+00 0.  1.
         11    1    3    3    0    0 -0.80714237332E+01  0.43916138380E+01  0.12816277071E+02  0.15769943291E+02  0.51100000000E-03 0. -1.
        -11    1    3    3    0    0 -0.77890736318E+00  0.14637077007E+02 -0.34433599986E+02  0.37423569154E+02  0.51100000000E-03 0.  1.
        -12    1    3    3    0    0  0.11153292289E+02 -0.15338909353E+02  0.34030308670E+01  0.19268074323E+02  0.00000000000E+00 0.  1.
</event>
<event>
 7    1  0.1874105E-013  0.7246157E+02  0.7816164E-02  0.1226708E+00
        -11   -1    0    0    0    0  0.00000000000E+00  0.00000000000E+00  0.45593999997E+02  0.45594000000E+02  0.51100000000E-03 0.  1.
         11   -1    0    0    0    0 -0.00000000000E+00 -0.00000000000E+00 -0.45593999997E+02  0.45594000000E+02  0.51100000000E-03 0. -1.
    9900012    2    1    2    0    0  0.15608710213E+02 -0.78928251991E+01 -0.66895994960E+01  0.72461567730E+02  0.69999996659E+02 0.  0.
        -12    1    1    2    0    0 -0.15608710213E+02  0.78928251991E+01  0.66895994960E+01  0.18726432270E+02  0.00000000000E+00 0.  1.
         11    1    3    3    0    0 -0.24852817774E+02 -0.78615665520E+00 -0.68319534808E+01  0.25786744312E+02  0.51100000000E-03 0. -1.
        -11    1    3    3    0    0  0.10144669416E+02  0.75100288432E+01  0.27477879638E+01  0.12917630965E+02  0.51100000000E-03 0.  1.
         12    1    3    3    0    0  0.30316858571E+02 -0.14616697387E+02 -0.26054339789E+01  0.33757192453E+02  0.00000000000E+00 0. -1.
</event>
<event>
 7    1  0.1874105E-013  0.7246160E+02  0.7816164E-02  0.1226708E+00
        -11   -1    0    0    0    0  0.00000000000E+00  0.00000000000E+00  0.45593999997E+02  0.45594000000E+02  0.51100000000E-03 0. -1.
         11   -1    0    0    0    0 -0.00000000000E+00 -0.00000000000E+00 -0.45593999997E+02  0.45594000000E+02  0.51100000000E-03 0.  1.
    9900012    2    1    2    0    0  0.59161944131E+01 -0.14014118364E+02  0.10921596295E+02  0.72461597903E+02  0.70000035966E+02 0.  0.
        -12    1    1    2    0    0 -0.59161944131E+01  0.14014118364E+02 -0.10921596295E+02  0.18726402097E+02  0.00000000000E+00 0.  1.
         11    1    3    3    0    0 -0.10133106165E+02 -0.18535895576E+02  0.27845558226E+02  0.34951886623E+02  0.51100000000E-03 0.  1.
        -11    1    3    3    0    0  0.22150002529E+02 -0.43119762217E+00 -0.19213093575E+02  0.29324929811E+02  0.51100000000E-03 0. -1.
         12    1    3    3    0    0 -0.61007019511E+01  0.49529748349E+01  0.22891316442E+01  0.81847814690E+01  0.00000000000E+00 0. -1.
</event>
<event>
 7    1  0.1874105E-013  0.7246164E+02  0.7816164E-02  0.1226708E+00
        -11   -1    0    0    0    0  0.00000000000E+00  0.00000000000E+00  0.45593999997E+02  0.45594000000E+02  0.51100000000E-03 0. -1.
         11   -1    0    0    0    0 -0.00000000000E+00 -0.00000000000E+00 -0.45593999997E+02  0.45594000000E+02  0.51100000000E-03 0.  1.
    9900012    2    1    2    0    0 -0.16445836811E+02 -0.35756231251E+01  0.82113376768E+01  0.72461636349E+02  0.70000086048E+02 0.  0.
        -12    1    1    2    0    0  0.16445836811E+02  0.35756231251E+01 -0.82113376768E+01  0.18726363651E+02  0.00000000000E+00 0.  1.
         11    1    3    3    0    0  0.21959318383E+02 -0.14255385981E+02  0.24399055006E+01  0.26294121633E+02  0.51100000000E-03 0. -1.
        -11    1    3    3    0    0 -0.22456898478E+02  0.17486254692E+02  0.38604127193E+01  0.28722537823E+02  0.51100000000E-03 0.  1.
        -12    1    3    3    0    0 -0.15948256717E+02 -0.68064918358E+01  0.19110194569E+01  0.17444976893E+02  0.00000000000E+00 0.  1.
</event>
<event>
 7    1  0.1874105E-013  0.7246153E+02  0.7816164E-02  0.1226708E+00
        -11   -1    0    0    0    0  0.00000000000E+00  0.00000000000E+00  0.45593999997E+02  0.45594000000E+02  0.51100000000E-03 0. -1.
         11   -1    0    0    0    0 -0.00000000000E+00 -0.00000000000E+00 -0.45593999997E+02  0.45594000000E+02  0.51100000000E-03 0.  1.
    9900012    2    1    2    0    0 -0.13397945118E+02 -0.11160446323E+02 -0.68278906901E+01  0.72461532453E+02  0.69999950705E+02 0.  0.
        -12    1    1    2    0    0  0.13397945118E+02  0.11160446323E+02  0.68278906901E+01  0.18726467547E+02  0.00000000000E+00 0.  1.
         11    1    3    3    0    0 -0.21688734765E+02  0.30147962325E+01  0.12104111818E+02  0.25019986715E+02  0.51100000000E-03 0. -1.
        -11    1    3    3    0    0 -0.42027979286E+00 -0.24815144077E+02 -0.22209766905E+02  0.33305281217E+02  0.51100000000E-03 0.  1.
        -12    1    3    3    0    0  0.87110694401E+01  0.10639901522E+02  0.32777643971E+01  0.14136264522E+02  0.00000000000E+00 0.  1.
</event>
<event>
 7    1  0.1874105E-013  0.7246152E+02  0.7816164E-02  0.1226708E+00
        -11   -1    0    0    0    0  0.00000000000E+00  0.00000000000E+00  0.45593999997E+02  0.45594000000E+02  0.51100000000E-03 0.  1.
         11   -1    0    0    0    0 -0.00000000000E+00 -0.00000000000E+00 -0.45593999997E+02  0.45594000000E+02  0.51100000000E-03 0. -1.
    9900012    2    1    2    0    0  0.16183010003E+02  0.16581707850E+01 -0.92758747079E+01  0.72461516221E+02  0.69999929560E+02 0.  0.
        -12    1    1    2    0    0 -0.16183010003E+02 -0.16581707850E+01  0.92758747079E+01  0.18726483779E+02  0.00000000000E+00 0.  1.
         11    1    3    3    0    0  0.37181195792E+02  0.70518921338E+01  0.53493822970E+00  0.37847809215E+02  0.51100000000E-03 0. -1.
        -11    1    3    3    0    0 -0.88559134526E+01 -0.15034247533E+02 -0.31102030513E+01  0.17723689380E+02  0.51100000000E-03 0.  1.
         12    1    3    3    0    0 -0.12142272336E+02  0.96405261839E+01 -0.67006098862E+01  0.16890017627E+02  0.00000000000E+00 0. -1.
</event>
<event>
 7    1  0.1874105E-013  0.7246156E+02  0.7816164E-02  0.1226708E+00
        -11   -1    0    0    0    0  0.00000000000E+00  0.00000000000E+00  0.45593999997E+02  0.45594000000E+02  0.51100000000E-03 0. -1.
         11   -1    0    0    0    0 -0.00000000000E+00 -0.00000000000E+00 -0.45593999997E+02  0.45594000000E+02  0.51100000000E-03 0.  1.
    9900012    2    1    2    0    0 -0.92949141589E+01  0.11860740698E+01  0.16213497391E+02  0.72461556169E+02  0.69999981598E+02 0.  0.
        -12    1    1    2    0    0  0.92949141589E+01 -0.11860740698E+01 -0.16213497391E+02  0.18726443831E+02  0.00000000000E+00 0.  1.
         11    1    3    3    0    0 -0.16597443735E+02  0.25797296356E+02  0.13112700798E+02  0.33360434054E+02  0.51100000000E-03 0.  1.
        -11    1    3    3    0    0  0.18146716437E+01 -0.28883465512E+02  0.86481725161E+01  0.30204941670E+02  0.51100000000E-03 0. -1.
         12    1    3    3    0    0  0.54878579328E+01  0.42722432261E+01 -0.55473759225E+01  0.88961804444E+01  0.00000000000E+00 0. -1.
</event>
<event>
 7    1  0.1874105E-013  0.7246102E+02  0.7816164E-02  0.1226709E+00
        -11   -1    0    0    0    0  0.00000000000E+00  0.00000000000E+00  0.45593999997E+02  0.45594000000E+02  0.51100000000E-03 0. -1.
         11   -1    0    0    0    0 -0.00000000000E+00 -0.00000000000E+00 -0.45593999997E+02  0.45594000000E+02  0.51100000000E-03 0.  1.
    9900012    2    1    2    0    0 -0.34617181536E+01 -0.89602962455E+01  0.16075734148E+02  0.72461024009E+02  0.69999288358E+02 0.  0.
        -12    1    1    2    0    0  0.34617181536E+01  0.89602962455E+01 -0.16075734148E+02  0.18726975991E+02  0.00000000000E+00 0.  1.
         11    1    3    3    0    0  0.64430011730E+01 -0.26757009368E+02  0.23952330857E+02  0.36485119819E+02  0.51100000000E-03 0. -1.
        -11    1    3    3    0    0  0.39692570851E+01  0.15398824321E+02 -0.13455754054E+02  0.20831133183E+02  0.51100000000E-03 0.  1.
         12    1    3    3    0    0 -0.13873976412E+02  0.23978888020E+01  0.55791573452E+01  0.15144771007E+02  0.00000000000E+00 0. -1.
</event>
<event>
 7    1  0.1874105E-013  0.7246163E+02  0.7816164E-02  0.1226708E+00
        -11   -1    0    0    0    0  0.00000000000E+00  0.00000000000E+00  0.45593999997E+02  0.45594000000E+02  0.51100000000E-03 0. -1.
         11   -1    0    0    0    0 -0.00000000000E+00 -0.00000000000E+00 -0.45593999997E+02  0.45594000000E+02  0.51100000000E-03 0.  1.
    9900012    2    1    2    0    0  0.98723693510E+01  0.83873188809E+01 -0.13522801000E+02  0.72461629783E+02  0.70000077496E+02 0.  0.
        -12    1    1    2    0    0 -0.98723693510E+01 -0.83873188809E+01  0.13522801000E+02  0.18726370217E+02  0.00000000000E+00 0.  1.
         11    1    3    3    0    0 -0.23193409588E+02  0.75068955227E+01 -0.13390023010E+02  0.27813314171E+02  0.51100000000E-03 0. -1.
        -11    1    3    3    0    0  0.19913742330E+02 -0.10385627939E+02  0.99990866698E+01  0.24584550754E+02  0.51100000000E-03 0.  1.
        -12    1    3    3    0    0  0.13152036609E+02  0.11266051298E+02 -0.10131864660E+02  0.20063764858E+02  0.00000000000E+00 0.  1.
</event>
<event>
 7    1  0.1874105E-013  0.7246157E+02  0.7816164E-02  0.1226708E+00
        -11   -1    0    0    0    0  0.00000000000E+00  0.00000000000E+00  0.45593999997E+02  0.45594000000E+02  0.51100000000E-03 0.  1.
         11   -1    0    0    0    0 -0.00000000000E+00 -0.00000000000E+00 -0.45593999997E+02  0.45594000000E+02  0.51100000000E-03 0. -1.
    9900012    2    1    2    0    0  0.80001638162E+01  0.53447869136E+01 -0.16065799148E+02  0.72461567598E+02  0.69999996488E+02 0.  0.
        -12    1    1    2    0    0 -0.80001638162E+01 -0.53447869136E+01  0.16065799148E+02  0.18726432402E+02  0.00000000000E+00 0.  1.
         11    1    3    3    0    0 -0.93026489840E+01 -0.89740618352E+01  0.21565695805E+02  0.25142639077E+02  0.51100000000E-03 0.  1.
        -11    1    3    3    0    0  0.19288678444E+02  0.67865546408E+01 -0.23243321140E+02  0.30957429123E+02  0.51100000000E-03 0. -1.
        -12    1    3    3    0    0 -0.19858656440E+01  0.75322941081E+01 -0.14388173813E+02  0.16361499398E+02  0.00000000000E+00 0.  1.
</event>
<event>
 7    1  0.1874105E-013  0.7246160E+02  0.7816164E-02  0.1226708E+00
        -11   -1    0    0    0    0  0.00000000000E+00  0.00000000000E+00  0.45593999997E+02  0.45594000000E+02  0.51100000000E-03 0. -1.
         11   -1    0    0    0    0 -0.00000000000E+00 -0.00000000000E+00 -0.45593999997E+02  0.45594000000E+02  0.51100000000E-03 0.  1.
    9900012    2    1    2    0    0 -0.12663893277E+02 -0.11266487339E+01  0.13748981865E+02  0.72461600649E+02  0.70000039543E+02 0.  0.
        -12    1    1    2    0    0  0.12663893277E+02  0.11266487339E+01 -0.13748981865E+02  0.18726399351E+02  0.00000000000E+00 0.  1.
         11    1    3    3    0    0 -0.49952298961E+01 -0.94536118839E+01  0.37384771053E+02  0.38883726754E+02  0.51100000000E-03 0. -1.
        -11    1    3    3    0    0  0.40021693916E+01 -0.46217243400E+01 -0.86339192087E+01  0.10579331589E+02  0.51100000000E-03 0.  1.
         12    1    3    3    0    0 -0.11670832773E+02  0.12948687490E+02 -0.15001869979E+02  0.22998542306E+02  0.00000000000E+00 0. -1.
</event>
<event>
 7    1  0.1874105E-013  0.7246151E+02  0.7816164E-02  0.1226708E+00
        -11   -1    0    0    0    0  0.00000000000E+00  0.00000000000E+00  0.45593999997E+02  0.45594000000E+02  0.51100000000E-03 0. -1.
         11   -1    0    0    0    0 -0.00000000000E+00 -0.00000000000E+00 -0.45593999997E+02  0.45594000000E+02  0.51100000000E-03 0.  1.
    9900012    2    1    2    0    0 -0.11773570374E+02  0.36360720560E+01  0.14101191008E+02  0.72461506276E+02  0.69999916604E+02 0.  0.
        -12    1    1    2    0    0  0.11773570374E+02 -0.36360720560E+01 -0.14101191008E+02  0.18726493724E+02  0.00000000000E+00 0.  1.
         11    1    3    3    0    0 -0.24859812330E+02  0.15768237532E+02  0.67941437335E+01  0.30212712114E+02  0.51100000000E-03 0.  1.
        -11    1    3    3    0    0  0.17900858565E+02 -0.98503746890E+01 -0.10984119189E+02  0.23197445840E+02  0.51100000000E-03 0. -1.
         12    1    3    3    0    0 -0.48146166095E+01 -0.22817907874E+01  0.18291166464E+02  0.19051348322E+02  0.00000000000E+00 0. -1.
</event>
<event>
 7    1  0.1874105E-013  0.7246161E+02  0.7816164E-02  0.1226708E+00
        -11   -1    0    0    0    0  0.00000000000E+00  0.00000000000E+00  0.45593999997E+02  0.45594000000E+02  0.51100000000E-03 0. -1.
         11   -1    0    0    0    0 -0.00000000000E+00 -0.00000000000E+00 -0.45593999997E+02  0.45594000000E+02  0.51100000000E-03 0.  1.
    9900012    2    1    2    0    0  0.14265792533E+02 -0.10028003141E+02  0.68267190392E+01  0.72461607490E+02  0.70000048454E+02 0.  0.
        -12    1    1    2    0    0 -0.14265792533E+02  0.10028003141E+02 -0.68267190392E+01  0.18726392510E+02  0.00000000000E+00 0.  1.
         11    1    3    3    0    0  0.21627426052E+02  0.20141921622E+02  0.64280620943E+01  0.30245041690E+02  0.51100000000E-03 0. -1.
        -11    1    3    3    0    0  0.51768278263E+01 -0.27383794196E+02 -0.49466193039E+01  0.28304430285E+02  0.51100000000E-03 0.  1.
         12    1    3    3    0    0 -0.12538461345E+02 -0.27861305672E+01  0.53452762488E+01  0.13912135516E+02  0.00000000000E+00 0. -1.
</event>
<event>
 7    1  0.1874105E-013  0.7246155E+02  0.7816164E-02  0.1226708E+00
        -11   -1    0    0    0    0  0.00000000000E+00  0.00000000000E+00  0.45593999997E+02  0.45594000000E+02  0.51100000000E-03 0.  1.
         11   -1    0    0    0    0 -0.00000000000E+00 -0.00000000000E+00 -0.45593999997E+02  0.45594000000E+02  0.51100000000E-03 0. -1.
    9900012    2    1    2    0    0  0.68709115234E+01  0.16567269574E+02 -0.53848159870E+01  0.72461545730E+02  0.69999968001E+02 0.  0.
        -12    1    1    2    0    0 -0.68709115234E+01 -0.16567269574E+02  0.53848159870E+01  0.18726454270E+02  0.00000000000E+00 0.  1.
         11    1    3    3    0    0 -0.45841550789E+01  0.94158811147E+01 -0.56415717266E+01  0.11895403598E+02  0.51100000000E-03 0. -1.
        -11    1    3    3    0    0  0.16666129656E+02 -0.17048488217E+02  0.18198570273E+02  0.29993312396E+02  0.51100000000E-03 0.  1.
        -12    1    3    3    0    0 -0.52110630540E+01  0.24199876677E+02 -0.17941814534E+02  0.30572829736E+02  0.00000000000E+00 0.  1.
</event>
<event>
 7    1  0.1874105E-013  0.7246157E+02  0.7816164E-02  0.1226708E+00
        -11   -1    0    0    0    0  0.00000000000E+00  0.00000000000E+00  0.45593999997E+02  0.45594000000E+02  0.51100000000E-03 0.  1.
         11   -1    0    0    0    0 -0.00000000000E+00 -0.00000000000E+00 -0.45593999997E+02  0.45594000000E+02  0.51100000000E-03 0. -1.
    9900012    2    1    2    0    0 -0.11130067700E+02 -0.15019886905E+02  0.10972023828E+01  0.72461567806E+02  0.69999996758E+02 0.  0.
        -12    1    1    2    0    0  0.11130067700E+02  0.15019886905E+02 -0.10972023828E+01  0.18726432194E+02  0.00000000000E+00 0.  1.
         11    1    3    3    0    0 -0.31673449596E+01 -0.50432061331E+01 -0.10224391410E+02  0.11832336293E+02  0.51100000000E-03 0. -1.
        -11    1    3    3    0    0 -0.18904045303E+01  0.24480540143E+02  0.38736262062E+01  0.24857100701E+02  0.51100000000E-03 0.  1.
        -12    1    3    3    0    0 -0.60723182106E+01 -0.34457220915E+02  0.74479675866E+01  0.35772130812E+02  0.00000000000E+00 0.  1.
</event>
<event>
 7    1  0.1874105E-013  0.7246170E+02  0.7816164E-02  0.1226708E+00
        -11   -1    0    0    0    0  0.00000000000E+00  0.00000000000E+00  0.45593999997E+02  0.45594000000E+02  0.51100000000E-03 0.  1.
         11   -1    0    0    0    0 -0.00000000000E+00 -0.00000000000E+00 -0.45593999997E+02  0.45594000000E+02  0.51100000000E-03 0. -1.
    9900012    2    1    2    0    0 -0.50878875560E+01 -0.16783811397E+02 -0.65644099303E+01  0.72461697575E+02  0.70000165806E+02 0.  0.
        -12    1    1    2    0    0  0.50878875560E+01  0.16783811397E+02  0.65644099303E+01  0.18726302425E+02  0.00000000000E+00 0.  1.
         11    1    3    3    0    0 -0.12456720017E+02  0.20487262506E+01  0.19820144640E+02  0.23499048633E+02  0.51100000000E-03 0.  1.
        -11    1    3    3    0    0  0.10998546441E+02 -0.27484304632E+02 -0.12339507845E+02  0.32072082550E+02  0.51100000000E-03 0. -1.
         12    1    3    3    0    0 -0.36297139804E+01  0.86517669845E+01 -0.14045046725E+02  0.16890566392E+02  0.00000000000E+00 0. -1.
</event>
<event>
 7    1  0.1874105E-013  0.7246160E+02  0.7816164E-02  0.1226708E+00
        -11   -1    0    0    0    0  0.00000000000E+00  0.00000000000E+00  0.45593999997E+02  0.45594000000E+02  0.51100000000E-03 0.  1.
         11   -1    0    0    0    0 -0.00000000000E+00 -0.00000000000E+00 -0.45593999997E+02  0.45594000000E+02  0.51100000000E-03 0. -1.
    9900012    2    1    2    0    0 -0.15064374773E+02 -0.44687103501E+01 -0.10186911895E+02  0.72461603297E+02  0.70000042993E+02 0.  0.
        -12    1    1    2    0    0  0.15064374773E+02  0.44687103501E+01  0.10186911895E+02  0.18726396703E+02  0.00000000000E+00 0.  1.
         11    1    3    3    0    0 -0.13272019536E+02 -0.17143799693E+02  0.12718555713E+02  0.25135990734E+02  0.51100000000E-03 0. -1.
        -11    1    3    3    0    0  0.17627574527E+02  0.11321119371E+02 -0.17008565870E+02  0.26985003997E+02  0.51100000000E-03 0.  1.
        -12    1    3    3    0    0 -0.19419929765E+02  0.13539699720E+01 -0.58969017382E+01  0.20340608567E+02  0.00000000000E+00 0.  1.
</event>
<event>
 7    1  0.1874105E-013  0.7246173E+02  0.7816164E-02  0.1226708E+00
        -11   -1    0    0    0    0  0.00000000000E+00  0.00000000000E+00  0.45593999997E+02  0.45594000000E+02  0.51100000000E-03 0. -1.
         11   -1    0    0    0    0 -0.00000000000E+00 -0.00000000000E+00 -0.45593999997E+02  0.45594000000E+02  0.51100000000E-03 0.  1.
    9900012    2    1    2    0    0 -0.16772571609E+02 -0.42501456323E+01  0.71617318817E+01  0.72461727017E+02  0.70000204160E+02 0.  0.
        -12    1    1    2    0    0  0.16772571609E+02  0.42501456323E+01 -0.71617318817E+01  0.18726272983E+02  0.00000000000E+00 0.  1.
         11    1    3    3    0    0  0.16930525213E+02 -0.35690029516E+01  0.74741435802E+01  0.18847898784E+02  0.51100000000E-03 0. -1.
        -11    1    3    3    0    0 -0.23695943447E+02  0.19690527353E+02 -0.18508867630E+01  0.30864873001E+02  0.51100000000E-03 0.  1.
         12    1    3    3    0    0 -0.10007153375E+02 -0.20371670034E+02  0.15384750645E+01  0.22748955232E+02  0.00000000000E+00 0. -1.
</event>
<event>
 7    1  0.1874105E-013  0.7246156E+02  0.7816164E-02  0.1226708E+00
        -11   -1    0    0    0    0  0.00000000000E+00  0.00000000000E+00  0.45593999997E+02  0.45594000000E+02  0.51100000000E-03 0.  1.
         11   -1    0    0    0    0 -0.00000000000E+00 -0.00000000000E+00 -0.45593999997E+02  0.45594000000E+02  0.51100000000E-03 0. -1.
    9900012    2    1    2    0    0  0.17496895073E+02  0.59493590010E+01 -0.30238074734E+01  0.72461558230E+02  0.69999984284E+02 0.  0.
        -12    1    1    2    0    0 -0.17496895073E+02 -0.59493590010E+01  0.30238074734E+01  0.18726441770E+02  0.00000000000E+00 0.  1.
         11    1    3    3    0    0  0.21469295943E+01  0.25831319417E+01 -0.58449029611E+01  0.67412734848E+01  0.51100000000E-03 0. -1.
        -11    1    3    3    0    0  0.25323134701E+02  0.74652949564E+01  0.27906471299E+02  0.38415659834E+02  0.51100000000E-03 0.  1.
        -12    1    3    3    0    0 -0.99731692228E+01 -0.40990678971E+01 -0.25085375811E+02  0.27304624911E+02  0.00000000000E+00 0.  1.
</event>
<event>
 7    1  0.1874105E-013  0.7246159E+02  0.7816164E-02  0.1226708E+00
        -11   -1    0    0    0    0  0.00000000000E+00  0.00000000000E+00  0.45593999997E+02  0.45594000000E+02  0.51100000000E-03 0. -1.
         11   -1    0    0    0    0 -0.00000000000E+00 -0.00000000000E+00 -0.45593999997E+02  0.45594000000E+02  0.51100000000E-03 0.  1.
    9900012    2    1    2    0    0 -0.11396692262E+02  0.80314557450E+01  0.12501589365E+02  0.72461585165E+02  0.70000019372E+02 0.  0.
        -12    1    1    2    0    0  0.11396692262E+02 -0.80314557450E+01 -0.12501589365E+02  0.18726414835E+02  0.00000000000E+00 0.  1.
         11    1    3    3    0    0 -0.22154258555E+02  0.47181146948E+01 -0.23790997755E+02  0.32849404147E+02  0.51100000000E-03 0. -1.
        -11    1    3    3    0    0  0.75016691782E+01 -0.34877606050E+01  0.17253945752E+02  0.19134736966E+02  0.51100000000E-03 0.  1.
         12    1    3    3    0    0  0.32558971146E+01  0.68011016552E+01  0.19038641368E+02  0.20477444052E+02  0.00000000000E+00 0. -1.
</event>
<event>
 7    1  0.1874105E-013  0.7246162E+02  0.7816164E-02  0.1226708E+00
        -11   -1    0    0    0    0  0.00000000000E+00  0.00000000000E+00  0.45593999997E+02  0.45594000000E+02  0.51100000000E-03 0.  1.
         11   -1    0    0    0    0 -0.00000000000E+00 -0.00000000000E+00 -0.45593999997E+02  0.45594000000E+02  0.51100000000E-03 0. -1.
    9900012    2    1    2    0    0 -0.42402742712E+01  0.51419169182E+01 -0.17500229819E+02  0.72461620767E+02  0.70000065750E+02 0.  0.
        -12    1    1    2    0    0  0.42402742712E+01 -0.51419169182E+01  0.17500229819E+02  0.18726379233E+02  0.00000000000E+00 0.  1.
         11    1    3    3    0    0  0.79646807528E+01 -0.76731039303E+01 -0.59205844570E+01  0.12544559936E+02  0.51100000000E-03 0. -1.
        -11    1    3    3    0    0  0.49634600431E+00  0.26880449057E+02  0.12188020693E+02  0.29518684752E+02  0.51100000000E-03 0.  1.
        -12    1    3    3    0    0 -0.12701301028E+02 -0.14065428208E+02 -0.23767666055E+02  0.30398376078E+02  0.00000000000E+00 0.  1.
</event>
<event>
 7    1  0.1874105E-013  0.7246157E+02  0.7816164E-02  0.1226708E+00
        -11   -1    0    0    0    0  0.00000000000E+00  0.00000000000E+00  0.45593999997E+02  0.45594000000E+02  0.51100000000E-03 0.  1.
         11   -1    0    0    0    0 -0.00000000000E+00 -0.00000000000E+00 -0.45593999997E+02  0.45594000000E+02  0.51100000000E-03 0. -1.
    9900012    2    1    2    0    0  0.13272859370E+02 -0.38840078129E+01 -0.12626351134E+02  0.72461573339E+02  0.70000003966E+02 0.  0.
        -12    1    1    2    0    0 -0.13272859370E+02  0.38840078129E+01  0.12626351134E+02  0.18726426661E+02  0.00000000000E+00 0.  1.
         11    1    3    3    0    0  0.25095460124E+02  0.24968043949E+01 -0.23649679967E+02  0.34573450996E+02  0.51100000000E-03 0. -1.
        -11    1    3    3    0    0 -0.22947374631E+02 -0.10676499564E+00  0.10132523167E+02  0.25085083759E+02  0.51100000000E-03 0.  1.
        -12    1    3    3    0    0  0.11124773877E+02 -0.62740472122E+01  0.89080566559E+00  0.12803038583E+02  0.00000000000E+00 0.  1.
</event>
<event>
 7    1  0.1874105E-013  0.7246158E+02  0.7816164E-02  0.1226708E+00
        -11   -1    0    0    0    0  0.00000000000E+00  0.00000000000E+00  0.45593999997E+02  0.45594000000E+02  0.51100000000E-03 0.  1.
         11   -1    0    0    0    0 -0.00000000000E+00 -0.00000000000E+00 -0.45593999997E+02  0.45594000000E+02  0.51100000000E-03 0. -1.
    9900012    2    1    2    0    0  0.19894456550E+01 -0.90403100954E+00 -0.18598489327E+02  0.72461575586E+02  0.70000006893E+02 0.  0.
        -12    1    1    2    0    0 -0.19894456550E+01  0.90403100954E+00  0.18598489327E+02  0.18726424414E+02  0.00000000000E+00 0.  1.
         11    1    3    3    0    0  0.22728433539E+02 -0.76393396034E+01  0.13720534485E+02  0.27625970889E+02  0.51100000000E-03 0.  1.
        -11    1    3    3    0    0 -0.24044879701E+02  0.82540805704E+01 -0.21088321413E+02  0.33030340388E+02  0.51100000000E-03 0. -1.
        -12    1    3    3    0    0  0.33058918165E+01 -0.15187719766E+01 -0.11230702400E+02  0.11805264309E+02  0.00000000000E+00 0.  1.
</event>
<event>
 7    1  0.1874105E-013  0.7246152E+02  0.7816164E-02  0.1226708E+00
        -11   -1    0    0    0    0  0.00000000000E+00  0.00000000000E+00  0.45593999997E+02  0.45594000000E+02  0.51100000000E-03 0.  1.
         11   -1    0    0    0    0 -0.00000000000E+00 -0.00000000000E+00 -0.45593999997E+02  0.45594000000E+02  0.51100000000E-03 0. -1.
    9900012    2    1    2    0    0 -0.10220263170E+02  0.30988109921E+01 -0.15382611119E+02  0.72461517851E+02  0.69999931683E+02 0.  0.
        -12    1    1    2    0    0  0.10220263170E+02 -0.30988109921E+01  0.15382611119E+02  0.18726482149E+02  0.00000000000E+00 0.  1.
         11    1    3    3    0    0  0.10633979705E+02 -0.12384611071E+01  0.20025485512E+02  0.22707606226E+02  0.51100000000E-03 0.  1.
        -11    1    3    3    0    0 -0.26227234127E+02  0.91118774023E+01 -0.28056792119E+02  0.39472493005E+02  0.51100000000E-03 0. -1.
        -12    1    3    3    0    0  0.53729912527E+01 -0.47746053032E+01 -0.73513045119E+01  0.10281418620E+02  0.00000000000E+00 0.  1.
</event>
<event>
 7    1  0.1874105E-013  0.7246173E+02  0.7816164E-02  0.1226708E+00
        -11   -1    0    0    0    0  0.00000000000E+00  0.00000000000E+00  0.45593999997E+02  0.45594000000E+02  0.51100000000E-03 0.  1.
         11   -1    0    0    0    0 -0.00000000000E+00 -0.00000000000E+00 -0.45593999997E+02  0.45594000000E+02  0.51100000000E-03 0. -1.
    9900012    2    1    2    0    0 -0.13664088347E+02 -0.23837237460E+01 -0.12581085004E+02  0.72461731041E+02  0.70000209402E+02 0.  0.
        -12    1    1    2    0    0  0.13664088347E+02  0.23837237460E+01  0.12581085004E+02  0.18726268959E+02  0.00000000000E+00 0.  1.
         11    1    3    3    0    0 -0.89622924155E+01 -0.29058469448E+02 -0.12902151513E+02  0.33033056866E+02  0.51100000000E-03 0. -1.
        -11    1    3    3    0    0 -0.93484584910E+01  0.20628037184E+02 -0.11470038592E+02  0.25386440865E+02  0.51100000000E-03 0.  1.
        -12    1    3    3    0    0  0.46466625598E+01  0.60467085182E+01  0.11791105100E+02  0.14042233310E+02  0.00000000000E+00 0.  1.
</event>
<event>
 8    1  0.1874105E-013  0.7246159E+02  0.7816164E-02  0.1226708E+00
        -11   -1    0    0    0    0  0.00000000000E+00  0.00000000000E+00  0.45593999997E+02  0.45594000000E+02  0.51100000000E-03 0.  1.
         11   -1    0    0    0    0 -0.00000000000E+00 -0.00000000000E+00 -0.45593999997E+02  0.45594000000E+02  0.51100000000E-03 0. -1.
    9900012    2    1    2    0    0 -0.64936770222E+01  0.14046835400E+02 -0.10545004952E+02  0.72461586690E+02  0.70000021359E+02 0.  0.
         24    2    3    3    0    0  0.10370754212E+02  0.98374530107E+01 -0.13630617560E+02  0.54808005003E+02  0.51125293669E+02 0.  0.
        -12    1    1    2    0    0  0.64936770222E+01 -0.14046835400E+02  0.10545004952E+02  0.18726413310E+02  0.00000000000E+00 0.  1.
         11    1    3    3    0    0 -0.16864431234E+02  0.42093823892E+01  0.30856126085E+01  0.17653581687E+02  0.51100000000E-03 0. -1.
        -11    1    4    4    0    0  0.20660630518E+02 -0.33934016863E+00  0.13061121072E+02  0.24445238577E+02  0.51100000000E-03 0.  1.
         12    1    4    4    0    0 -0.10289876306E+02  0.10176793179E+02 -0.26691738633E+02  0.30362766426E+02  0.00000000000E+00 0. -1.
</event>
<event>
 7    1  0.1874105E-013  0.7246160E+02  0.7816164E-02  0.1226708E+00
        -11   -1    0    0    0    0  0.00000000000E+00  0.00000000000E+00  0.45593999997E+02  0.45594000000E+02  0.51100000000E-03 0.  1.
         11   -1    0    0    0    0 -0.00000000000E+00 -0.00000000000E+00 -0.45593999997E+02  0.45594000000E+02  0.51100000000E-03 0. -1.
    9900012    2    1    2    0    0  0.41012873260E+01 -0.16773133572E+02  0.72470324261E+01  0.72461600279E+02  0.70000039060E+02 0.  0.
        -12    1    1    2    0    0 -0.41012873260E+01  0.16773133572E+02 -0.72470324261E+01  0.18726399721E+02  0.00000000000E+00 0.  1.
         11    1    3    3    0    0  0.14748306047E+02 -0.26767855647E+01 -0.13650453668E+02  0.20273445633E+02  0.51100000000E-03 0. -1.
        -11    1    3    3    0    0 -0.90185827467E+01 -0.14792547378E+02  0.34428425987E+02  0.38541805989E+02  0.51100000000E-03 0.  1.
        -12    1    3    3    0    0 -0.16284359745E+01  0.69619937061E+00 -0.13530939893E+02  0.13646348657E+02  0.00000000000E+00 0.  1.
</event>
<event>
 7    1  0.1874105E-013  0.7246160E+02  0.7816164E-02  0.1226708E+00
        -11   -1    0    0    0    0  0.00000000000E+00  0.00000000000E+00  0.45593999997E+02  0.45594000000E+02  0.51100000000E-03 0.  1.
         11   -1    0    0    0    0 -0.00000000000E+00 -0.00000000000E+00 -0.45593999997E+02  0.45594000000E+02  0.51100000000E-03 0. -1.
    9900012    2    1    2    0    0 -0.12720804071E+02 -0.75897979556E+01  0.11456627808E+02  0.72461595915E+02  0.70000033375E+02 0.  0.
        -12    1    1    2    0    0  0.12720804071E+02  0.75897979556E+01 -0.11456627808E+02  0.18726404085E+02  0.00000000000E+00 0.  1.
         11    1    3    3    0    0 -0.90753549701E+01  0.16569149397E+01 -0.19737093776E+02  0.21786700207E+02  0.51100000000E-03 0. -1.
        -11    1    3    3    0    0 -0.16805121815E+02 -0.95718639490E+01  0.32104486006E+02  0.37479737468E+02  0.51100000000E-03 0.  1.
         12    1    3    3    0    0  0.13159672713E+02  0.32515105362E+00 -0.91076442233E+00  0.13195158239E+02  0.00000000000E+00 0. -1.
</event>
<event>
 7    1  0.1874105E-013  0.7246162E+02  0.7816164E-02  0.1226708E+00
        -11   -1    0    0    0    0  0.00000000000E+00  0.00000000000E+00  0.45593999997E+02  0.45594000000E+02  0.51100000000E-03 0. -1.
         11   -1    0    0    0    0 -0.00000000000E+00 -0.00000000000E+00 -0.45593999997E+02  0.45594000000E+02  0.51100000000E-03 0.  1.
    9900012    2    1    2    0    0 -0.68723082836E+01 -0.17296388644E+02  0.20697124978E+01  0.72461617779E+02  0.70000061857E+02 0.  0.
        -12    1    1    2    0    0  0.68723082836E+01  0.17296388644E+02 -0.20697124978E+01  0.18726382221E+02  0.00000000000E+00 0.  1.
         11    1    3    3    0    0  0.14134458648E+02  0.16973883584E+02  0.99961205899E+01  0.24244959730E+02  0.51100000000E-03 0. -1.
        -11    1    3    3    0    0 -0.93685527748E+01 -0.25720916502E+02 -0.15964773280E+02  0.31689261793E+02  0.51100000000E-03 0.  1.
         12    1    3    3    0    0 -0.11638214157E+02 -0.85493557261E+01  0.80383651883E+01  0.16527396256E+02  0.00000000000E+00 0. -1.
</event>
<event>
 7    1  0.1874105E-013  0.7246155E+02  0.7816164E-02  0.1226708E+00
        -11   -1    0    0    0    0  0.00000000000E+00  0.00000000000E+00  0.45593999997E+02  0.45594000000E+02  0.51100000000E-03 0.  1.
         11   -1    0    0    0    0 -0.00000000000E+00 -0.00000000000E+00 -0.45593999997E+02  0.45594000000E+02  0.51100000000E-03 0. -1.
    9900012    2    1    2    0    0  0.14584374866E+02 -0.10957676799E+02 -0.42314809527E+01  0.72461545393E+02  0.69999967562E+02 0.  0.
        -12    1    1    2    0    0 -0.14584374866E+02  0.10957676799E+02  0.42314809527E+01  0.18726454607E+02  0.00000000000E+00 0.  1.
         11    1    3    3    0    0  0.26615871371E+01 -0.27299076350E+02 -0.58810590373E+01  0.28051924556E+02  0.51100000000E-03 0. -1.
        -11    1    3    3    0    0  0.26426320065E+02  0.79975661672E+01  0.19011585473E+01  0.27675365596E+02  0.51100000000E-03 0.  1.
        -12    1    3    3    0    0 -0.14503532336E+02  0.83438333833E+01 -0.25158046267E+00  0.16734255241E+02  0.00000000000E+00 0.  1.
</event>
<event>
 7    1  0.1874105E-013  0.7246156E+02  0.7816164E-02  0.1226708E+00
        -11   -1    0    0    0    0  0.00000000000E+00  0.00000000000E+00  0.45593999997E+02  0.45594000000E+02  0.51100000000E-03 0.  1.
         11   -1    0    0    0    0 -0.00000000000E+00 -0.00000000000E+00 -0.45593999997E+02  0.45594000000E+02  0.51100000000E-03 0. -1.
    9900012    2    1    2    0    0 -0.37935349652E+01 -0.18064150167E+02  0.31583229589E+01  0.72461563267E+02  0.69999990846E+02 0.  0.
        -12    1    1    2    0    0  0.37935349652E+01  0.18064150167E+02 -0.31583229589E+01  0.18726436733E+02  0.00000000000E+00 0.  1.
         11    1    3    3    0    0  0.17833761667E+01 -0.40053619580E+02  0.78447418257E+00  0.40100975948E+02  0.51100000000E-03 0. -1.
        -11    1    3    3    0    0  0.35561196321E+01  0.17078983048E+02  0.94176969434E+01  0.19825001003E+02  0.51100000000E-03 0.  1.
         12    1    3    3    0    0 -0.91330307641E+01  0.49104863649E+01 -0.70438481671E+01  0.12535586316E+02  0.00000000000E+00 0. -1.
</event>
<event>
 7    1  0.1874105E-013  0.7246126E+02  0.7816164E-02  0.1226709E+00
        -11   -1    0    0    0    0  0.00000000000E+00  0.00000000000E+00  0.45593999997E+02  0.45594000000E+02  0.51100000000E-03 0.  1.
         11   -1    0    0    0    0 -0.00000000000E+00 -0.00000000000E+00 -0.45593999997E+02  0.45594000000E+02  0.51100000000E-03 0. -1.
    9900012    2    1    2    0    0  0.10774461134E+02 -0.12687550231E+00 -0.15316191259E+02  0.72461259098E+02  0.69999594608E+02 0.  0.
        -12    1    1    2    0    0 -0.10774461134E+02  0.12687550231E+00  0.15316191259E+02  0.18726740902E+02  0.00000000000E+00 0.  1.
         11    1    3    3    0    0 -0.22089130929E+02  0.18318615824E+02 -0.12228324135E+01  0.28722755966E+02  0.51100000000E-03 0. -1.
        -11    1    3    3    0    0  0.15261294916E+02 -0.17587677226E+02 -0.46535891003E+01  0.23746355605E+02  0.51100000000E-03 0.  1.
         12    1    3    3    0    0  0.17602297147E+02 -0.85781409996E+00 -0.94397697456E+01  0.19992147527E+02  0.00000000000E+00 0. -1.
</event>
<event>
 7    1  0.1874105E-013  0.7246154E+02  0.7816164E-02  0.1226708E+00
        -11   -1    0    0    0    0  0.00000000000E+00  0.00000000000E+00  0.45593999997E+02  0.45594000000E+02  0.51100000000E-03 0.  1.
         11   -1    0    0    0    0 -0.00000000000E+00 -0.00000000000E+00 -0.45593999997E+02  0.45594000000E+02  0.51100000000E-03 0. -1.
    9900012    2    1    2    0    0  0.12770552745E+02  0.11449629634E+02 -0.75165882419E+01  0.72461544517E+02  0.69999966420E+02 0.  0.
        -12    1    1    2    0    0 -0.12770552745E+02 -0.11449629634E+02  0.75165882419E+01  0.18726455483E+02  0.00000000000E+00 0.  1.
         11    1    3    3    0    0 -0.78166998015E+01  0.68845157546E+01 -0.22876884206E+02  0.25136610436E+02  0.51100000000E-03 0. -1.
        -11    1    3    3    0    0  0.69109298330E+01  0.13114295496E+02  0.24611866930E+02  0.28731336404E+02  0.51100000000E-03 0.  1.
        -12    1    3    3    0    0  0.13676322713E+02 -0.85491816168E+01 -0.92515709654E+01  0.18593597678E+02  0.00000000000E+00 0.  1.
</event>
<event>
 7    1  0.1874105E-013  0.7246157E+02  0.7816164E-02  0.1226708E+00
        -11   -1    0    0    0    0  0.00000000000E+00  0.00000000000E+00  0.45593999997E+02  0.45594000000E+02  0.51100000000E-03 0.  1.
         11   -1    0    0    0    0 -0.00000000000E+00 -0.00000000000E+00 -0.45593999997E+02  0.45594000000E+02  0.51100000000E-03 0. -1.
    9900012    2    1    2    0    0  0.10239835146E+02 -0.10039820309E+02  0.12042712573E+02  0.72461571035E+02  0.70000000965E+02 0.  0.
        -12    1    1    2    0    0 -0.10239835146E+02  0.10039820309E+02 -0.12042712573E+02  0.18726428965E+02  0.00000000000E+00 0.  1.
         11    1    3    3    0    0  0.27375163766E+02 -0.90926802476E+01 -0.40877310243E+01  0.29133931600E+02  0.51100000000E-03 0. -1.
        -11    1    3    3    0    0 -0.24345233355E+02  0.61389863001E+01  0.99553178090E+00  0.25127049642E+02  0.51100000000E-03 0.  1.
        -12    1    3    3    0    0  0.72099047354E+01 -0.70861263612E+01  0.15134911817E+02  0.18200589793E+02  0.00000000000E+00 0.  1.
</event>
<event>
 7    1  0.1874105E-013  0.7246171E+02  0.7816164E-02  0.1226708E+00
        -11   -1    0    0    0    0  0.00000000000E+00  0.00000000000E+00  0.45593999997E+02  0.45594000000E+02  0.51100000000E-03 0.  1.
         11   -1    0    0    0    0 -0.00000000000E+00 -0.00000000000E+00 -0.45593999997E+02  0.45594000000E+02  0.51100000000E-03 0. -1.
    9900012    2    1    2    0    0  0.13659914254E+02  0.49118268092E+01 -0.11830240224E+02  0.72461711425E+02  0.70000183849E+02 0.  0.
        -12    1    1    2    0    0 -0.13659914254E+02 -0.49118268092E+01  0.11830240224E+02  0.18726288575E+02  0.00000000000E+00 0.  1.
         11    1    3    3    0    0 -0.82924196244E+01  0.99710505293E+01 -0.33123431287E+02  0.35571727149E+02  0.51100000000E-03 0. -1.
        -11    1    3    3    0    0  0.16375903367E+02 -0.10753300750E+02  0.75348304718E+01  0.20989934698E+02  0.51100000000E-03 0.  1.
         12    1    3    3    0    0  0.55764305110E+01  0.56940770294E+01  0.13758360591E+02  0.15900049579E+02  0.00000000000E+00 0. -1.
</event>
<event>
 7    1  0.1874105E-013  0.7246160E+02  0.7816164E-02  0.1226708E+00
        -11   -1    0    0    0    0  0.00000000000E+00  0.00000000000E+00  0.45593999997E+02  0.45594000000E+02  0.51100000000E-03 0. -1.
         11   -1    0    0    0    0 -0.00000000000E+00 -0.00000000000E+00 -0.45593999997E+02  0.45594000000E+02  0.51100000000E-03 0.  1.
    9900012    2    1    2    0    0 -0.16214922469E+02  0.65373945983E+01  0.67094460586E+01  0.72461604051E+02  0.70000043975E+02 0.  0.
        -12    1    1    2    0    0  0.16214922469E+02 -0.65373945983E+01 -0.67094460586E+01  0.18726395949E+02  0.00000000000E+00 0.  1.
         11    1    3    3    0    0  0.75009641021E+01 -0.60890854881E+01  0.18058036129E+02  0.20480090176E+02  0.51100000000E-03 0. -1.
        -11    1    3    3    0    0 -0.35331047309E+02  0.70244884132E+01 -0.14292258339E+02  0.38754289958E+02  0.51100000000E-03 0.  1.
        -12    1    3    3    0    0  0.11615160738E+02  0.56019916732E+01  0.29436682689E+01  0.13227223917E+02  0.00000000000E+00 0.  1.
</event>
<event>
 7    1  0.1874105E-013  0.7246161E+02  0.7816164E-02  0.1226708E+00
        -11   -1    0    0    0    0  0.00000000000E+00  0.00000000000E+00  0.45593999997E+02  0.45594000000E+02  0.51100000000E-03 0. -1.
         11   -1    0    0    0    0 -0.00000000000E+00 -0.00000000000E+00 -0.45593999997E+02  0.45594000000E+02  0.51100000000E-03 0.  1.
    9900012    2    1    2    0    0 -0.65102379737E+01 -0.15390764387E+02  0.84509578184E+01  0.72461614472E+02  0.70000057549E+02 0.  0.
        -12    1    1    2    0    0  0.65102379737E+01  0.15390764387E+02 -0.84509578184E+01  0.18726385528E+02  0.00000000000E+00 0.  1.
         11    1    3    3    0    0  0.97897210840E+01 -0.25657216654E+02 -0.12022825308E+02  0.29977987491E+02  0.51100000000E-03 0. -1.
        -11    1    3    3    0    0 -0.10195680495E+02  0.71674499697E+01 -0.69146323259E+01  0.14252592055E+02  0.51100000000E-03 0.  1.
         12    1    3    3    0    0 -0.61042785631E+01  0.30990022973E+01  0.27388415452E+02  0.28231034926E+02  0.00000000000E+00 0. -1.
</event>
<event>
 7    1  0.1874105E-013  0.7246161E+02  0.7816164E-02  0.1226708E+00
        -11   -1    0    0    0    0  0.00000000000E+00  0.00000000000E+00  0.45593999997E+02  0.45594000000E+02  0.51100000000E-03 0.  1.
         11   -1    0    0    0    0 -0.00000000000E+00 -0.00000000000E+00 -0.45593999997E+02  0.45594000000E+02  0.51100000000E-03 0. -1.
    9900012    2    1    2    0    0  0.13097373489E+02  0.13347839615E+02 -0.98569317371E+00  0.72461612048E+02  0.70000054392E+02 0.  0.
        -12    1    1    2    0    0 -0.13097373489E+02 -0.13347839615E+02  0.98569317371E+00  0.18726387952E+02  0.00000000000E+00 0.  1.
         11    1    3    3    0    0 -0.18223144821E+02 -0.26965441558E+01  0.34197819458E+01  0.18736308772E+02  0.51100000000E-03 0. -1.
        -11    1    3    3    0    0  0.39193220589E+02  0.79850202302E+01 -0.98780415346E+01  0.41200058168E+02  0.51100000000E-03 0.  1.
        -12    1    3    3    0    0 -0.78727022788E+01  0.80593635407E+01  0.54725664151E+01  0.12525245108E+02  0.00000000000E+00 0.  1.
</event>
<event>
 7    1  0.1874105E-013  0.7246158E+02  0.7816164E-02  0.1226708E+00
        -11   -1    0    0    0    0  0.00000000000E+00  0.00000000000E+00  0.45593999997E+02  0.45594000000E+02  0.51100000000E-03 0.  1.
         11   -1    0    0    0    0 -0.00000000000E+00 -0.00000000000E+00 -0.45593999997E+02  0.45594000000E+02  0.51100000000E-03 0. -1.
    9900012    2    1    2    0    0 -0.12471012765E+02 -0.13747290178E+02 -0.24828913972E+01  0.72461577589E+02  0.70000009503E+02 0.  0.
        -12    1    1    2    0    0  0.12471012765E+02  0.13747290178E+02  0.24828913972E+01  0.18726422411E+02  0.00000000000E+00 0.  1.
         11    1    3    3    0    0 -0.43317766468E+01  0.11109601137E+02  0.68077211685E+01  0.13730717174E+02  0.51100000000E-03 0. -1.
        -11    1    3    3    0    0 -0.21490424284E+02 -0.33681870469E+02  0.52338315542E+00  0.39957235445E+02  0.51100000000E-03 0.  1.
        -12    1    3    3    0    0  0.13351188165E+02  0.88249791543E+01 -0.98139957211E+01  0.18773624970E+02  0.00000000000E+00 0.  1.
</event>
<event>
 7    1  0.1874105E-013  0.7246164E+02  0.7816164E-02  0.1226708E+00
        -11   -1    0    0    0    0  0.00000000000E+00  0.00000000000E+00  0.45593999997E+02  0.45594000000E+02  0.51100000000E-03 0.  1.
         11   -1    0    0    0    0 -0.00000000000E+00 -0.00000000000E+00 -0.45593999997E+02  0.45594000000E+02  0.51100000000E-03 0. -1.
    9900012    2    1    2    0    0  0.91368219380E+01  0.96904525388E+01 -0.13163971460E+02  0.72461640767E+02  0.70000091803E+02 0.  0.
        -12    1    1    2    0    0 -0.91368219380E+01 -0.96904525388E+01  0.13163971460E+02  0.18726359233E+02  0.00000000000E+00 0.  1.
         11    1    3    3    0    0 -0.18821062584E+02 -0.34145150879E+01  0.64200602466E+01  0.20176929496E+02  0.51100000000E-03 0. -1.
        -11    1    3    3    0    0  0.22501567728E+02  0.19796481145E+02  0.97505482356E+00  0.29986195959E+02  0.51100000000E-03 0.  1.
         12    1    3    3    0    0  0.54563167938E+01 -0.66915135185E+01 -0.20559086530E+02  0.22298515311E+02  0.00000000000E+00 0. -1.
</event>
<event>
 7    1  0.1874105E-013  0.7246159E+02  0.7816164E-02  0.1226708E+00
        -11   -1    0    0    0    0  0.00000000000E+00  0.00000000000E+00  0.45593999997E+02  0.45594000000E+02  0.51100000000E-03 0.  1.
         11   -1    0    0    0    0 -0.00000000000E+00 -0.00000000000E+00 -0.45593999997E+02  0.45594000000E+02  0.51100000000E-03 0. -1.
    9900012    2    1    2    0    0  0.14361011849E+02  0.84804197177E+01 -0.85160097091E+01  0.72461585467E+02  0.70000019765E+02 0.  0.
        -12    1    1    2    0    0 -0.14361011849E+02 -0.84804197177E+01  0.85160097091E+01  0.18726414533E+02  0.00000000000E+00 0.  1.
         11    1    3    3    0    0 -0.33724016766E+01 -0.74204343376E+01 -0.20879764269E+02  0.22414292204E+02  0.51100000000E-03 0. -1.
        -11    1    3    3    0    0 -0.19545038975E+01  0.16713472804E+02 -0.10522927728E+02  0.19846719298E+02  0.51100000000E-03 0.  1.
         12    1    3    3    0    0  0.19687917423E+02 -0.81261874894E+00  0.22886682288E+02  0.30200573965E+02  0.00000000000E+00 0. -1.
</event>
<event>
 7    1  0.1874105E-013  0.7246158E+02  0.7816164E-02  0.1226708E+00
        -11   -1    0    0    0    0  0.00000000000E+00  0.00000000000E+00  0.45593999997E+02  0.45594000000E+02  0.51100000000E-03 0. -1.
         11   -1    0    0    0    0 -0.00000000000E+00 -0.00000000000E+00 -0.45593999997E+02  0.45594000000E+02  0.51100000000E-03 0.  1.
    9900012    2    1    2    0    0 -0.43877590445E+01  0.77010679474E+01  0.16496059000E+02  0.72461579106E+02  0.70000011479E+02 0.  0.
        -12    1    1    2    0    0  0.43877590445E+01 -0.77010679474E+01 -0.16496059000E+02  0.18726420894E+02  0.00000000000E+00 0.  1.
         11    1    3    3    0    0  0.38173938086E+01  0.27142503699E+02 -0.15947248756E+02  0.31711240053E+02  0.51100000000E-03 0.  1.
        -11    1    3    3    0    0 -0.31734413300E+01 -0.19175968683E+02  0.23614139937E+02  0.30584573073E+02  0.51100000000E-03 0. -1.
         12    1    3    3    0    0 -0.50317115231E+01 -0.26546706876E+00  0.88291678185E+01  0.10165765981E+02  0.00000000000E+00 0. -1.
</event>
<event>
 7    1  0.1874105E-013  0.7246159E+02  0.7816164E-02  0.1226708E+00
        -11   -1    0    0    0    0  0.00000000000E+00  0.00000000000E+00  0.45593999997E+02  0.45594000000E+02  0.51100000000E-03 0. -1.
         11   -1    0    0    0    0 -0.00000000000E+00 -0.00000000000E+00 -0.45593999997E+02  0.45594000000E+02  0.51100000000E-03 0.  1.
    9900012    2    1    2    0    0 -0.14829042710E+02  0.11315685348E+02 -0.16531887989E+01  0.72461594157E+02  0.70000031086E+02 0.  0.
        -12    1    1    2    0    0  0.14829042710E+02 -0.11315685348E+02  0.16531887989E+01  0.18726405843E+02  0.00000000000E+00 0.  1.
         11    1    3    3    0    0 -0.44578633858E+01 -0.17419986095E+02  0.71345246637E+01  0.19345022718E+02  0.51100000000E-03 0. -1.
        -11    1    3    3    0    0 -0.24496656098E+02  0.27751036319E+02 -0.11632677386E+01  0.37034569916E+02  0.51100000000E-03 0.  1.
         12    1    3    3    0    0  0.14125476773E+02  0.98463512428E+00 -0.76244457240E+01  0.16082001523E+02  0.00000000000E+00 0. -1.
</event>
<event>
 7    1  0.1874105E-013  0.7246159E+02  0.7816164E-02  0.1226708E+00
        -11   -1    0    0    0    0  0.00000000000E+00  0.00000000000E+00  0.45593999997E+02  0.45594000000E+02  0.51100000000E-03 0.  1.
         11   -1    0    0    0    0 -0.00000000000E+00 -0.00000000000E+00 -0.45593999997E+02  0.45594000000E+02  0.51100000000E-03 0. -1.
    9900012    2    1    2    0    0 -0.11010519779E+02  0.69825536667E+01 -0.13442133145E+02  0.72461586970E+02  0.70000021723E+02 0.  0.
        -12    1    1    2    0    0  0.11010519779E+02 -0.69825536667E+01  0.13442133145E+02  0.18726413030E+02  0.00000000000E+00 0.  1.
         11    1    3    3    0    0 -0.35801677723E+02 -0.57201789222E+01 -0.14987621501E+02  0.39231484463E+02  0.51100000000E-03 0.  1.
        -11    1    3    3    0    0  0.58536898021E+01  0.80985991847E+01  0.78924040834E+01  0.12733539788E+02  0.51100000000E-03 0. -1.
         12    1    3    3    0    0  0.18937468142E+02  0.46041334042E+01 -0.63469157272E+01  0.20496562719E+02  0.00000000000E+00 0. -1.
</event>
<event>
 7    1  0.1874105E-013  0.7246157E+02  0.7816164E-02  0.1226708E+00
        -11   -1    0    0    0    0  0.00000000000E+00  0.00000000000E+00  0.45593999997E+02  0.45594000000E+02  0.51100000000E-03 0. -1.
         11   -1    0    0    0    0 -0.00000000000E+00 -0.00000000000E+00 -0.45593999997E+02  0.45594000000E+02  0.51100000000E-03 0.  1.
    9900012    2    1    2    0    0 -0.16341195150E+02 -0.87331198005E+01  0.27160673756E+01  0.72461573155E+02  0.70000003727E+02 0.  0.
        -12    1    1    2    0    0  0.16341195150E+02  0.87331198005E+01 -0.27160673756E+01  0.18726426845E+02  0.00000000000E+00 0.  1.
         11    1    3    3    0    0 -0.42487685141E+01 -0.60660134944E+01  0.97133875254E+01  0.12214681784E+02  0.51100000000E-03 0. -1.
        -11    1    3    3    0    0 -0.43949942113E+01 -0.28511063315E+02 -0.14457756868E+02  0.32267994041E+02  0.51100000000E-03 0.  1.
        -12    1    3    3    0    0 -0.76974324247E+01  0.25843957009E+02  0.74604367182E+01  0.27978897331E+02  0.00000000000E+00 0.  1.
</event>
<event>
 7    1  0.1874105E-013  0.7246172E+02  0.7816164E-02  0.1226708E+00
        -11   -1    0    0    0    0  0.00000000000E+00  0.00000000000E+00  0.45593999997E+02  0.45594000000E+02  0.51100000000E-03 0. -1.
         11   -1    0    0    0    0 -0.00000000000E+00 -0.00000000000E+00 -0.45593999997E+02  0.45594000000E+02  0.51100000000E-03 0.  1.
    9900012    2    1    2    0    0  0.12855913361E+02 -0.19625821159E+01  0.13473952648E+02  0.72461718018E+02  0.70000192437E+02 0.  0.
        -12    1    1    2    0    0 -0.12855913361E+02  0.19625821159E+01 -0.13473952648E+02  0.18726281982E+02  0.00000000000E+00 0.  1.
         11    1    3    3    0    0  0.24173903426E+02  0.17051307059E+02  0.16606682972E+02  0.33925014353E+02  0.51100000000E-03 0. -1.
        -11    1    3    3    0    0 -0.46939939743E+01 -0.23097988392E+02  0.80551689798E+01  0.24908560672E+02  0.51100000000E-03 0.  1.
        -12    1    3    3    0    0 -0.66239960905E+01  0.40840992176E+01 -0.11187899303E+02  0.13628142993E+02  0.00000000000E+00 0.  1.
</event>
<event>
 7    1  0.1874105E-013  0.7246159E+02  0.7816164E-02  0.1226708E+00
        -11   -1    0    0    0    0  0.00000000000E+00  0.00000000000E+00  0.45593999997E+02  0.45594000000E+02  0.51100000000E-03 0.  1.
         11   -1    0    0    0    0 -0.00000000000E+00 -0.00000000000E+00 -0.45593999997E+02  0.45594000000E+02  0.51100000000E-03 0. -1.
    9900012    2    1    2    0    0  0.12738608953E+02 -0.78087520044E+01 -0.11288468304E+02  0.72461593976E+02  0.70000030850E+02 0.  0.
        -12    1    1    2    0    0 -0.12738608953E+02  0.78087520044E+01  0.11288468304E+02  0.18726406024E+02  0.00000000000E+00 0.  1.
         11    1    3    3    0    0  0.23678590996E+02 -0.19012389296E+02 -0.17171521479E+02  0.34885638427E+02  0.51100000000E-03 0. -1.
        -11    1    3    3    0    0  0.67057670297E+01  0.15330116869E+02  0.92871887353E+01  0.19137180292E+02  0.51100000000E-03 0.  1.
        -12    1    3    3    0    0 -0.17645749073E+02 -0.41264795770E+01 -0.34041355602E+01  0.18438775256E+02  0.00000000000E+00 0.  1.
</event>
<event>
 7    1  0.1874105E-013  0.7246158E+02  0.7816164E-02  0.1226708E+00
        -11   -1    0    0    0    0  0.00000000000E+00  0.00000000000E+00  0.45593999997E+02  0.45594000000E+02  0.51100000000E-03 0. -1.
         11   -1    0    0    0    0 -0.00000000000E+00 -0.00000000000E+00 -0.45593999997E+02  0.45594000000E+02  0.51100000000E-03 0.  1.
    9900012    2    1    2    0    0 -0.41736364680E+01  0.14425518182E+02  0.11187667451E+02  0.72461582318E+02  0.70000015664E+02 0.  0.
        -12    1    1    2    0    0  0.41736364680E+01 -0.14425518182E+02 -0.11187667451E+02  0.18726417682E+02  0.00000000000E+00 0.  1.
         11    1    3    3    0    0 -0.22843535488E+01 -0.14508023500E+02  0.27098971090E+02  0.30822966298E+02  0.51100000000E-03 0. -1.
        -11    1    3    3    0    0 -0.95038362891E+00  0.31809303349E+02 -0.74936602091E+01  0.32693882489E+02  0.51100000000E-03 0.  1.
        -12    1    3    3    0    0 -0.93889929029E+00 -0.28757616669E+01 -0.84176434300E+01  0.89447335319E+01  0.00000000000E+00 0.  1.
</event>
<event>
 7    1  0.1874105E-013  0.7246148E+02  0.7816164E-02  0.1226708E+00
        -11   -1    0    0    0    0  0.00000000000E+00  0.00000000000E+00  0.45593999997E+02  0.45594000000E+02  0.51100000000E-03 0.  1.
         11   -1    0    0    0    0 -0.00000000000E+00 -0.00000000000E+00 -0.45593999997E+02  0.45594000000E+02  0.51100000000E-03 0. -1.
    9900012    2    1    2    0    0 -0.14391175177E+02  0.11424057661E+02 -0.36148866283E+01  0.72461483459E+02  0.69999886881E+02 0.  0.
        -12    1    1    2    0    0  0.14391175177E+02 -0.11424057661E+02  0.36148866283E+01  0.18726516541E+02  0.00000000000E+00 0.  1.
         11    1    3    3    0    0  0.22201275171E+02  0.20299792939E+01 -0.53040616954E+01  0.22916162547E+02  0.51100000000E-03 0. -1.
        -11    1    3    3    0    0 -0.30975080654E+02 -0.72999903265E+01  0.24268009607E+01  0.31916059334E+02  0.51100000000E-03 0.  1.
         12    1    3    3    0    0 -0.56173696935E+01  0.16694068694E+02 -0.73762589364E+00  0.17629261578E+02  0.00000000000E+00 0. -1.
</event>
<event>
 7    1  0.1874105E-013  0.7246160E+02  0.7816164E-02  0.1226708E+00
        -11   -1    0    0    0    0  0.00000000000E+00  0.00000000000E+00  0.45593999997E+02  0.45594000000E+02  0.51100000000E-03 0.  1.
         11   -1    0    0    0    0 -0.00000000000E+00 -0.00000000000E+00 -0.45593999997E+02  0.45594000000E+02  0.51100000000E-03 0. -1.
    9900012    2    1    2    0    0 -0.97821359522E+01 -0.65197974498E+01 -0.14576696550E+02  0.72461600856E+02  0.70000039813E+02 0.  0.
        -12    1    1    2    0    0  0.97821359522E+01  0.65197974498E+01  0.14576696550E+02  0.18726399144E+02  0.00000000000E+00 0.  1.
         11    1    3    3    0    0  0.71663170161E+00 -0.59673870552E+01  0.88604201690E+01  0.10706554772E+02  0.51100000000E-03 0. -1.
        -11    1    3    3    0    0 -0.37645599638E+01  0.21672733558E+02 -0.30388013743E+02  0.37514139616E+02  0.51100000000E-03 0.  1.
        -12    1    3    3    0    0 -0.67342076900E+01 -0.22225143953E+02  0.69508970244E+01  0.24240906468E+02  0.00000000000E+00 0.  1.
</event>
<event>
 7    1  0.1874105E-013  0.7246157E+02  0.7816164E-02  0.1226708E+00
        -11   -1    0    0    0    0  0.00000000000E+00  0.00000000000E+00  0.45593999997E+02  0.45594000000E+02  0.51100000000E-03 0.  1.
         11   -1    0    0    0    0 -0.00000000000E+00 -0.00000000000E+00 -0.45593999997E+02  0.45594000000E+02  0.51100000000E-03 0. -1.
    9900012    2    1    2    0    0 -0.95635142651E+00 -0.24766263446E+01 -0.18537279669E+02  0.72461574190E+02  0.70000005074E+02 0.  0.
        -12    1    1    2    0    0  0.95635142651E+00  0.24766263446E+01  0.18537279669E+02  0.18726425810E+02  0.00000000000E+00 0.  1.
         11    1    3    3    0    0 -0.11480367195E+02  0.20525777965E+02 -0.24517564427E+02  0.33973774557E+02  0.51100000000E-03 0. -1.
        -11    1    3    3    0    0  0.59353256129E+01 -0.42207005533E+01  0.15359537966E+02  0.16998759075E+02  0.51100000000E-03 0.  1.
         12    1    3    3    0    0  0.45886901560E+01 -0.18781703756E+02 -0.93792532086E+01  0.21489040557E+02  0.00000000000E+00 0. -1.
</event>
<event>
 7    1  0.1874105E-013  0.7246159E+02  0.7816164E-02  0.1226708E+00
        -11   -1    0    0    0    0  0.00000000000E+00  0.00000000000E+00  0.45593999997E+02  0.45594000000E+02  0.51100000000E-03 0.  1.
         11   -1    0    0    0    0 -0.00000000000E+00 -0.00000000000E+00 -0.45593999997E+02  0.45594000000E+02  0.51100000000E-03 0. -1.
    9900012    2    1    2    0    0 -0.12042590831E+02  0.43491821711E+01 -0.13665254498E+02  0.72461586570E+02  0.70000021202E+02 0.  0.
        -12    1    1    2    0    0  0.12042590831E+02 -0.43491821711E+01  0.13665254498E+02  0.18726413430E+02  0.00000000000E+00 0.  1.
         11    1    3    3    0    0 -0.22291567707E+02  0.18228529888E+02 -0.30125346743E+02  0.41674090385E+02  0.51100000000E-03 0. -1.
        -11    1    3    3    0    0 -0.23969531443E+01 -0.12087091039E+02  0.40291072168E+01  0.12964445973E+02  0.51100000000E-03 0.  1.
         12    1    3    3    0    0  0.12645930021E+02 -0.17922566782E+01  0.12430985028E+02  0.17823050212E+02  0.00000000000E+00 0. -1.
</event>
<event>
 7    1  0.1874105E-013  0.7246156E+02  0.7816164E-02  0.1226708E+00
        -11   -1    0    0    0    0  0.00000000000E+00  0.00000000000E+00  0.45593999997E+02  0.45594000000E+02  0.51100000000E-03 0. -1.
         11   -1    0    0    0    0 -0.00000000000E+00 -0.00000000000E+00 -0.45593999997E+02  0.45594000000E+02  0.51100000000E-03 0.  1.
    9900012    2    1    2    0    0 -0.14651868427E+02 -0.18840204943E+01  0.11508806118E+02  0.72461564143E+02  0.69999991987E+02 0.  0.
        -12    1    1    2    0    0  0.14651868427E+02  0.18840204943E+01 -0.11508806118E+02  0.18726435857E+02  0.00000000000E+00 0.  1.
         11    1    3    3    0    0  0.51006596433E+01 -0.43873242291E+01  0.46078414578E+01  0.81546027402E+01  0.51100000000E-03 0. -1.
        -11    1    3    3    0    0 -0.21330906502E+01  0.30630191260E+02  0.21606895660E+01  0.30780306562E+02  0.51100000000E-03 0.  1.
        -12    1    3    3    0    0 -0.17619437420E+02 -0.28126887526E+02  0.47402750947E+01  0.33526654841E+02  0.00000000000E+00 0.  1.
</event>
<event>
 7    1  0.1874105E-013  0.7246157E+02  0.7816164E-02  0.1226708E+00
        -11   -1    0    0    0    0  0.00000000000E+00  0.00000000000E+00  0.45593999997E+02  0.45594000000E+02  0.51100000000E-03 0.  1.
         11   -1    0    0    0    0 -0.00000000000E+00 -0.00000000000E+00 -0.45593999997E+02  0.45594000000E+02  0.51100000000E-03 0. -1.
    9900012    2    1    2    0    0 -0.21259435157E+01  0.16379421385E+02 -0.88246237999E+01  0.72461573060E+02  0.70000003602E+02 0.  0.
        -12    1    1    2    0    0  0.21259435157E+01 -0.16379421385E+02  0.88246237999E+01  0.18726426940E+02  0.00000000000E+00 0.  1.
         11    1    3    3    0    0 -0.11896868910E+02  0.35825602139E+01 -0.24171562893E+02  0.27177834360E+02  0.51100000000E-03 0. -1.
        -11    1    3    3    0    0  0.74866269899E+01  0.25349976458E+02  0.18347882245E+02  0.32176321624E+02  0.51100000000E-03 0.  1.
        -12    1    3    3    0    0  0.22842984046E+01 -0.12553115287E+02 -0.30009431516E+01  0.13107417076E+02  0.00000000000E+00 0.  1.
</event>
<event>
 7    1  0.1874105E-013  0.7246165E+02  0.7816164E-02  0.1226708E+00
        -11   -1    0    0    0    0  0.00000000000E+00  0.00000000000E+00  0.45593999997E+02  0.45594000000E+02  0.51100000000E-03 0. -1.
         11   -1    0    0    0    0 -0.00000000000E+00 -0.00000000000E+00 -0.45593999997E+02  0.45594000000E+02  0.51100000000E-03 0.  1.
    9900012    2    1    2    0    0  0.11702418882E+02 -0.22558876294E+01  0.14444400976E+02  0.72461645410E+02  0.70000097852E+02 0.  0.
        -12    1    1    2    0    0 -0.11702418882E+02  0.22558876294E+01 -0.14444400976E+02  0.18726354590E+02  0.00000000000E+00 0.  1.
         11    1    3    3    0    0  0.16578427180E+01  0.50327748647E+01  0.90406006438E+01  0.10479013578E+02  0.51100000000E-03 0. -1.
        -11    1    3    3    0    0  0.22453955513E+02 -0.28986822776E+02  0.48014571409E+01  0.36979318595E+02  0.51100000000E-03 0.  1.
        -12    1    3    3    0    0 -0.12409379350E+02  0.21698160282E+02  0.60234319147E+00  0.25003313236E+02  0.00000000000E+00 0.  1.
</event>
<event>
 7    1  0.1874105E-013  0.7246193E+02  0.7816164E-02  0.1226707E+00
        -11   -1    0    0    0    0  0.00000000000E+00  0.00000000000E+00  0.45593999997E+02  0.45594000000E+02  0.51100000000E-03 0.  1.
         11   -1    0    0    0    0 -0.00000000000E+00 -0.00000000000E+00 -0.45593999997E+02  0.45594000000E+02  0.51100000000E-03 0. -1.
    9900012    2    1    2    0    0 -0.16220681292E+02 -0.87414060049E+01  0.33381225255E+01  0.72461928802E+02  0.70000467021E+02 0.  0.
        -12    1    1    2    0    0  0.16220681292E+02  0.87414060049E+01 -0.33381225255E+01  0.18726071198E+02  0.00000000000E+00 0.  1.
         11    1    3    3    0    0 -0.75241513242E+00 -0.29957399206E+02 -0.12860391967E+02  0.32609838661E+02  0.51100000000E-03 0. -1.
        -11    1    3    3    0    0  0.38883309669E+01  0.61296815104E+01  0.13284557114E+02  0.15138413758E+02  0.51100000000E-03 0.  1.
         12    1    3    3    0    0 -0.19356597127E+02  0.15086311690E+02  0.29139573790E+01  0.24713676383E+02  0.00000000000E+00 0. -1.
</event>
<event>
 7    1  0.1874105E-013  0.7246102E+02  0.7816164E-02  0.1226709E+00
        -11   -1    0    0    0    0  0.00000000000E+00  0.00000000000E+00  0.45593999997E+02  0.45594000000E+02  0.51100000000E-03 0.  1.
         11   -1    0    0    0    0 -0.00000000000E+00 -0.00000000000E+00 -0.45593999997E+02  0.45594000000E+02  0.51100000000E-03 0. -1.
    9900012    2    1    2    0    0  0.63739118067E+01 -0.47803472029E+01 -0.16947606406E+02  0.72461018556E+02  0.69999281255E+02 0.  0.
        -12    1    1    2    0    0 -0.63739118067E+01  0.47803472029E+01  0.16947606406E+02  0.18726981444E+02  0.00000000000E+00 0.  1.
         11    1    3    3    0    0  0.17877746274E+02 -0.17750593300E+02 -0.30138772054E+02  0.39281585451E+02  0.51100000000E-03 0. -1.
        -11    1    3    3    0    0 -0.48321209154E+01  0.20064258591E+02  0.99875792470E+01  0.22927616641E+02  0.51100000000E-03 0.  1.
         12    1    3    3    0    0 -0.66717135517E+01 -0.70940124945E+01  0.32035864006E+01  0.10251816464E+02  0.00000000000E+00 0. -1.
</event>
<event>
 7    1  0.1874105E-013  0.7246160E+02  0.7816164E-02  0.1226708E+00
        -11   -1    0    0    0    0  0.00000000000E+00  0.00000000000E+00  0.45593999997E+02  0.45594000000E+02  0.51100000000E-03 0.  1.
         11   -1    0    0    0    0 -0.00000000000E+00 -0.00000000000E+00 -0.45593999997E+02  0.45594000000E+02  0.51100000000E-03 0. -1.
    9900012    2    1    2    0    0 -0.77959839127E+01  0.12948936920E+02  0.11055570020E+02  0.72461602563E+02  0.70000042035E+02 0.  0.
        -12    1    1    2    0    0  0.77959839127E+01 -0.12948936920E+02 -0.11055570020E+02  0.18726397437E+02  0.00000000000E+00 0.  1.
         11    1    3    3    0    0  0.10724858693E+01  0.23860799410E+02 -0.29028555375E+01  0.24060643071E+02  0.51100000000E-03 0. -1.
        -11    1    3    3    0    0  0.32163850242E+01 -0.98861077601E+01  0.27987578044E+02  0.29856067797E+02  0.51100000000E-03 0.  1.
        -12    1    3    3    0    0 -0.12084854806E+02 -0.10257547306E+01 -0.14029152487E+02  0.18544891695E+02  0.00000000000E+00 0.  1.
</event>
<event>
 7    1  0.1874105E-013  0.7246159E+02  0.7816164E-02  0.1226708E+00
        -11   -1    0    0    0    0  0.00000000000E+00  0.00000000000E+00  0.45593999997E+02  0.45594000000E+02  0.51100000000E-03 0. -1.
         11   -1    0    0    0    0 -0.00000000000E+00 -0.00000000000E+00 -0.45593999997E+02  0.45594000000E+02  0.51100000000E-03 0.  1.
    9900012    2    1    2    0    0 -0.87002204252E+01 -0.16030873034E+02 -0.42421243625E+01  0.72461592315E+02  0.70000028686E+02 0.  0.
        -12    1    1    2    0    0  0.87002204252E+01  0.16030873034E+02  0.42421243625E+01  0.18726407685E+02  0.00000000000E+00 0.  1.
         11    1    3    3    0    0  0.24872053833E+01  0.20266720637E+02  0.83584377480E+00  0.20435870206E+02  0.51100000000E-03 0.  1.
        -11    1    3    3    0    0 -0.22755999912E+02 -0.30015510021E+02  0.64327564502E+00  0.37672007879E+02  0.51100000000E-03 0. -1.
        -12    1    3    3    0    0  0.11568574104E+02 -0.62820836503E+01 -0.57212437823E+01  0.14353714230E+02  0.00000000000E+00 0.  1.
</event>
<event>
 7    1  0.1874105E-013  0.7246156E+02  0.7816164E-02  0.1226708E+00
        -11   -1    0    0    0    0  0.00000000000E+00  0.00000000000E+00  0.45593999997E+02  0.45594000000E+02  0.51100000000E-03 0.  1.
         11   -1    0    0    0    0 -0.00000000000E+00 -0.00000000000E+00 -0.45593999997E+02  0.45594000000E+02  0.51100000000E-03 0. -1.
    9900012    2    1    2    0    0 -0.70720313895E+01 -0.11302960232E+02 -0.13149480664E+02  0.72461564683E+02  0.69999992690E+02 0.  0.
        -12    1    1    2    0    0  0.70720313895E+01  0.11302960232E+02  0.13149480664E+02  0.18726435317E+02  0.00000000000E+00 0.  1.
         11    1    3    3    0    0  0.17569619237E+02 -0.23460970795E+02  0.62284937713E+01  0.29965026376E+02  0.51100000000E-03 0. -1.
        -11    1    3    3    0    0 -0.21857343835E+02  0.19177390347E+02 -0.10677928264E+02  0.30976344722E+02  0.51100000000E-03 0.  1.
        -12    1    3    3    0    0 -0.27843067911E+01 -0.70193797834E+01 -0.87000461711E+01  0.11520193585E+02  0.00000000000E+00 0.  1.
</event>
<event>
 7    1  0.1874105E-013  0.7246147E+02  0.7816164E-02  0.1226708E+00
        -11   -1    0    0    0    0  0.00000000000E+00  0.00000000000E+00  0.45593999997E+02  0.45594000000E+02  0.51100000000E-03 0.  1.
         11   -1    0    0    0    0 -0.00000000000E+00 -0.00000000000E+00 -0.45593999997E+02  0.45594000000E+02  0.51100000000E-03 0. -1.
    9900012    2    1    2    0    0 -0.40291989626E+01  0.18190392700E+02 -0.18862616393E+01  0.72461472990E+02  0.69999873243E+02 0.  0.
        -12    1    1    2    0    0  0.40291989626E+01 -0.18190392700E+02  0.18862616393E+01  0.18726527010E+02  0.00000000000E+00 0.  1.
         11    1    3    3    0    0 -0.85088531859E+01 -0.21670030442E+01 -0.19811826726E+02  0.21670370629E+02  0.51100000000E-03 0. -1.
        -11    1    3    3    0    0 -0.36055558243E+01  0.14964570949E+02  0.30934565463E+02  0.34552651955E+02  0.51100000000E-03 0.  1.
        -12    1    3    3    0    0  0.80852100476E+01  0.53928247951E+01 -0.13009000377E+02  0.16238450406E+02  0.00000000000E+00 0.  1.
</event>
<event>
 7    1  0.1874105E-013  0.7246153E+02  0.7816164E-02  0.1226708E+00
        -11   -1    0    0    0    0  0.00000000000E+00  0.00000000000E+00  0.45593999997E+02  0.45594000000E+02  0.51100000000E-03 0.  1.
         11   -1    0    0    0    0 -0.00000000000E+00 -0.00000000000E+00 -0.45593999997E+02  0.45594000000E+02  0.51100000000E-03 0. -1.
    9900012    2    1    2    0    0 -0.15479819915E+02  0.51775164551E+00  0.10525574968E+02  0.72461531572E+02  0.69999949558E+02 0.  0.
        -12    1    1    2    0    0  0.15479819915E+02 -0.51775164551E+00 -0.10525574968E+02  0.18726468428E+02  0.00000000000E+00 0.  1.
         11    1    3    3    0    0 -0.41813336862E+01 -0.27466816335E+02 -0.50409125901E+01  0.28236861564E+02  0.51100000000E-03 0. -1.
        -11    1    3    3    0    0 -0.55928754354E+01  0.10077620782E+02  0.21602825001E+02  0.24485112712E+02  0.51100000000E-03 0.  1.
        -12    1    3    3    0    0 -0.57056107933E+01  0.17906947199E+02 -0.60363374429E+01  0.19739557296E+02  0.00000000000E+00 0.  1.
</event>
<event>
 7    1  0.1874105E-013  0.7246160E+02  0.7816164E-02  0.1226708E+00
        -11   -1    0    0    0    0  0.00000000000E+00  0.00000000000E+00  0.45593999997E+02  0.45594000000E+02  0.51100000000E-03 0.  1.
         11   -1    0    0    0    0 -0.00000000000E+00 -0.00000000000E+00 -0.45593999997E+02  0.45594000000E+02  0.51100000000E-03 0. -1.
    9900012    2    1    2    0    0  0.13891075222E+02  0.71798105526E+01 -0.10303707129E+02  0.72461600694E+02  0.70000039601E+02 0.  0.
        -12    1    1    2    0    0 -0.13891075222E+02 -0.71798105526E+01  0.10303707129E+02  0.18726399306E+02  0.00000000000E+00 0.  1.
         11    1    3    3    0    0 -0.48107218550E+01  0.18967294652E+02 -0.69038263625E+01  0.20750039274E+02  0.51100000000E-03 0. -1.
        -11    1    3    3    0    0  0.31589037418E+01 -0.19429949759E+02 -0.19755982712E+02  0.27889074450E+02  0.51100000000E-03 0.  1.
        -12    1    3    3    0    0  0.15542893335E+02  0.76424656594E+01  0.16356101946E+02  0.23822486970E+02  0.00000000000E+00 0.  1.
</event>
<event>
 7    1  0.1874105E-013  0.7246154E+02  0.7816164E-02  0.1226708E+00
        -11   -1    0    0    0    0  0.00000000000E+00  0.00000000000E+00  0.45593999997E+02  0.45594000000E+02  0.51100000000E-03 0. -1.
         11   -1    0    0    0    0 -0.00000000000E+00 -0.00000000000E+00 -0.45593999997E+02  0.45594000000E+02  0.51100000000E-03 0.  1.
    9900012    2    1    2    0    0 -0.49319766352E+01 -0.18004864368E+02  0.14767870819E+01  0.72461536519E+02  0.69999956001E+02 0.  0.
        -12    1    1    2    0    0  0.49319766352E+01  0.18004864368E+02 -0.14767870819E+01  0.18726463481E+02  0.00000000000E+00 0.  1.
         11    1    3    3    0    0  0.12197962458E+02  0.58600987891E+01 -0.13813345212E+02  0.19337516701E+02  0.51100000000E-03 0. -1.
        -11    1    3    3    0    0 -0.16918332253E+02 -0.25830756604E+02 -0.62408252466E+01  0.31502473760E+02  0.51100000000E-03 0.  1.
         12    1    3    3    0    0 -0.21160684019E+00  0.19657934473E+01  0.21530957540E+02  0.21621546058E+02  0.00000000000E+00 0. -1.
</event>
<event>
 7    1  0.1874105E-013  0.7246157E+02  0.7816164E-02  0.1226708E+00
        -11   -1    0    0    0    0  0.00000000000E+00  0.00000000000E+00  0.45593999997E+02  0.45594000000E+02  0.51100000000E-03 0.  1.
         11   -1    0    0    0    0 -0.00000000000E+00 -0.00000000000E+00 -0.45593999997E+02  0.45594000000E+02  0.51100000000E-03 0. -1.
    9900012    2    1    2    0    0  0.32972098716E+01 -0.15500753984E+02  0.99766799173E+01  0.72461571906E+02  0.70000002099E+02 0.  0.
        -12    1    1    2    0    0 -0.32972098716E+01  0.15500753984E+02 -0.99766799173E+01  0.18726428094E+02  0.00000000000E+00 0.  1.
         11    1    3    3    0    0  0.61779046391E+01 -0.73742462926E+00 -0.22957076643E+02  0.23785240572E+02  0.51100000000E-03 0. -1.
        -11    1    3    3    0    0  0.73726225973E+01 -0.21690032009E+02  0.17131699935E+02  0.28606086685E+02  0.51100000000E-03 0.  1.
         12    1    3    3    0    0 -0.10253317365E+02  0.69267026546E+01  0.15802056625E+02  0.20070244648E+02  0.00000000000E+00 0. -1.
</event>
<event>
 7    1  0.1874105E-013  0.7246173E+02  0.7816164E-02  0.1226708E+00
        -11   -1    0    0    0    0  0.00000000000E+00  0.00000000000E+00  0.45593999997E+02  0.45594000000E+02  0.51100000000E-03 0. -1.
         11   -1    0    0    0    0 -0.00000000000E+00 -0.00000000000E+00 -0.45593999997E+02  0.45594000000E+02  0.51100000000E-03 0.  1.
    9900012    2    1    2    0    0  0.11731849310E+01  0.62768496012E+01  0.17603924626E+02  0.72461725249E+02  0.70000201858E+02 0.  0.
        -12    1    1    2    0    0 -0.11731849310E+01 -0.62768496012E+01 -0.17603924626E+02  0.18726274751E+02  0.00000000000E+00 0.  1.
         11    1    3    3    0    0  0.14692394604E+02  0.29350355264E+02  0.18967563578E+02  0.37908815356E+02  0.51100000000E-03 0. -1.
        -11    1    3    3    0    0 -0.46257585493E+01 -0.18184851898E+02  0.83198131413E+01  0.20525734376E+02  0.51100000000E-03 0.  1.
         12    1    3    3    0    0 -0.88934511240E+01 -0.48886537653E+01 -0.96834520939E+01  0.14027175517E+02  0.00000000000E+00 0. -1.
</event>
<event>
 7    1  0.2166606E-013  0.7246157E+02  0.7816164E-02  0.1226708E+00
        -11   -1    0    0    0    0  0.00000000000E+00  0.00000000000E+00  0.45593999997E+02  0.45594000000E+02  0.51100000000E-03 0.  1.
         11   -1    0    0    0    0 -0.00000000000E+00 -0.00000000000E+00 -0.45593999997E+02  0.45594000000E+02  0.51100000000E-03 0. -1.
    9900012    2    1    2    0    0  0.49734608136E-02 -0.17220515143E+02 -0.73575155435E+01  0.72461569441E+02  0.69999998888E+02 0.  0.
        -12    1    1    2    0    0 -0.49734608136E-02  0.17220515143E+02  0.73575155435E+01  0.18726430559E+02  0.00000000000E+00 0.  1.
         11    1    3    3    0    0  0.97175955760E+01 -0.32515310731E+02  0.60389139275E+00  0.33941740980E+02  0.51100000000E-03 0. -1.
        -11    1    3    3    0    0  0.12659480281E+01  0.15068270858E+02  0.95251697548E+01  0.17871325362E+02  0.51100000000E-03 0.  1.
        -12    1    3    3    0    0 -0.10978570143E+02  0.22652473008E+00 -0.17486576691E+02  0.20648503099E+02  0.00000000000E+00 0.  1.
</event>
<event>
 7    1  0.1874105E-013  0.7246175E+02  0.7816164E-02  0.1226708E+00
        -11   -1    0    0    0    0  0.00000000000E+00  0.00000000000E+00  0.45593999997E+02  0.45594000000E+02  0.51100000000E-03 0. -1.
         11   -1    0    0    0    0 -0.00000000000E+00 -0.00000000000E+00 -0.45593999997E+02  0.45594000000E+02  0.51100000000E-03 0.  1.
    9900012    2    1    2    0    0 -0.67136103640E+01 -0.33345607167E+01  0.17160438417E+02  0.72461748214E+02  0.70000231773E+02 0.  0.
        -12    1    1    2    0    0  0.67136103640E+01  0.33345607167E+01 -0.17160438417E+02  0.18726251786E+02  0.00000000000E+00 0.  1.
         11    1    3    3    0    0 -0.24995422612E+02  0.11261809403E+01  0.32097701293E+02  0.40697688676E+02  0.51100000000E-03 0. -1.
        -11    1    3    3    0    0 -0.23609641967E+01 -0.65595165663E+01 -0.58968053880E+01  0.91309212880E+01  0.51100000000E-03 0.  1.
         12    1    3    3    0    0  0.20642776444E+02  0.20987749094E+01 -0.90404574877E+01  0.22633138250E+02  0.00000000000E+00 0. -1.
</event>
<event>
 7    1  0.1874105E-013  0.7246155E+02  0.7816164E-02  0.1226708E+00
        -11   -1    0    0    0    0  0.00000000000E+00  0.00000000000E+00  0.45593999997E+02  0.45594000000E+02  0.51100000000E-03 0.  1.
         11   -1    0    0    0    0 -0.00000000000E+00 -0.00000000000E+00 -0.45593999997E+02  0.45594000000E+02  0.51100000000E-03 0. -1.
    9900012    2    1    2    0    0  0.18466407080E+02  0.43785298021E+00 -0.30789899480E+01  0.72461545857E+02  0.69999968165E+02 0.  0.
        -12    1    1    2    0    0 -0.18466407080E+02 -0.43785298021E+00  0.30789899480E+01  0.18726454143E+02  0.00000000000E+00 0.  1.
         11    1    3    3    0    0 -0.32188520989E+01  0.19191369059E+02 -0.21833791347E+02  0.29246950269E+02  0.51100000000E-03 0. -1.
        -11    1    3    3    0    0  0.11305300735E+02 -0.24531781183E+02  0.12100176725E+02  0.29597844343E+02  0.51100000000E-03 0.  1.
         12    1    3    3    0    0  0.10379958444E+02  0.57782651036E+01  0.66546246735E+01  0.13616751244E+02  0.00000000000E+00 0. -1.
</event>
<event>
 7    1  0.1874105E-013  0.7246145E+02  0.7816164E-02  0.1226708E+00
        -11   -1    0    0    0    0  0.00000000000E+00  0.00000000000E+00  0.45593999997E+02  0.45594000000E+02  0.51100000000E-03 0. -1.
         11   -1    0    0    0    0 -0.00000000000E+00 -0.00000000000E+00 -0.45593999997E+02  0.45594000000E+02  0.51100000000E-03 0.  1.
    9900012    2    1    2    0    0  0.10519412901E+01 -0.11189363912E+02  0.14979161486E+02  0.72461448687E+02  0.69999841584E+02 0.  0.
        -12    1    1    2    0    0 -0.10519412901E+01  0.11189363912E+02 -0.14979161486E+02  0.18726551313E+02  0.00000000000E+00 0.  1.
         11    1    3    3    0    0  0.13005258497E+02 -0.26527800403E+02  0.12708791833E+02  0.32161690454E+02  0.51100000000E-03 0. -1.
        -11    1    3    3    0    0  0.12267546691E+02  0.69668362847E+01 -0.22234237598E+01  0.14281915947E+02  0.51100000000E-03 0.  1.
         12    1    3    3    0    0 -0.24220863898E+02  0.83716002055E+01  0.44937934133E+01  0.26017842286E+02  0.00000000000E+00 0. -1.
</event>
<event>
 7    1  0.1874105E-013  0.7246166E+02  0.7816164E-02  0.1226708E+00
        -11   -1    0    0    0    0  0.00000000000E+00  0.00000000000E+00  0.45593999997E+02  0.45594000000E+02  0.51100000000E-03 0.  1.
         11   -1    0    0    0    0 -0.00000000000E+00 -0.00000000000E+00 -0.45593999997E+02  0.45594000000E+02  0.51100000000E-03 0. -1.
    9900012    2    1    2    0    0  0.33431062390E+01  0.64042457246E+01 -0.17276715919E+02  0.72461664652E+02  0.70000122918E+02 0.  0.
        -12    1    1    2    0    0 -0.33431062390E+01 -0.64042457246E+01  0.17276715919E+02  0.18726335348E+02  0.00000000000E+00 0.  1.
         11    1    3    3    0    0  0.57790508390E+01 -0.11476534217E+02 -0.35246068098E+02  0.37515244673E+02  0.51100000000E-03 0. -1.
        -11    1    3    3    0    0  0.94726244769E+01  0.78954344970E+01  0.14478386731E+02  0.19018206618E+02  0.51100000000E-03 0.  1.
        -12    1    3    3    0    0 -0.11908569077E+02  0.99853454449E+01  0.34909654478E+01  0.15928213361E+02  0.00000000000E+00 0.  1.
</event>
<event>
 7    1  0.1874105E-013  0.7246155E+02  0.7816164E-02  0.1226708E+00
        -11   -1    0    0    0    0  0.00000000000E+00  0.00000000000E+00  0.45593999997E+02  0.45594000000E+02  0.51100000000E-03 0.  1.
         11   -1    0    0    0    0 -0.00000000000E+00 -0.00000000000E+00 -0.45593999997E+02  0.45594000000E+02  0.51100000000E-03 0. -1.
    9900012    2    1    2    0    0  0.14668592443E+02  0.85487210122E+01 -0.79013740203E+01  0.72461549546E+02  0.69999972971E+02 0.  0.
        -12    1    1    2    0    0 -0.14668592443E+02 -0.85487210122E+01  0.79013740203E+01  0.18726450454E+02  0.00000000000E+00 0.  1.
         11    1    3    3    0    0  0.10527429860E+02 -0.18354347514E+02  0.13437102427E+02  0.25065206443E+02  0.51100000000E-03 0.  1.
        -11    1    3    3    0    0  0.13221393925E+02  0.24870030372E+02 -0.24740512371E+02  0.37488886629E+02  0.51100000000E-03 0. -1.
        -12    1    3    3    0    0 -0.90802313414E+01  0.20330381550E+01  0.34020359237E+01  0.99074564737E+01  0.00000000000E+00 0.  1.
</event>
<event>
 7    1  0.1874105E-013  0.7246157E+02  0.7816164E-02  0.1226708E+00
        -11   -1    0    0    0    0  0.00000000000E+00  0.00000000000E+00  0.45593999997E+02  0.45594000000E+02  0.51100000000E-03 0. -1.
         11   -1    0    0    0    0 -0.00000000000E+00 -0.00000000000E+00 -0.45593999997E+02  0.45594000000E+02  0.51100000000E-03 0.  1.
    9900012    2    1    2    0    0  0.11199672360E+02 -0.13552699856E+02 -0.64475478831E+01  0.72461569266E+02  0.69999998660E+02 0.  0.
        -12    1    1    2    0    0 -0.11199672360E+02  0.13552699856E+02  0.64475478831E+01  0.18726430734E+02  0.00000000000E+00 0.  1.
         11    1    3    3    0    0 -0.23077585564E+02 -0.41492072824E+01 -0.68646560542E+01  0.24431831277E+02  0.51100000000E-03 0.  1.
        -11    1    3    3    0    0  0.24010463679E+02 -0.19509851102E+02  0.77080994140E+01  0.31883404036E+02  0.51100000000E-03 0. -1.
        -12    1    3    3    0    0  0.10266794246E+02  0.10106358529E+02 -0.72909912428E+01  0.16146333952E+02  0.00000000000E+00 0.  1.
</event>
<event>
 7    1  0.1874105E-013  0.7246153E+02  0.7816164E-02  0.1226708E+00
        -11   -1    0    0    0    0  0.00000000000E+00  0.00000000000E+00  0.45593999997E+02  0.45594000000E+02  0.51100000000E-03 0. -1.
         11   -1    0    0    0    0 -0.00000000000E+00 -0.00000000000E+00 -0.45593999997E+02  0.45594000000E+02  0.51100000000E-03 0.  1.
    9900012    2    1    2    0    0  0.12224266677E+02 -0.10795653009E+02  0.92033696078E+01  0.72461525910E+02  0.69999942182E+02 0.  0.
        -12    1    1    2    0    0 -0.12224266677E+02  0.10795653009E+02 -0.92033696078E+01  0.18726474090E+02  0.00000000000E+00 0.  1.
         11    1    3    3    0    0  0.19728540840E+02 -0.12134225609E+02 -0.16693926575E+02  0.28550690702E+02  0.51100000000E-03 0. -1.
        -11    1    3    3    0    0 -0.47848675349E+01  0.17870581486E+02  0.11217203017E+02  0.21635116912E+02  0.51100000000E-03 0.  1.
        -12    1    3    3    0    0 -0.27194066286E+01 -0.16532008887E+02  0.14680093166E+02  0.22275718297E+02  0.00000000000E+00 0.  1.
</event>
<event>
 7    1  0.1874105E-013  0.7246162E+02  0.7816164E-02  0.1226708E+00
        -11   -1    0    0    0    0  0.00000000000E+00  0.00000000000E+00  0.45593999997E+02  0.45594000000E+02  0.51100000000E-03 0.  1.
         11   -1    0    0    0    0 -0.00000000000E+00 -0.00000000000E+00 -0.45593999997E+02  0.45594000000E+02  0.51100000000E-03 0. -1.
    9900012    2    1    2    0    0 -0.45523459169E+00  0.12674961305E+02 -0.13777353641E+02  0.72461618717E+02  0.70000063079E+02 0.  0.
        -12    1    1    2    0    0  0.45523459169E+00 -0.12674961305E+02  0.13777353641E+02  0.18726381283E+02  0.00000000000E+00 0.  1.
         11    1    3    3    0    0  0.31895036034E+02 -0.38755529518E+00 -0.12417324989E+02  0.34229132079E+02  0.51100000000E-03 0. -1.
        -11    1    3    3    0    0 -0.31010217304E+02  0.72269345530E+01  0.84361662124E+00  0.31852375886E+02  0.51100000000E-03 0.  1.
         12    1    3    3    0    0 -0.13400533213E+01  0.58355820467E+01 -0.22036452730E+01  0.63801107527E+01  0.00000000000E+00 0. -1.
</event>
<event>
 7    1  0.1874105E-013  0.7246156E+02  0.7816164E-02  0.1226708E+00
        -11   -1    0    0    0    0  0.00000000000E+00  0.00000000000E+00  0.45593999997E+02  0.45594000000E+02  0.51100000000E-03 0.  1.
         11   -1    0    0    0    0 -0.00000000000E+00 -0.00000000000E+00 -0.45593999997E+02  0.45594000000E+02  0.51100000000E-03 0. -1.
    9900012    2    1    2    0    0 -0.49807573452E+01  0.14397048408E+02 -0.10890208366E+02  0.72461559205E+02  0.69999985554E+02 0.  0.
        -12    1    1    2    0    0  0.49807573452E+01 -0.14397048408E+02  0.10890208366E+02  0.18726440795E+02  0.00000000000E+00 0.  1.
         11    1    3    3    0    0 -0.16558499533E+02 -0.10140789787E+02 -0.19311436974E+02  0.27385235485E+02  0.51100000000E-03 0. -1.
        -11    1    3    3    0    0 -0.20044932094E+00  0.68858693453E+01  0.19823465623E+02  0.20986309016E+02  0.51100000000E-03 0.  1.
         12    1    3    3    0    0  0.11778191509E+02  0.17651968850E+02 -0.11402237014E+02  0.24090014704E+02  0.00000000000E+00 0. -1.
</event>
<event>
 7    1  0.1874105E-013  0.7246148E+02  0.7816164E-02  0.1226708E+00
        -11   -1    0    0    0    0  0.00000000000E+00  0.00000000000E+00  0.45593999997E+02  0.45594000000E+02  0.51100000000E-03 0.  1.
         11   -1    0    0    0    0 -0.00000000000E+00 -0.00000000000E+00 -0.45593999997E+02  0.45594000000E+02  0.51100000000E-03 0. -1.
    9900012    2    1    2    0    0 -0.24325813270E+01  0.12571676478E+01 -0.18525239893E+02  0.72461483092E+02  0.69999886403E+02 0.  0.
        -12    1    1    2    0    0  0.24325813270E+01 -0.12571676478E+01  0.18525239893E+02  0.18726516908E+02  0.00000000000E+00 0.  1.
         11    1    3    3    0    0 -0.74581126845E+01 -0.56574452882E+01 -0.28519593735E+02  0.30016618048E+02  0.51100000000E-03 0. -1.
        -11    1    3    3    0    0  0.60213067567E+01 -0.11361983842E+02  0.18282792145E+02  0.22351986506E+02  0.51100000000E-03 0.  1.
         12    1    3    3    0    0 -0.99577539920E+00  0.18276596778E+02 -0.82884383029E+01  0.20092878538E+02  0.00000000000E+00 0. -1.
</event>
<event>
 7    1  0.1874105E-013  0.7246142E+02  0.7816164E-02  0.1226708E+00
        -11   -1    0    0    0    0  0.00000000000E+00  0.00000000000E+00  0.45593999997E+02  0.45594000000E+02  0.51100000000E-03 0. -1.
         11   -1    0    0    0    0 -0.00000000000E+00 -0.00000000000E+00 -0.45593999997E+02  0.45594000000E+02  0.51100000000E-03 0.  1.
    9900012    2    1    2    0    0  0.13940191400E+01  0.18540942195E+02  0.22304792342E+01  0.72461418238E+02  0.69999801919E+02 0.  0.
        -12    1    1    2    0    0 -0.13940191400E+01 -0.18540942195E+02 -0.22304792342E+01  0.18726581762E+02  0.00000000000E+00 0.  1.
         11    1    3    3    0    0 -0.20871395471E+01 -0.26347389995E+02 -0.57935174515E+00  0.26436277343E+02  0.51100000000E-03 0. -1.
        -11    1    3    3    0    0  0.35913274023E+01  0.31068317233E+02  0.59896791950E+01  0.31843590019E+02  0.51100000000E-03 0.  1.
         12    1    3    3    0    0 -0.11016871515E+00  0.13820014958E+02 -0.31798482156E+01  0.14181550876E+02  0.00000000000E+00 0. -1.
</event>
<event>
 7    1  0.1874105E-013  0.7246159E+02  0.7816164E-02  0.1226708E+00
        -11   -1    0    0    0    0  0.00000000000E+00  0.00000000000E+00  0.45593999997E+02  0.45594000000E+02  0.51100000000E-03 0. -1.
         11   -1    0    0    0    0 -0.00000000000E+00 -0.00000000000E+00 -0.45593999997E+02  0.45594000000E+02  0.51100000000E-03 0.  1.
    9900012    2    1    2    0    0  0.16259756855E+02  0.13646355636E+01  0.91889434610E+01  0.72461585364E+02  0.70000019631E+02 0.  0.
        -12    1    1    2    0    0 -0.16259756855E+02 -0.13646355636E+01 -0.91889434610E+01  0.18726414636E+02  0.00000000000E+00 0.  1.
         11    1    3    3    0    0  0.16605403795E+02  0.20939618463E+02  0.38293465806E+01  0.26997610118E+02  0.51100000000E-03 0. -1.
        -11    1    3    3    0    0  0.83651257944E+01 -0.19402993680E+02 -0.13233065134E+02  0.24931215502E+02  0.51100000000E-03 0.  1.
        -12    1    3    3    0    0 -0.87107727345E+01 -0.17198921920E+00  0.18592662014E+02  0.20532759744E+02  0.00000000000E+00 0.  1.
</event>
<event>
 7    1  0.1874105E-013  0.7246155E+02  0.7816164E-02  0.1226708E+00
        -11   -1    0    0    0    0  0.00000000000E+00  0.00000000000E+00  0.45593999997E+02  0.45594000000E+02  0.51100000000E-03 0.  1.
         11   -1    0    0    0    0 -0.00000000000E+00 -0.00000000000E+00 -0.45593999997E+02  0.45594000000E+02  0.51100000000E-03 0. -1.
    9900012    2    1    2    0    0 -0.18012675024E+01  0.18011612342E+02  0.47976090735E+01  0.72461553551E+02  0.69999978189E+02 0.  0.
        -12    1    1    2    0    0  0.18012675024E+01 -0.18011612342E+02 -0.47976090735E+01  0.18726446449E+02  0.00000000000E+00 0.  1.
         11    1    3    3    0    0 -0.42121213572E+01 -0.62518315760E+01  0.21960701342E+02  0.23218522091E+02  0.51100000000E-03 0.  1.
        -11    1    3    3    0    0  0.19022283338E+02  0.21337778469E+02 -0.14865870043E+02  0.32220213311E+02  0.51100000000E-03 0. -1.
        -12    1    3    3    0    0 -0.16611429483E+02  0.29256654490E+01 -0.22972222258E+01  0.17022818149E+02  0.00000000000E+00 0.  1.
</event>
<event>
 7    1  0.1874105E-013  0.7246159E+02  0.7816164E-02  0.1226708E+00
        -11   -1    0    0    0    0  0.00000000000E+00  0.00000000000E+00  0.45593999997E+02  0.45594000000E+02  0.51100000000E-03 0. -1.
         11   -1    0    0    0    0 -0.00000000000E+00 -0.00000000000E+00 -0.45593999997E+02  0.45594000000E+02  0.51100000000E-03 0.  1.
    9900012    2    1    2    0    0  0.17308391570E+02 -0.66533050731E+01  0.26137370510E+01  0.72461587944E+02  0.70000022991E+02 0.  0.
        -12    1    1    2    0    0 -0.17308391570E+02  0.66533050731E+01 -0.26137370510E+01  0.18726412056E+02  0.00000000000E+00 0.  1.
         11    1    3    3    0    0  0.54618085232E+01 -0.40831943059E+01  0.39902912778E+00  0.68310359821E+01  0.51100000000E-03 0. -1.
        -11    1    3    3    0    0  0.95525750333E+00  0.21795101827E+02 -0.20983063579E+02  0.30269257308E+02  0.51100000000E-03 0.  1.
        -12    1    3    3    0    0  0.10891325543E+02 -0.24365212595E+02  0.23197771502E+02  0.35361294653E+02  0.00000000000E+00 0.  1.
</event>
<event>
 7    1  0.1874105E-013  0.7246164E+02  0.7816164E-02  0.1226708E+00
        -11   -1    0    0    0    0  0.00000000000E+00  0.00000000000E+00  0.45593999997E+02  0.45594000000E+02  0.51100000000E-03 0.  1.
         11   -1    0    0    0    0 -0.00000000000E+00 -0.00000000000E+00 -0.45593999997E+02  0.45594000000E+02  0.51100000000E-03 0. -1.
    9900012    2    1    2    0    0 -0.50131473512E+01 -0.11154547453E+02 -0.14181712551E+02  0.72461640339E+02  0.70000091247E+02 0.  0.
        -12    1    1    2    0    0  0.50131473512E+01  0.11154547453E+02  0.14181712551E+02  0.18726359661E+02  0.00000000000E+00 0.  1.
         11    1    3    3    0    0 -0.46427438788E+01 -0.23505930595E+02  0.10904533490E+02  0.26324754410E+02  0.51100000000E-03 0. -1.
        -11    1    3    3    0    0  0.20242112677E+01  0.25228322404E+02 -0.13686449515E+02  0.28772983564E+02  0.51100000000E-03 0.  1.
         12    1    3    3    0    0 -0.23946147401E+01 -0.12876939263E+02 -0.11399796526E+02  0.17363902365E+02  0.00000000000E+00 0. -1.
</event>
<event>
 7    1  0.1874105E-013  0.7246159E+02  0.7816164E-02  0.1226708E+00
        -11   -1    0    0    0    0  0.00000000000E+00  0.00000000000E+00  0.45593999997E+02  0.45594000000E+02  0.51100000000E-03 0. -1.
         11   -1    0    0    0    0 -0.00000000000E+00 -0.00000000000E+00 -0.45593999997E+02  0.45594000000E+02  0.51100000000E-03 0.  1.
    9900012    2    1    2    0    0  0.77616791281E+01 -0.11354057693E+02  0.12709061242E+02  0.72461587460E+02  0.70000022361E+02 0.  0.
        -12    1    1    2    0    0 -0.77616791281E+01  0.11354057693E+02 -0.12709061242E+02  0.18726412540E+02  0.00000000000E+00 0.  1.
         11    1    3    3    0    0 -0.14041623344E+02 -0.13350849320E+02  0.11539843405E+02  0.22551726093E+02  0.51100000000E-03 0. -1.
        -11    1    3    3    0    0  0.26118036813E+02  0.18352609532E+02 -0.41217501885E+01  0.32186316168E+02  0.51100000000E-03 0.  1.
        -12    1    3    3    0    0 -0.43147343406E+01 -0.16355817905E+02  0.52909680253E+01  0.17723545199E+02  0.00000000000E+00 0.  1.
</event>
<event>
 7    1  0.1874105E-013  0.7246155E+02  0.7816164E-02  0.1226708E+00
        -11   -1    0    0    0    0  0.00000000000E+00  0.00000000000E+00  0.45593999997E+02  0.45594000000E+02  0.51100000000E-03 0.  1.
         11   -1    0    0    0    0 -0.00000000000E+00 -0.00000000000E+00 -0.45593999997E+02  0.45594000000E+02  0.51100000000E-03 0. -1.
    9900012    2    1    2    0    0 -0.42608678492E+00 -0.52336847016E+01 -0.17975173934E+02  0.72461551232E+02  0.69999975168E+02 0.  0.
        -12    1    1    2    0    0  0.42608678492E+00  0.52336847016E+01  0.17975173934E+02  0.18726448768E+02  0.00000000000E+00 0.  1.
         11    1    3    3    0    0  0.16270092597E+02  0.15015528782E+02  0.12392727050E+02  0.25372459513E+02  0.51100000000E-03 0.  1.
        -11    1    3    3    0    0 -0.94017762842E+01 -0.25193059486E+02 -0.20187497367E+02  0.33624673883E+02  0.51100000000E-03 0. -1.
         12    1    3    3    0    0 -0.72944030982E+01  0.49438460020E+01 -0.10180403617E+02  0.13464417836E+02  0.00000000000E+00 0. -1.
</event>
<event>
 7    1  0.1874105E-013  0.7246153E+02  0.7816164E-02  0.1226708E+00
        -11   -1    0    0    0    0  0.00000000000E+00  0.00000000000E+00  0.45593999997E+02  0.45594000000E+02  0.51100000000E-03 0.  1.
         11   -1    0    0    0    0 -0.00000000000E+00 -0.00000000000E+00 -0.45593999997E+02  0.45594000000E+02  0.51100000000E-03 0. -1.
    9900012    2    1    2    0    0  0.53309464146E+01  0.90714921731E+01 -0.15490951799E+02  0.72461533501E+02  0.69999952069E+02 0.  0.
        -12    1    1    2    0    0 -0.53309464146E+01 -0.90714921731E+01  0.15490951799E+02  0.18726466499E+02  0.00000000000E+00 0.  1.
         11    1    3    3    0    0 -0.47037180614E+01  0.20085222325E+02 -0.21057024078E+02  0.29477777778E+02  0.51100000000E-03 0. -1.
        -11    1    3    3    0    0  0.53070394691E+01  0.14183124737E+01  0.21521560091E+02  0.22211569670E+02  0.51100000000E-03 0.  1.
         12    1    3    3    0    0  0.47276250070E+01 -0.12432042626E+02 -0.15955487812E+02  0.20772186052E+02  0.00000000000E+00 0. -1.
</event>
<event>
 7    1  0.1874105E-013  0.7246120E+02  0.7816164E-02  0.1226709E+00
        -11   -1    0    0    0    0  0.00000000000E+00  0.00000000000E+00  0.45593999997E+02  0.45594000000E+02  0.51100000000E-03 0.  1.
         11   -1    0    0    0    0 -0.00000000000E+00 -0.00000000000E+00 -0.45593999997E+02  0.45594000000E+02  0.51100000000E-03 0. -1.
    9900012    2    1    2    0    0 -0.13322577527E+02 -0.11494133711E+02 -0.64098921820E+01  0.72461203704E+02  0.69999522446E+02 0.  0.
        -12    1    1    2    0    0  0.13322577527E+02  0.11494133711E+02  0.64098921820E+01  0.18726796296E+02  0.00000000000E+00 0.  1.
         11    1    3    3    0    0 -0.13695405316E+02 -0.20213484868E+02 -0.33763086701E+01  0.24648500112E+02  0.51100000000E-03 0. -1.
        -11    1    3    3    0    0 -0.73182589762E+01  0.11408749869E+02  0.19558645538E+02  0.23796157327E+02  0.51100000000E-03 0.  1.
        -12    1    3    3    0    0  0.76910867651E+01 -0.26893987116E+01 -0.22592229049E+02  0.24016546265E+02  0.00000000000E+00 0.  1.
</event>
<event>
 7    1  0.1874105E-013  0.7246188E+02  0.7816164E-02  0.1226707E+00
        -11   -1    0    0    0    0  0.00000000000E+00  0.00000000000E+00  0.45593999997E+02  0.45594000000E+02  0.51100000000E-03 0.  1.
         11   -1    0    0    0    0 -0.00000000000E+00 -0.00000000000E+00 -0.45593999997E+02  0.45594000000E+02  0.51100000000E-03 0. -1.
    9900012    2    1    2    0    0  0.62230119309E+01 -0.15497949748E+02 -0.84708373081E+01  0.72461884317E+02  0.70000409071E+02 0.  0.
        -12    1    1    2    0    0 -0.62230119309E+01  0.15497949748E+02  0.84708373081E+01  0.18726115683E+02  0.00000000000E+00 0.  1.
         11    1    3    3    0    0 -0.10475211163E+02  0.77807399706E+01 -0.20578511876E+02  0.24366885617E+02  0.51100000000E-03 0. -1.
        -11    1    3    3    0    0  0.11263331642E+02 -0.25997272151E+02  0.22416851091E+02  0.36128050211E+02  0.51100000000E-03 0.  1.
         12    1    3    3    0    0  0.54348914517E+01  0.27185824319E+01 -0.10309176523E+02  0.11966948488E+02  0.00000000000E+00 0. -1.
</event>
<event>
 7    1  0.1874105E-013  0.7246152E+02  0.7816164E-02  0.1226708E+00
        -11   -1    0    0    0    0  0.00000000000E+00  0.00000000000E+00  0.45593999997E+02  0.45594000000E+02  0.51100000000E-03 0. -1.
         11   -1    0    0    0    0 -0.00000000000E+00 -0.00000000000E+00 -0.45593999997E+02  0.45594000000E+02  0.51100000000E-03 0.  1.
    9900012    2    1    2    0    0  0.31052393330E+01  0.10625773252E+02 -0.15104022781E+02  0.72461519480E+02  0.69999933804E+02 0.  0.
        -12    1    1    2    0    0 -0.31052393330E+01 -0.10625773252E+02  0.15104022781E+02  0.18726480520E+02  0.00000000000E+00 0.  1.
         11    1    3    3    0    0 -0.24932457569E+02  0.13155665807E+02  0.53862871849E+01  0.28700367126E+02  0.51100000000E-03 0. -1.
        -11    1    3    3    0    0  0.19359541815E+02 -0.68838746822E+00  0.21058472691E+01  0.19485900790E+02  0.51100000000E-03 0.  1.
         12    1    3    3    0    0  0.86781550871E+01 -0.18415050874E+01 -0.22596157235E+02  0.24275251564E+02  0.00000000000E+00 0. -1.
</event>
<event>
 7    1  0.1874105E-013  0.7246155E+02  0.7816164E-02  0.1226708E+00
        -11   -1    0    0    0    0  0.00000000000E+00  0.00000000000E+00  0.45593999997E+02  0.45594000000E+02  0.51100000000E-03 0.  1.
         11   -1    0    0    0    0 -0.00000000000E+00 -0.00000000000E+00 -0.45593999997E+02  0.45594000000E+02  0.51100000000E-03 0. -1.
    9900012    2    1    2    0    0 -0.86718525978E+01  0.10279451135E+02 -0.13031182823E+02  0.72461551621E+02  0.69999975675E+02 0.  0.
        -12    1    1    2    0    0  0.86718525978E+01 -0.10279451135E+02  0.13031182823E+02  0.18726448379E+02  0.00000000000E+00 0.  1.
         11    1    3    3    0    0  0.23256476825E+02  0.98761065176E+01 -0.21067618510E+02  0.32897503617E+02  0.51100000000E-03 0. -1.
        -11    1    3    3    0    0 -0.28475835529E+02  0.84854788904E+01  0.43352608941E+01  0.30027837890E+02  0.51100000000E-03 0.  1.
        -12    1    3    3    0    0 -0.34524938941E+01 -0.80821342727E+01  0.37011747930E+01  0.95362101141E+01  0.00000000000E+00 0.  1.
</event>
<event>
 7    1  0.1874105E-013  0.7246156E+02  0.7816164E-02  0.1226708E+00
        -11   -1    0    0    0    0  0.00000000000E+00  0.00000000000E+00  0.45593999997E+02  0.45594000000E+02  0.51100000000E-03 0.  1.
         11   -1    0    0    0    0 -0.00000000000E+00 -0.00000000000E+00 -0.45593999997E+02  0.45594000000E+02  0.51100000000E-03 0. -1.
    9900012    2    1    2    0    0  0.96331450032E+01  0.11637295232E+02 -0.11065960084E+02  0.72461558919E+02  0.69999985182E+02 0.  0.
        -12    1    1    2    0    0 -0.96331450032E+01 -0.11637295232E+02  0.11065960084E+02  0.18726441081E+02  0.00000000000E+00 0.  1.
         11    1    3    3    0    0  0.15535488382E+02  0.26235814816E+01 -0.33821813077E+02  0.37311521265E+02  0.51100000000E-03 0.  1.
        -11    1    3    3    0    0 -0.12153336646E+02 -0.34154181141E+01  0.84280599475E+01  0.15178961337E+02  0.51100000000E-03 0. -1.
        -12    1    3    3    0    0  0.62509932665E+01  0.12429131865E+02  0.14327793045E+02  0.19971076317E+02  0.00000000000E+00 0.  1.
</event>
<event>
 7    1  0.1874105E-013  0.7246156E+02  0.7816164E-02  0.1226708E+00
        -11   -1    0    0    0    0  0.00000000000E+00  0.00000000000E+00  0.45593999997E+02  0.45594000000E+02  0.51100000000E-03 0.  1.
         11   -1    0    0    0    0 -0.00000000000E+00 -0.00000000000E+00 -0.45593999997E+02  0.45594000000E+02  0.51100000000E-03 0. -1.
    9900012    2    1    2    0    0  0.11826418073E+02 -0.74268301154E+01 -0.12476277930E+02  0.72461561978E+02  0.69999989167E+02 0.  0.
        -12    1    1    2    0    0 -0.11826418073E+02  0.74268301154E+01  0.12476277930E+02  0.18726438022E+02  0.00000000000E+00 0.  1.
         11    1    3    3    0    0 -0.13057175694E+02 -0.27296780935E+02 -0.12659759727E+02  0.32800512238E+02  0.51100000000E-03 0. -1.
        -11    1    3    3    0    0  0.25074965812E+02  0.18384359366E+02 -0.73753865636E+01  0.31955201564E+02  0.51100000000E-03 0.  1.
         12    1    3    3    0    0 -0.19137204533E+00  0.14855914531E+01  0.75588683601E+01  0.77058481759E+01  0.00000000000E+00 0. -1.
</event>
<event>
 7    1  0.1874105E-013  0.7246159E+02  0.7816164E-02  0.1226708E+00
        -11   -1    0    0    0    0  0.00000000000E+00  0.00000000000E+00  0.45593999997E+02  0.45594000000E+02  0.51100000000E-03 0.  1.
         11   -1    0    0    0    0 -0.00000000000E+00 -0.00000000000E+00 -0.45593999997E+02  0.45594000000E+02  0.51100000000E-03 0. -1.
    9900012    2    1    2    0    0 -0.64429913549E+00  0.18397662277E+02 -0.34335512699E+01  0.72461591563E+02  0.70000027706E+02 0.  0.
        -12    1    1    2    0    0  0.64429913549E+00 -0.18397662277E+02  0.34335512699E+01  0.18726408437E+02  0.00000000000E+00 0.  1.
         11    1    3    3    0    0  0.21489200073E+02  0.11808168194E+02  0.18592638001E+02  0.30771817365E+02  0.51100000000E-03 0. -1.
        -11    1    3    3    0    0 -0.21551558902E+02  0.91678891953E+01 -0.43549659742E+01  0.23821956517E+02  0.51100000000E-03 0.  1.
         12    1    3    3    0    0 -0.58194030674E+00 -0.25783951119E+01 -0.17671223296E+02  0.17867817680E+02  0.00000000000E+00 0. -1.
</event>
<event>
 7    1  0.1874105E-013  0.7246151E+02  0.7816164E-02  0.1226708E+00
        -11   -1    0    0    0    0  0.00000000000E+00  0.00000000000E+00  0.45593999997E+02  0.45594000000E+02  0.51100000000E-03 0.  1.
         11   -1    0    0    0    0 -0.00000000000E+00 -0.00000000000E+00 -0.45593999997E+02  0.45594000000E+02  0.51100000000E-03 0. -1.
    9900012    2    1    2    0    0  0.90312770303E+01 -0.15357667072E+02 -0.57671025268E+01  0.72461511428E+02  0.69999923316E+02 0.  0.
        -12    1    1    2    0    0 -0.90312770303E+01  0.15357667072E+02  0.57671025268E+01  0.18726488572E+02  0.00000000000E+00 0.  1.
         11    1    3    3    0    0  0.83542587884E+01 -0.21784586993E+02 -0.18504510277E+02  0.29778830924E+02  0.51100000000E-03 0. -1.
        -11    1    3    3    0    0  0.16023016262E+02  0.93552820724E+01  0.18337110231E+02  0.26086547581E+02  0.51100000000E-03 0.  1.
        -12    1    3    3    0    0 -0.15345998020E+02 -0.29283621509E+01 -0.55997024808E+01  0.16596132923E+02  0.00000000000E+00 0.  1.
</event>
<event>
 7    1  0.1874105E-013  0.7246158E+02  0.7816164E-02  0.1226708E+00
        -11   -1    0    0    0    0  0.00000000000E+00  0.00000000000E+00  0.45593999997E+02  0.45594000000E+02  0.51100000000E-03 0. -1.
         11   -1    0    0    0    0 -0.00000000000E+00 -0.00000000000E+00 -0.45593999997E+02  0.45594000000E+02  0.51100000000E-03 0.  1.
    9900012    2    1    2    0    0 -0.30839608939E+00 -0.18524374344E+02  0.27260537628E+01  0.72461576900E+02  0.70000008606E+02 0.  0.
        -12    1    1    2    0    0  0.30839608939E+00  0.18524374344E+02 -0.27260537628E+01  0.18726423100E+02  0.00000000000E+00 0.  1.
         11    1    3    3    0    0 -0.28001759546E+02 -0.15433003364E+01  0.87066922852E+01  0.29364720405E+02  0.51100000000E-03 0. -1.
        -11    1    3    3    0    0  0.17623807921E+02 -0.41490563099E+01 -0.15823666003E+02  0.24045824585E+02  0.51100000000E-03 0.  1.
         12    1    3    3    0    0  0.10069555536E+02 -0.12832017698E+02  0.98430274811E+01  0.19051031911E+02  0.00000000000E+00 0. -1.
</event>
<event>
 7    1  0.1874105E-013  0.7246155E+02  0.7816164E-02  0.1226708E+00
        -11   -1    0    0    0    0  0.00000000000E+00  0.00000000000E+00  0.45593999997E+02  0.45594000000E+02  0.51100000000E-03 0.  1.
         11   -1    0    0    0    0 -0.00000000000E+00 -0.00000000000E+00 -0.45593999997E+02  0.45594000000E+02  0.51100000000E-03 0. -1.
    9900012    2    1    2    0    0 -0.14821219361E+02  0.91444110842E+01 -0.68841090222E+01  0.72461554676E+02  0.69999979655E+02 0.  0.
        -12    1    1    2    0    0  0.14821219361E+02 -0.91444110842E+01  0.68841090222E+01  0.18726445324E+02  0.00000000000E+00 0.  1.
         11    1    3    3    0    0 -0.14275223263E+02 -0.71787044794E+01 -0.70595944009E+01  0.17468648218E+02  0.51100000000E-03 0. -1.
        -11    1    3    3    0    0  0.14590329351E+02  0.56457367779E+01  0.21600426580E+02  0.26670779573E+02  0.51100000000E-03 0.  1.
        -12    1    3    3    0    0 -0.15136325449E+02  0.10677378786E+02 -0.21424941201E+02  0.28322126885E+02  0.00000000000E+00 0.  1.
</event>
<event>
 7    1  0.1874105E-013  0.7246152E+02  0.7816164E-02  0.1226708E+00
        -11   -1    0    0    0    0  0.00000000000E+00  0.00000000000E+00  0.45593999997E+02  0.45594000000E+02  0.51100000000E-03 0. -1.
         11   -1    0    0    0    0 -0.00000000000E+00 -0.00000000000E+00 -0.45593999997E+02  0.45594000000E+02  0.51100000000E-03 0.  1.
    9900012    2    1    2    0    0  0.91885246353E+01 -0.13453034433E+01  0.16261684377E+02  0.72461515944E+02  0.69999929199E+02 0.  0.
        -12    1    1    2    0    0 -0.91885246353E+01  0.13453034433E+01 -0.16261684377E+02  0.18726484056E+02  0.00000000000E+00 0.  1.
         11    1    3    3    0    0 -0.45968974579E+01 -0.41769993956E+00  0.21754488886E+02  0.22238788781E+02  0.51100000000E-03 0. -1.
        -11    1    3    3    0    0  0.36604142823E+01 -0.23979524337E+02  0.80090112008E+00  0.24270510152E+02  0.51100000000E-03 0.  1.
        -12    1    3    3    0    0  0.10125007811E+02  0.23051920833E+02 -0.62937056295E+01  0.25952217012E+02  0.00000000000E+00 0.  1.
</event>
<event>
 7    1  0.1874105E-013  0.7246137E+02  0.7816164E-02  0.1226709E+00
        -11   -1    0    0    0    0  0.00000000000E+00  0.00000000000E+00  0.45593999997E+02  0.45594000000E+02  0.51100000000E-03 0.  1.
         11   -1    0    0    0    0 -0.00000000000E+00 -0.00000000000E+00 -0.45593999997E+02  0.45594000000E+02  0.51100000000E-03 0. -1.
    9900012    2    1    2    0    0  0.53775595181E+00 -0.17483461796E+02 -0.66877547250E+01  0.72461369735E+02  0.69999738733E+02 0.  0.
        -12    1    1    2    0    0 -0.53775595181E+00  0.17483461796E+02  0.66877547250E+01  0.18726630265E+02  0.00000000000E+00 0.  1.
         11    1    3    3    0    0  0.26642508183E+02  0.36572699043E+01 -0.43656067725E+01  0.27244401043E+02  0.51100000000E-03 0. -1.
        -11    1    3    3    0    0 -0.58196313219E+00 -0.19522803017E+02 -0.20788146137E+01  0.19641791904E+02  0.51100000000E-03 0.  1.
         12    1    3    3    0    0 -0.25522789099E+02 -0.16179286832E+01 -0.24333333883E+00  0.25575176788E+02  0.00000000000E+00 0. -1.
</event>
<event>
 7    1  0.1874105E-013  0.7246161E+02  0.7816164E-02  0.1226708E+00
        -11   -1    0    0    0    0  0.00000000000E+00  0.00000000000E+00  0.45593999997E+02  0.45594000000E+02  0.51100000000E-03 0. -1.
         11   -1    0    0    0    0 -0.00000000000E+00 -0.00000000000E+00 -0.45593999997E+02  0.45594000000E+02  0.51100000000E-03 0.  1.
    9900012    2    1    2    0    0  0.10715094088E+02 -0.97901837168E+01  0.11832859333E+02  0.72461614910E+02  0.70000058120E+02 0.  0.
        -12    1    1    2    0    0 -0.10715094088E+02  0.97901837168E+01 -0.11832859333E+02  0.18726385090E+02  0.00000000000E+00 0.  1.
         11    1    3    3    0    0 -0.10195830858E+02  0.98013034728E+01  0.15167395651E+02  0.20738138965E+02  0.51100000000E-03 0.  1.
        -11    1    3    3    0    0  0.30656029405E+02 -0.18763721251E+02  0.79286051915E+01  0.36806686276E+02  0.51100000000E-03 0. -1.
        -12    1    3    3    0    0 -0.97451044591E+01 -0.82776593883E+00 -0.11263141509E+02  0.14916789669E+02  0.00000000000E+00 0.  1.
</event>
<event>
 7    1  0.1874105E-013  0.7246156E+02  0.7816164E-02  0.1226708E+00
        -11   -1    0    0    0    0  0.00000000000E+00  0.00000000000E+00  0.45593999997E+02  0.45594000000E+02  0.51100000000E-03 0.  1.
         11   -1    0    0    0    0 -0.00000000000E+00 -0.00000000000E+00 -0.45593999997E+02  0.45594000000E+02  0.51100000000E-03 0. -1.
    9900012    2    1    2    0    0  0.17419713271E+02 -0.61669072564E+01 -0.30335567163E+01  0.72461558216E+02  0.69999984266E+02 0.  0.
        -12    1    1    2    0    0 -0.17419713271E+02  0.61669072564E+01  0.30335567163E+01  0.18726441784E+02  0.00000000000E+00 0.  1.
         11    1    3    3    0    0  0.14357774586E+02 -0.27108578332E+02 -0.11694964789E+02  0.32829756501E+02  0.51100000000E-03 0. -1.
        -11    1    3    3    0    0  0.10643169283E+02  0.26033223898E+02  0.17503906508E+01  0.28179241768E+02  0.51100000000E-03 0.  1.
         12    1    3    3    0    0 -0.75812305986E+01 -0.50915528221E+01  0.69110174218E+01  0.11452559947E+02  0.00000000000E+00 0. -1.
</event>
<event>
 7    1  0.1874105E-013  0.7246158E+02  0.7816164E-02  0.1226708E+00
        -11   -1    0    0    0    0  0.00000000000E+00  0.00000000000E+00  0.45593999997E+02  0.45594000000E+02  0.51100000000E-03 0. -1.
         11   -1    0    0    0    0 -0.00000000000E+00 -0.00000000000E+00 -0.45593999997E+02  0.45594000000E+02  0.51100000000E-03 0.  1.
    9900012    2    1    2    0    0  0.78207579160E+01  0.15854096841E+02  0.61775681746E+01  0.72461575099E+02  0.70000006259E+02 0.  0.
        -12    1    1    2    0    0 -0.78207579160E+01 -0.15854096841E+02 -0.61775681746E+01  0.18726424901E+02  0.00000000000E+00 0.  1.
         11    1    3    3    0    0 -0.11390596247E+02  0.18023989515E+02  0.29117048466E+01  0.21519477370E+02  0.51100000000E-03 0. -1.
        -11    1    3    3    0    0  0.15945634507E+02 -0.17732641621E+02  0.17516302040E+02  0.29589367619E+02  0.51100000000E-03 0.  1.
        -12    1    3    3    0    0  0.32657196565E+01  0.15562748947E+02 -0.14250438712E+02  0.21352730110E+02  0.00000000000E+00 0.  1.
</event>
<event>
 7    1  0.1874105E-013  0.7246155E+02  0.7816164E-02  0.1226708E+00
        -11   -1    0    0    0    0  0.00000000000E+00  0.00000000000E+00  0.45593999997E+02  0.45594000000E+02  0.51100000000E-03 0.  1.
         11   -1    0    0    0    0 -0.00000000000E+00 -0.00000000000E+00 -0.45593999997E+02  0.45594000000E+02  0.51100000000E-03 0. -1.
    9900012    2    1    2    0    0  0.16894531658E+02  0.44051438273E+01  0.67712202686E+01  0.72461550363E+02  0.69999974036E+02 0.  0.
        -12    1    1    2    0    0 -0.16894531658E+02 -0.44051438273E+01 -0.67712202686E+01  0.18726449637E+02  0.00000000000E+00 0.  1.
         11    1    3    3    0    0  0.44806066749E+01 -0.85869213938E+00 -0.95259575765E+01  0.10562057393E+02  0.51100000000E-03 0. -1.
        -11    1    3    3    0    0 -0.63179622103E+01  0.28779026849E+02  0.10515218991E+02  0.31284482792E+02  0.51100000000E-03 0.  1.
        -12    1    3    3    0    0  0.18731887193E+02 -0.23515190882E+02  0.57819588545E+01  0.30615010179E+02  0.00000000000E+00 0.  1.
</event>
<event>
 7    1  0.1874105E-013  0.7246154E+02  0.7816164E-02  0.1226708E+00
        -11   -1    0    0    0    0  0.00000000000E+00  0.00000000000E+00  0.45593999997E+02  0.45594000000E+02  0.51100000000E-03 0. -1.
         11   -1    0    0    0    0 -0.00000000000E+00 -0.00000000000E+00 -0.45593999997E+02  0.45594000000E+02  0.51100000000E-03 0.  1.
    9900012    2    1    2    0    0 -0.72191025360E+01 -0.23103388193E+01  0.17123882752E+02  0.72461535641E+02  0.69999954858E+02 0.  0.
        -12    1    1    2    0    0  0.72191025360E+01  0.23103388193E+01 -0.17123882752E+02  0.18726464359E+02  0.00000000000E+00 0.  1.
         11    1    3    3    0    0  0.10178671925E+01 -0.27558807468E+02  0.14706652563E+02  0.31253952591E+02  0.51100000000E-03 0. -1.
        -11    1    3    3    0    0 -0.18756843989E+02  0.76912628616E+01 -0.16508060784E+01  0.20339613610E+02  0.51100000000E-03 0.  1.
         12    1    3    3    0    0  0.10519874260E+02  0.17557205787E+02  0.40680362670E+01  0.20867969440E+02  0.00000000000E+00 0. -1.
</event>
<event>
 7    1  0.1874105E-013  0.7246157E+02  0.7816164E-02  0.1226708E+00
        -11   -1    0    0    0    0  0.00000000000E+00  0.00000000000E+00  0.45593999997E+02  0.45594000000E+02  0.51100000000E-03 0. -1.
         11   -1    0    0    0    0 -0.00000000000E+00 -0.00000000000E+00 -0.45593999997E+02  0.45594000000E+02  0.51100000000E-03 0.  1.
    9900012    2    1    2    0    0 -0.17455238640E+02 -0.22548303668E+01  0.63960646105E+01  0.72461567920E+02  0.69999996907E+02 0.  0.
        -12    1    1    2    0    0  0.17455238640E+02  0.22548303668E+01 -0.63960646105E+01  0.18726432080E+02  0.00000000000E+00 0.  1.
         11    1    3    3    0    0 -0.39643651743E+01 -0.31290218540E+01  0.12740052906E+02  0.13704594752E+02  0.51100000000E-03 0. -1.
        -11    1    3    3    0    0 -0.16411571569E+01  0.28242913574E+02 -0.60571928398E+01  0.28931732567E+02  0.51100000000E-03 0.  1.
        -12    1    3    3    0    0 -0.11849716309E+02 -0.27368722087E+02 -0.28679545609E+00  0.29825240601E+02  0.00000000000E+00 0.  1.
</event>
<event>
 7    1  0.2026603E-013  0.7246155E+02  0.7816164E-02  0.1226708E+00
        -11   -1    0    0    0    0  0.00000000000E+00  0.00000000000E+00  0.45593999997E+02  0.45594000000E+02  0.51100000000E-03 0. -1.
         11   -1    0    0    0    0 -0.00000000000E+00 -0.00000000000E+00 -0.45593999997E+02  0.45594000000E+02  0.51100000000E-03 0.  1.
    9900012    2    1    2    0    0 -0.54145027247E+01  0.58639085256E+01  0.16940420007E+02  0.72461545638E+02  0.69999967881E+02 0.  0.
        -12    1    1    2    0    0  0.54145027247E+01 -0.58639085256E+01 -0.16940420007E+02  0.18726454362E+02  0.00000000000E+00 0.  1.
         11    1    3    3    0    0  0.13647772412E+02  0.84999238133E+01  0.26306264284E+02  0.30830665538E+02  0.51100000000E-03 0. -1.
        -11    1    3    3    0    0 -0.43549905097E+01  0.85945412761E+01 -0.18601966665E+02  0.20949110868E+02  0.51100000000E-03 0.  1.
        -12    1    3    3    0    0 -0.14707284627E+02 -0.11230556564E+02  0.92361223877E+01  0.20681769233E+02  0.00000000000E+00 0.  1.
</event>
<event>
 7    1  0.1874105E-013  0.7246166E+02  0.7816164E-02  0.1226708E+00
        -11   -1    0    0    0    0  0.00000000000E+00  0.00000000000E+00  0.45593999997E+02  0.45594000000E+02  0.51100000000E-03 0.  1.
         11   -1    0    0    0    0 -0.00000000000E+00 -0.00000000000E+00 -0.45593999997E+02  0.45594000000E+02  0.51100000000E-03 0. -1.
    9900012    2    1    2    0    0  0.13816797366E+02  0.12160394548E+02  0.34491858148E+01  0.72461655781E+02  0.70000111362E+02 0.  0.
        -12    1    1    2    0    0 -0.13816797366E+02 -0.12160394548E+02 -0.34491858148E+01  0.18726344219E+02  0.00000000000E+00 0.  1.
         11    1    3    3    0    0  0.32000130976E+02 -0.58799914105E+01  0.10285825174E+02  0.34123025675E+02  0.51100000000E-03 0. -1.
        -11    1    3    3    0    0 -0.50046083666E+01  0.12198917980E+02 -0.16397171663E+02  0.21041077529E+02  0.51100000000E-03 0.  1.
        -12    1    3    3    0    0 -0.13178725243E+02  0.58414679791E+01  0.95605323042E+01  0.17297552576E+02  0.00000000000E+00 0.  1.
</event>
<event>
 7    1  0.1874105E-013  0.7246158E+02  0.7816164E-02  0.1226708E+00
        -11   -1    0    0    0    0  0.00000000000E+00  0.00000000000E+00  0.45593999997E+02  0.45594000000E+02  0.51100000000E-03 0. -1.
         11   -1    0    0    0    0 -0.00000000000E+00 -0.00000000000E+00 -0.45593999997E+02  0.45594000000E+02  0.51100000000E-03 0.  1.
    9900012    2    1    2    0    0 -0.87291012223E+01 -0.14518888924E+02  0.79801949268E+01  0.72461578697E+02  0.70000010947E+02 0.  0.
        -12    1    1    2    0    0  0.87291012223E+01  0.14518888924E+02 -0.79801949268E+01  0.18726421303E+02  0.00000000000E+00 0.  1.
         11    1    3    3    0    0  0.26020955617E+02 -0.12547475826E+02  0.15577829960E+02  0.32820695716E+02  0.51100000000E-03 0. -1.
        -11    1    3    3    0    0 -0.23785099736E+02  0.39301091732E+01  0.15991710785E+01  0.24160589313E+02  0.51100000000E-03 0.  1.
         12    1    3    3    0    0 -0.10964957103E+02 -0.59015222714E+01 -0.91968061113E+01  0.15480293668E+02  0.00000000000E+00 0. -1.
</event>
<event>
 7    1  0.1874105E-013  0.7246155E+02  0.7816164E-02  0.1226708E+00
        -11   -1    0    0    0    0  0.00000000000E+00  0.00000000000E+00  0.45593999997E+02  0.45594000000E+02  0.51100000000E-03 0.  1.
         11   -1    0    0    0    0 -0.00000000000E+00 -0.00000000000E+00 -0.45593999997E+02  0.45594000000E+02  0.51100000000E-03 0. -1.
    9900012    2    1    2    0    0  0.14029236619E+02  0.12019947265E+02 -0.30628962617E+01  0.72461549566E+02  0.69999972997E+02 0.  0.
        -12    1    1    2    0    0 -0.14029236619E+02 -0.12019947265E+02  0.30628962617E+01  0.18726450434E+02  0.00000000000E+00 0.  1.
         11    1    3    3    0    0  0.19150129815E+02  0.14923988249E+02  0.17333968720E+02  0.29831516372E+02  0.51100000000E-03 0. -1.
        -11    1    3    3    0    0 -0.83391222902E+00  0.35866900821E+00 -0.30853674380E+02  0.30867025708E+02  0.51100000000E-03 0.  1.
        -12    1    3    3    0    0 -0.42869809675E+01 -0.32627099924E+01  0.10456809398E+02  0.11763007486E+02  0.00000000000E+00 0.  1.
</event>
<event>
 7    1  0.1874105E-013  0.7246157E+02  0.7816164E-02  0.1226708E+00
        -11   -1    0    0    0    0  0.00000000000E+00  0.00000000000E+00  0.45593999997E+02  0.45594000000E+02  0.51100000000E-03 0.  1.
         11   -1    0    0    0    0 -0.00000000000E+00 -0.00000000000E+00 -0.45593999997E+02  0.45594000000E+02  0.51100000000E-03 0. -1.
    9900012    2    1    2    0    0 -0.12110326622E+02 -0.39252628994E+01 -0.13733593690E+02  0.72461566934E+02  0.69999995623E+02 0.  0.
        -12    1    1    2    0    0  0.12110326622E+02  0.39252628994E+01  0.13733593690E+02  0.18726433066E+02  0.00000000000E+00 0.  1.
         11    1    3    3    0    0  0.41404066791E+01 -0.16221298301E+02 -0.90516954490E+01  0.19031728161E+02  0.51100000000E-03 0. -1.
        -11    1    3    3    0    0 -0.33692222406E+02  0.95016496104E+01 -0.67304432848E+01  0.35647525342E+02  0.51100000000E-03 0.  1.
        -12    1    3    3    0    0  0.17441489105E+02  0.27943857913E+01  0.20485450435E+01  0.17782313430E+02  0.00000000000E+00 0.  1.
</event>
<event>
 7    1  0.1874105E-013  0.7246164E+02  0.7816164E-02  0.1226708E+00
        -11   -1    0    0    0    0  0.00000000000E+00  0.00000000000E+00  0.45593999997E+02  0.45594000000E+02  0.51100000000E-03 0.  1.
         11   -1    0    0    0    0 -0.00000000000E+00 -0.00000000000E+00 -0.45593999997E+02  0.45594000000E+02  0.51100000000E-03 0. -1.
    9900012    2    1    2    0    0 -0.66628442981E+01  0.11005427079E+01 -0.17466309183E+02  0.72461637703E+02  0.70000087812E+02 0.  0.
        -12    1    1    2    0    0  0.66628442981E+01 -0.11005427079E+01  0.17466309183E+02  0.18726362297E+02  0.00000000000E+00 0.  1.
         11    1    3    3    0    0 -0.35166524997E+02  0.11772094520E+02 -0.11238323312E+01  0.37101613026E+02  0.51100000000E-03 0. -1.
        -11    1    3    3    0    0  0.11578820339E+02 -0.82541600960E+01 -0.83176082015E+01  0.16473701642E+02  0.51100000000E-03 0.  1.
         12    1    3    3    0    0  0.16924860360E+02 -0.24173917163E+01 -0.80248686506E+01  0.18886323035E+02  0.00000000000E+00 0. -1.
</event>
<event>
 7    1  0.1874105E-013  0.7246155E+02  0.7816164E-02  0.1226708E+00
        -11   -1    0    0    0    0  0.00000000000E+00  0.00000000000E+00  0.45593999997E+02  0.45594000000E+02  0.51100000000E-03 0. -1.
         11   -1    0    0    0    0 -0.00000000000E+00 -0.00000000000E+00 -0.45593999997E+02  0.45594000000E+02  0.51100000000E-03 0.  1.
    9900012    2    1    2    0    0  0.17445460998E+02  0.29765394726E+01  0.61217599461E+01  0.72461552352E+02  0.69999976627E+02 0.  0.
        -12    1    1    2    0    0 -0.17445460998E+02 -0.29765394726E+01 -0.61217599461E+01  0.18726447648E+02  0.00000000000E+00 0.  1.
         11    1    3    3    0    0  0.38284637030E+02 -0.47306538420E+01  0.15290567504E+02  0.41495710299E+02  0.51100000000E-03 0. -1.
        -11    1    3    3    0    0 -0.13455914209E+02 -0.52593040869E+01 -0.26749035309E+01  0.14692753855E+02  0.51100000000E-03 0.  1.
        -12    1    3    3    0    0 -0.73832618234E+01  0.12966497401E+02 -0.64939040274E+01  0.16273088199E+02  0.00000000000E+00 0.  1.
</event>
<event>
 7    1  0.1874105E-013  0.7246159E+02  0.7816164E-02  0.1226708E+00
        -11   -1    0    0    0    0  0.00000000000E+00  0.00000000000E+00  0.45593999997E+02  0.45594000000E+02  0.51100000000E-03 0. -1.
         11   -1    0    0    0    0 -0.00000000000E+00 -0.00000000000E+00 -0.45593999997E+02  0.45594000000E+02  0.51100000000E-03 0.  1.
    9900012    2    1    2    0    0  0.17999070399E+02  0.96715136867E+00  0.50770671327E+01  0.72461587432E+02  0.70000022325E+02 0.  0.
        -12    1    1    2    0    0 -0.17999070399E+02 -0.96715136867E+00 -0.50770671327E+01  0.18726412568E+02  0.00000000000E+00 0.  1.
         11    1    3    3    0    0  0.22388434956E+02 -0.22152663417E+02 -0.19725050049E+02  0.37162617184E+02  0.51100000000E-03 0. -1.
        -11    1    3    3    0    0 -0.48711650622E+01  0.17672199256E+02  0.13574084559E+02  0.22809880479E+02  0.51100000000E-03 0.  1.
         12    1    3    3    0    0  0.48180050493E+00  0.54476155290E+01  0.11228032624E+02  0.12489089770E+02  0.00000000000E+00 0. -1.
</event>
<event>
 7    1  0.1874105E-013  0.7246151E+02  0.7816164E-02  0.1226708E+00
        -11   -1    0    0    0    0  0.00000000000E+00  0.00000000000E+00  0.45593999997E+02  0.45594000000E+02  0.51100000000E-03 0.  1.
         11   -1    0    0    0    0 -0.00000000000E+00 -0.00000000000E+00 -0.45593999997E+02  0.45594000000E+02  0.51100000000E-03 0. -1.
    9900012    2    1    2    0    0  0.83588464615E+01 -0.44955029743E+01 -0.16143159614E+02  0.72461509046E+02  0.69999920212E+02 0.  0.
        -12    1    1    2    0    0 -0.83588464615E+01  0.44955029743E+01  0.16143159614E+02  0.18726490954E+02  0.00000000000E+00 0.  1.
         11    1    3    3    0    0 -0.12849845400E+01 -0.15495900939E+02  0.19559369855E+02  0.24986858157E+02  0.51100000000E-03 0.  1.
        -11    1    3    3    0    0  0.15571081708E+00  0.69966875489E+01 -0.36481753634E+02  0.37146954532E+02  0.51100000000E-03 0. -1.
        -12    1    3    3    0    0  0.94881201844E+01  0.40037104158E+01  0.77922416607E+00  0.10327696356E+02  0.00000000000E+00 0.  1.
</event>
<event>
 7    1  0.1874105E-013  0.7246156E+02  0.7816164E-02  0.1226708E+00
        -11   -1    0    0    0    0  0.00000000000E+00  0.00000000000E+00  0.45593999997E+02  0.45594000000E+02  0.51100000000E-03 0.  1.
         11   -1    0    0    0    0 -0.00000000000E+00 -0.00000000000E+00 -0.45593999997E+02  0.45594000000E+02  0.51100000000E-03 0. -1.
    9900012    2    1    2    0    0 -0.50918234725E+01 -0.17315751079E+02  0.49917579919E+01  0.72461560147E+02  0.69999986781E+02 0.  0.
        -12    1    1    2    0    0  0.50918234725E+01  0.17315751079E+02 -0.49917579919E+01  0.18726439853E+02  0.00000000000E+00 0.  1.
         11    1    3    3    0    0 -0.15251894520E+02 -0.11960112516E+02 -0.24755462446E+02  0.31440380071E+02  0.51100000000E-03 0. -1.
        -11    1    3    3    0    0  0.17955857298E+02  0.10060372603E+01  0.21354100278E+02  0.27918139645E+02  0.51100000000E-03 0.  1.
         12    1    3    3    0    0 -0.77957862501E+01 -0.63616758237E+01  0.83931201596E+01  0.13103040432E+02  0.00000000000E+00 0. -1.
</event>
<event>
 7    1  0.1874105E-013  0.7246158E+02  0.7816164E-02  0.1226708E+00
        -11   -1    0    0    0    0  0.00000000000E+00  0.00000000000E+00  0.45593999997E+02  0.45594000000E+02  0.51100000000E-03 0.  1.
         11   -1    0    0    0    0 -0.00000000000E+00 -0.00000000000E+00 -0.45593999997E+02  0.45594000000E+02  0.51100000000E-03 0. -1.
    9900012    2    1    2    0    0  0.68496978348E+01  0.92217671862E+01 -0.14789162131E+02  0.72461583711E+02  0.70000017478E+02 0.  0.
        -12    1    1    2    0    0 -0.68496978348E+01 -0.92217671862E+01  0.14789162131E+02  0.18726416289E+02  0.00000000000E+00 0.  1.
         11    1    3    3    0    0 -0.10789375691E+02 -0.99567556311E+01  0.38369883406E+01  0.15174652889E+02  0.51100000000E-03 0. -1.
        -11    1    3    3    0    0  0.28292457980E+02  0.17489066035E+02  0.27176223264E+01  0.33372385002E+02  0.51100000000E-03 0.  1.
         12    1    3    3    0    0 -0.10653384454E+02  0.16894567820E+01 -0.21343772798E+02  0.23914545821E+02  0.00000000000E+00 0. -1.
</event>
<event>
 7    1  0.1874105E-013  0.7246158E+02  0.7816164E-02  0.1226708E+00
        -11   -1    0    0    0    0  0.00000000000E+00  0.00000000000E+00  0.45593999997E+02  0.45594000000E+02  0.51100000000E-03 0.  1.
         11   -1    0    0    0    0 -0.00000000000E+00 -0.00000000000E+00 -0.45593999997E+02  0.45594000000E+02  0.51100000000E-03 0. -1.
    9900012    2    1    2    0    0  0.16075523361E+02  0.82973005505E+01 -0.48385254348E+01  0.72461575457E+02  0.70000006726E+02 0.  0.
        -12    1    1    2    0    0 -0.16075523361E+02 -0.82973005505E+01  0.48385254348E+01  0.18726424543E+02  0.00000000000E+00 0.  1.
         11    1    3    3    0    0  0.87095238792E+01 -0.23920143388E+02  0.13916358420E+02  0.29011964735E+02  0.51100000000E-03 0. -1.
        -11    1    3    3    0    0 -0.65780261975E+01  0.16523527174E+02 -0.54754225844E+01  0.18608536526E+02  0.51100000000E-03 0.  1.
         12    1    3    3    0    0  0.13944025680E+02  0.15693916765E+02 -0.13279461270E+02  0.24841074195E+02  0.00000000000E+00 0. -1.
</event>
<event>
 7    1  0.1874105E-013  0.7246162E+02  0.7816164E-02  0.1226708E+00
        -11   -1    0    0    0    0  0.00000000000E+00  0.00000000000E+00  0.45593999997E+02  0.45594000000E+02  0.51100000000E-03 0.  1.
         11   -1    0    0    0    0 -0.00000000000E+00 -0.00000000000E+00 -0.45593999997E+02  0.45594000000E+02  0.51100000000E-03 0. -1.
    9900012    2    1    2    0    0 -0.13291883475E+01 -0.13489058350E+02  0.12921138835E+02  0.72461621129E+02  0.70000066222E+02 0.  0.
        -12    1    1    2    0    0  0.13291883475E+01  0.13489058350E+02 -0.12921138835E+02  0.18726378871E+02  0.00000000000E+00 0.  1.
         11    1    3    3    0    0 -0.17956671710E+02 -0.31944608311E+01  0.14620746098E+01  0.18297111830E+02  0.51100000000E-03 0. -1.
        -11    1    3    3    0    0  0.24014173742E+02 -0.24734756220E+02  0.14944794965E+02  0.37574400894E+02  0.51100000000E-03 0.  1.
        -12    1    3    3    0    0 -0.73866903788E+01  0.14440158702E+02 -0.34857307400E+01  0.16590108404E+02  0.00000000000E+00 0.  1.
</event>
<event>
 7    1  0.1874105E-013  0.7246156E+02  0.7816164E-02  0.1226708E+00
        -11   -1    0    0    0    0  0.00000000000E+00  0.00000000000E+00  0.45593999997E+02  0.45594000000E+02  0.51100000000E-03 0. -1.
         11   -1    0    0    0    0 -0.00000000000E+00 -0.00000000000E+00 -0.45593999997E+02  0.45594000000E+02  0.51100000000E-03 0.  1.
    9900012    2    1    2    0    0  0.57035499110E+01 -0.17220155332E+02  0.46492182073E+01  0.72461562507E+02  0.69999989855E+02 0.  0.
        -12    1    1    2    0    0 -0.57035499110E+01  0.17220155332E+02 -0.46492182073E+01  0.18726437493E+02  0.00000000000E+00 0.  1.
         11    1    3    3    0    0 -0.14603512863E+02 -0.44544463020E+01  0.29275175985E+02  0.33017277432E+02  0.51100000000E-03 0. -1.
        -11    1    3    3    0    0  0.11979275674E+02 -0.16932944031E+02 -0.20806433240E+02  0.29379164448E+02  0.51100000000E-03 0.  1.
         12    1    3    3    0    0  0.83277870999E+01  0.41672350005E+01 -0.38195245383E+01  0.10065120627E+02  0.00000000000E+00 0. -1.
</event>
<event>
 7    1  0.1874105E-013  0.7246153E+02  0.7816164E-02  0.1226708E+00
        -11   -1    0    0    0    0  0.00000000000E+00  0.00000000000E+00  0.45593999997E+02  0.45594000000E+02  0.51100000000E-03 0.  1.
         11   -1    0    0    0    0 -0.00000000000E+00 -0.00000000000E+00 -0.45593999997E+02  0.45594000000E+02  0.51100000000E-03 0. -1.
    9900012    2    1    2    0    0 -0.12369001582E+02 -0.75579522760E+01 -0.11856039782E+02  0.72461534182E+02  0.69999952956E+02 0.  0.
        -12    1    1    2    0    0  0.12369001582E+02  0.75579522760E+01  0.11856039782E+02  0.18726465818E+02  0.00000000000E+00 0.  1.
         11    1    3    3    0    0 -0.28952070991E+02 -0.13917158420E+02  0.83677964030E+01  0.33195326931E+02  0.51100000000E-03 0. -1.
        -11    1    3    3    0    0  0.65340619432E+01  0.17363798623E+02 -0.90637360707E+01  0.20648166503E+02  0.51100000000E-03 0.  1.
         12    1    3    3    0    0  0.10049007466E+02 -0.11004592480E+02 -0.11160100114E+02  0.18618040747E+02  0.00000000000E+00 0. -1.
</event>
<event>
 7    1  0.1874105E-013  0.7246148E+02  0.7816164E-02  0.1226708E+00
        -11   -1    0    0    0    0  0.00000000000E+00  0.00000000000E+00  0.45593999997E+02  0.45594000000E+02  0.51100000000E-03 0.  1.
         11   -1    0    0    0    0 -0.00000000000E+00 -0.00000000000E+00 -0.45593999997E+02  0.45594000000E+02  0.51100000000E-03 0. -1.
    9900012    2    1    2    0    0  0.92988153199E+01  0.13702661849E+02 -0.87436529145E+01  0.72461484724E+02  0.69999888528E+02 0.  0.
        -12    1    1    2    0    0 -0.92988153199E+01 -0.13702661849E+02  0.87436529145E+01  0.18726515276E+02  0.00000000000E+00 0.  1.
         11    1    3    3    0    0 -0.32562330380E+01  0.14018498739E+01 -0.91022796195E+01  0.97683023704E+01  0.51100000000E-03 0. -1.
        -11    1    3    3    0    0  0.22134196529E+02  0.31569435433E+02  0.88525779961E+01  0.39559070350E+02  0.51100000000E-03 0.  1.
        -12    1    3    3    0    0 -0.95791481713E+01 -0.19268623458E+02 -0.84939512911E+01  0.23134112003E+02  0.00000000000E+00 0.  1.
</event>
<event>
 7    1  0.1874105E-013  0.7246157E+02  0.7816164E-02  0.1226708E+00
        -11   -1    0    0    0    0  0.00000000000E+00  0.00000000000E+00  0.45593999997E+02  0.45594000000E+02  0.51100000000E-03 0.  1.
         11   -1    0    0    0    0 -0.00000000000E+00 -0.00000000000E+00 -0.45593999997E+02  0.45594000000E+02  0.51100000000E-03 0. -1.
    9900012    2    1    2    0    0 -0.19185553037E+01  0.96433383914E+00 -0.18602916255E+02  0.72461567147E+02  0.69999995900E+02 0.  0.
        -12    1    1    2    0    0  0.19185553037E+01 -0.96433383914E+00  0.18602916255E+02  0.18726432853E+02  0.00000000000E+00 0.  1.
         11    1    3    3    0    0  0.50347251291E+00 -0.25074709089E+02 -0.68752806231E+01  0.26005076512E+02  0.51100000000E-03 0. -1.
        -11    1    3    3    0    0  0.56400130094E+01  0.19272510278E+02  0.99112498584E+01  0.22393576605E+02  0.51100000000E-03 0.  1.
         12    1    3    3    0    0 -0.80620408260E+01  0.67665326508E+01 -0.21638885490E+02  0.24062914031E+02  0.00000000000E+00 0. -1.
</event>
<event>
 7    1  0.1874105E-013  0.7246156E+02  0.7816164E-02  0.1226708E+00
        -11   -1    0    0    0    0  0.00000000000E+00  0.00000000000E+00  0.45593999997E+02  0.45594000000E+02  0.51100000000E-03 0.  1.
         11   -1    0    0    0    0 -0.00000000000E+00 -0.00000000000E+00 -0.45593999997E+02  0.45594000000E+02  0.51100000000E-03 0. -1.
    9900012    2    1    2    0    0  0.17468347489E+02 -0.49366687251E+01 -0.46006098135E+01  0.72461562198E+02  0.69999989453E+02 0.  0.
        -12    1    1    2    0    0 -0.17468347489E+02  0.49366687251E+01  0.46006098135E+01  0.18726437802E+02  0.00000000000E+00 0.  1.
         11    1    3    3    0    0  0.24766058088E+02  0.89665254712E+01 -0.75927036932E+01  0.27411774147E+02  0.51100000000E-03 0. -1.
        -11    1    3    3    0    0 -0.16430167319E+02 -0.98823597529E+01 -0.15088654927E+02  0.24398338882E+02  0.51100000000E-03 0.  1.
        -12    1    3    3    0    0  0.91324567202E+01 -0.40208344433E+01  0.18080748806E+02  0.20651449169E+02  0.00000000000E+00 0.  1.
</event>
<event>
 7    1  0.1874105E-013  0.7246159E+02  0.7816164E-02  0.1226708E+00
        -11   -1    0    0    0    0  0.00000000000E+00  0.00000000000E+00  0.45593999997E+02  0.45594000000E+02  0.51100000000E-03 0.  1.
         11   -1    0    0    0    0 -0.00000000000E+00 -0.00000000000E+00 -0.45593999997E+02  0.45594000000E+02  0.51100000000E-03 0. -1.
    9900012    2    1    2    0    0  0.73257560285E+01  0.14147901200E+02 -0.98411629492E+01  0.72461593565E+02  0.70000030315E+02 0.  0.
        -12    1    1    2    0    0 -0.73257560285E+01 -0.14147901200E+02  0.98411629492E+01  0.18726406435E+02  0.00000000000E+00 0.  1.
         11    1    3    3    0    0 -0.37398519640E+01 -0.14262948113E+02  0.35846119680E+01  0.15174571652E+02  0.51100000000E-03 0. -1.
        -11    1    3    3    0    0  0.12780214827E+02  0.28525856501E+02  0.10746546325E+02  0.33053693263E+02  0.51100000000E-03 0.  1.
        -12    1    3    3    0    0 -0.17146068341E+01 -0.11500718758E+00 -0.24172321242E+02  0.24233328650E+02  0.00000000000E+00 0.  1.
</event>
<event>
 7    1  0.1874105E-013  0.7246155E+02  0.7816164E-02  0.1226708E+00
        -11   -1    0    0    0    0  0.00000000000E+00  0.00000000000E+00  0.45593999997E+02  0.45594000000E+02  0.51100000000E-03 0.  1.
         11   -1    0    0    0    0 -0.00000000000E+00 -0.00000000000E+00 -0.45593999997E+02  0.45594000000E+02  0.51100000000E-03 0. -1.
    9900012    2    1    2    0    0  0.17943453769E+02 -0.15249859203E+00 -0.53562197676E+01  0.72461551347E+02  0.69999975317E+02 0.  0.
        -12    1    1    2    0    0 -0.17943453769E+02  0.15249859203E+00  0.53562197676E+01  0.18726448653E+02  0.00000000000E+00 0.  1.
         11    1    3    3    0    0  0.12728095023E+02 -0.32438461686E+02 -0.21998732802E+01  0.34915578789E+02  0.51100000000E-03 0. -1.
        -11    1    3    3    0    0  0.65951162832E+01  0.13048084447E+02  0.64724411844E+01  0.15988763607E+02  0.51100000000E-03 0.  1.
         12    1    3    3    0    0 -0.13797575376E+01  0.19237878647E+02 -0.96287876718E+01  0.21557208950E+02  0.00000000000E+00 0. -1.
</event>
<event>
 8    1  0.1874105E-013  0.7246157E+02  0.7816164E-02  0.1226708E+00
        -11   -1    0    0    0    0  0.00000000000E+00  0.00000000000E+00  0.45593999997E+02  0.45594000000E+02  0.51100000000E-03 0.  1.
         11   -1    0    0    0    0 -0.00000000000E+00 -0.00000000000E+00 -0.45593999997E+02  0.45594000000E+02  0.51100000000E-03 0. -1.
    9900012    2    1    2    0    0 -0.13083534878E+02 -0.63636812086E+01 -0.11789990704E+02  0.72461569368E+02  0.69999998793E+02 0.  0.
        -24    2    3    3    0    0 -0.19612465087E+02 -0.13661730879E+02 -0.19188828782E+02  0.60188376473E+02  0.51799013843E+02 0.  0.
        -12    1    1    2    0    0  0.13083534878E+02  0.63636812086E+01  0.11789990704E+02  0.18726430632E+02  0.00000000000E+00 0.  1.
         11    1    4    4    0    0  0.37629017281E+01 -0.19954293150E+02 -0.27859897082E+02  0.34474731474E+02  0.51100000000E-03 0. -1.
        -11    1    3    3    0    0  0.65289302091E+01  0.72980496700E+01  0.73988380782E+01  0.12273192895E+02  0.51100000000E-03 0.  1.
        -12    1    4    4    0    0 -0.23375366815E+02  0.62925622715E+01  0.86710682999E+01  0.25713644999E+02  0.00000000000E+00 0.  1.
</event>
<event>
 7    1  0.1874105E-013  0.7246163E+02  0.7816164E-02  0.1226708E+00
        -11   -1    0    0    0    0  0.00000000000E+00  0.00000000000E+00  0.45593999997E+02  0.45594000000E+02  0.51100000000E-03 0. -1.
         11   -1    0    0    0    0 -0.00000000000E+00 -0.00000000000E+00 -0.45593999997E+02  0.45594000000E+02  0.51100000000E-03 0.  1.
    9900012    2    1    2    0    0 -0.10857373010E+02 -0.15257543536E+02  0.42021940865E-01  0.72461629575E+02  0.70000077224E+02 0.  0.
        -12    1    1    2    0    0  0.10857373010E+02  0.15257543536E+02 -0.42021940865E-01  0.18726370425E+02  0.00000000000E+00 0.  1.
         11    1    3    3    0    0  0.70896352339E+00 -0.12128596350E+02  0.13411425334E+02  0.18096182151E+02  0.51100000000E-03 0. -1.
        -11    1    3    3    0    0 -0.23271412749E+02  0.85891038083E+01 -0.24136445604E+02  0.34610682776E+02  0.51100000000E-03 0.  1.
        -12    1    3    3    0    0  0.11705076215E+02 -0.11718050994E+02  0.10767042211E+02  0.19754764648E+02  0.00000000000E+00 0.  1.
</event>
<event>
 8    1  0.1874105E-013  0.7246155E+02  0.7816164E-02  0.1226708E+00
        -11   -1    0    0    0    0  0.00000000000E+00  0.00000000000E+00  0.45593999997E+02  0.45594000000E+02  0.51100000000E-03 0.  1.
         11   -1    0    0    0    0 -0.00000000000E+00 -0.00000000000E+00 -0.45593999997E+02  0.45594000000E+02  0.51100000000E-03 0. -1.
    9900012    2    1    2    0    0 -0.10385839819E+02 -0.60117817900E+01 -0.14376115304E+02  0.72461551317E+02  0.69999975278E+02 0.  0.
        -24    2    3    3    0    0  0.29471348097E+01 -0.40935765244E+01 -0.15826764694E+02  0.58913410935E+02  0.56523097358E+02 0.  0.
        -12    1    1    2    0    0  0.10385839819E+02  0.60117817900E+01  0.14376115304E+02  0.18726448683E+02  0.00000000000E+00 0.  1.
         11    1    4    4    0    0  0.15851589357E+02  0.13012731608E+02 -0.27661271254E+02  0.34434720802E+02  0.51100000000E-03 0. -1.
        -11    1    3    3    0    0 -0.13332974629E+02 -0.19182052656E+01  0.14506493896E+01  0.13548140382E+02  0.51100000000E-03 0.  1.
        -12    1    4    4    0    0 -0.12904454547E+02 -0.17106308132E+02  0.11834506560E+02  0.24478690133E+02  0.00000000000E+00 0.  1.
</event>
<event>
 7    1  0.1874105E-013  0.7246156E+02  0.7816164E-02  0.1226708E+00
        -11   -1    0    0    0    0  0.00000000000E+00  0.00000000000E+00  0.45593999997E+02  0.45594000000E+02  0.51100000000E-03 0. -1.
         11   -1    0    0    0    0 -0.00000000000E+00 -0.00000000000E+00 -0.45593999997E+02  0.45594000000E+02  0.51100000000E-03 0.  1.
    9900012    2    1    2    0    0  0.17421767752E+02  0.31660161577E+01  0.60940943174E+01  0.72461557853E+02  0.69999983793E+02 0.  0.
        -12    1    1    2    0    0 -0.17421767752E+02 -0.31660161577E+01 -0.60940943174E+01  0.18726442147E+02  0.00000000000E+00 0.  1.
         11    1    3    3    0    0  0.19044704833E+02 -0.25229614549E+01 -0.49616203218E+01  0.19841466507E+02  0.51100000000E-03 0. -1.
        -11    1    3    3    0    0 -0.21147503875E+02 -0.13198462919E+00 -0.99370751389E+01  0.23366210704E+02  0.51100000000E-03 0.  1.
        -12    1    3    3    0    0  0.19524566795E+02  0.58209622417E+01  0.20992789778E+02  0.29253880642E+02  0.00000000000E+00 0.  1.
</event>
<event>
 7    1  0.1874105E-013  0.7246157E+02  0.7816164E-02  0.1226708E+00
        -11   -1    0    0    0    0  0.00000000000E+00  0.00000000000E+00  0.45593999997E+02  0.45594000000E+02  0.51100000000E-03 0.  1.
         11   -1    0    0    0    0 -0.00000000000E+00 -0.00000000000E+00 -0.45593999997E+02  0.45594000000E+02  0.51100000000E-03 0. -1.
    9900012    2    1    2    0    0 -0.77459171640E+01  0.15501466691E+02 -0.70981995804E+01  0.72461571094E+02  0.70000001042E+02 0.  0.
        -12    1    1    2    0    0  0.77459171640E+01 -0.15501466691E+02  0.70981995804E+01  0.18726428906E+02  0.00000000000E+00 0.  1.
         11    1    3    3    0    0 -0.14380795322E+02  0.68305747354E+01 -0.17827375649E+02  0.23901450753E+02  0.51100000000E-03 0. -1.
        -11    1    3    3    0    0 -0.84420955417E+01  0.19454528114E+02  0.18802100622E+02  0.28341958813E+02  0.51100000000E-03 0.  1.
        -12    1    3    3    0    0  0.15076973700E+02 -0.10783636159E+02 -0.80729245533E+01  0.20218161528E+02  0.00000000000E+00 0.  1.
</event>
<event>
 7    1  0.1874105E-013  0.7246162E+02  0.7816164E-02  0.1226708E+00
        -11   -1    0    0    0    0  0.00000000000E+00  0.00000000000E+00  0.45593999997E+02  0.45594000000E+02  0.51100000000E-03 0.  1.
         11   -1    0    0    0    0 -0.00000000000E+00 -0.00000000000E+00 -0.45593999997E+02  0.45594000000E+02  0.51100000000E-03 0. -1.
    9900012    2    1    2    0    0 -0.49975838317E+01 -0.84413973872E+01 -0.15951306514E+02  0.72461622520E+02  0.70000068034E+02 0.  0.
        -12    1    1    2    0    0  0.49975838317E+01  0.84413973872E+01  0.15951306514E+02  0.18726377480E+02  0.00000000000E+00 0.  1.
         11    1    3    3    0    0  0.18413028704E+02  0.51535431328E+01  0.17999174032E+02  0.26259643923E+02  0.51100000000E-03 0. -1.
        -11    1    3    3    0    0 -0.11360839106E+02 -0.42834751749E+01 -0.43197163163E+01  0.12887077795E+02  0.51100000000E-03 0.  1.
         12    1    3    3    0    0 -0.12049773429E+02 -0.93114653451E+01 -0.29630764231E+02  0.33314900802E+02  0.00000000000E+00 0. -1.
</event>
<event>
 7    1  0.1874105E-013  0.7246155E+02  0.7816164E-02  0.1226708E+00
        -11   -1    0    0    0    0  0.00000000000E+00  0.00000000000E+00  0.45593999997E+02  0.45594000000E+02  0.51100000000E-03 0. -1.
         11   -1    0    0    0    0 -0.00000000000E+00 -0.00000000000E+00 -0.45593999997E+02  0.45594000000E+02  0.51100000000E-03 0.  1.
    9900012    2    1    2    0    0 -0.14005277693E+02  0.12101498094E+02 -0.28435724508E+01  0.72461549091E+02  0.69999972379E+02 0.  0.
        -12    1    1    2    0    0  0.14005277693E+02 -0.12101498094E+02  0.28435724508E+01  0.18726450909E+02  0.00000000000E+00 0.  1.
         11    1    3    3    0    0  0.28666657909E+01  0.19539248258E+02  0.91228110911E+01  0.21753750888E+02  0.51100000000E-03 0. -1.
        -11    1    3    3    0    0 -0.27832783180E+02 -0.12997041474E+02 -0.19412761621E+02  0.36337889601E+02  0.51100000000E-03 0.  1.
        -12    1    3    3    0    0  0.10960839696E+02  0.55592913101E+01  0.74463780795E+01  0.14369908602E+02  0.00000000000E+00 0.  1.
</event>
<event>
 7    1  0.1874105E-013  0.7246155E+02  0.7816164E-02  0.1226708E+00
        -11   -1    0    0    0    0  0.00000000000E+00  0.00000000000E+00  0.45593999997E+02  0.45594000000E+02  0.51100000000E-03 0. -1.
         11   -1    0    0    0    0 -0.00000000000E+00 -0.00000000000E+00 -0.45593999997E+02  0.45594000000E+02  0.51100000000E-03 0.  1.
    9900012    2    1    2    0    0  0.11610503888E+02  0.10508256553E+02  0.10269009125E+02  0.72461553334E+02  0.69999977906E+02 0.  0.
        -12    1    1    2    0    0 -0.11610503888E+02 -0.10508256553E+02 -0.10269009125E+02  0.18726446666E+02  0.00000000000E+00 0.  1.
         11    1    3    3    0    0  0.51391389231E+01  0.30748790225E+01 -0.71759742007E+01  0.93466697740E+01  0.51100000000E-03 0.  1.
        -11    1    3    3    0    0  0.33256591266E+01  0.20125379110E+02  0.35427816530E+02  0.40880570902E+02  0.51100000000E-03 0. -1.
        -12    1    3    3    0    0  0.31457058381E+01 -0.12692001579E+02 -0.17982833205E+02  0.22234312658E+02  0.00000000000E+00 0.  1.
</event>
<event>
 7    1  0.1874105E-013  0.7246128E+02  0.7816164E-02  0.1226709E+00
        -11   -1    0    0    0    0  0.00000000000E+00  0.00000000000E+00  0.45593999997E+02  0.45594000000E+02  0.51100000000E-03 0.  1.
         11   -1    0    0    0    0 -0.00000000000E+00 -0.00000000000E+00 -0.45593999997E+02  0.45594000000E+02  0.51100000000E-03 0. -1.
    9900012    2    1    2    0    0  0.12353668163E+02  0.23702260653E+01 -0.13872954792E+02  0.72461282099E+02  0.69999624572E+02 0.  0.
        -12    1    1    2    0    0 -0.12353668163E+02 -0.23702260653E+01  0.13872954792E+02  0.18726717901E+02  0.00000000000E+00 0.  1.
         11    1    3    3    0    0  0.15883445429E+02 -0.58222407581E+01 -0.32040292328E+02  0.36232066721E+02  0.51100000000E-03 0. -1.
        -11    1    3    3    0    0 -0.95311960376E+01 -0.88683787937E+01  0.54168580586E+01  0.14100857840E+02  0.51100000000E-03 0.  1.
         12    1    3    3    0    0  0.60014187712E+01  0.17060845617E+02  0.12750479478E+02  0.22128357538E+02  0.00000000000E+00 0. -1.
</event>
<event>
 7    1  0.1874105E-013  0.7246159E+02  0.7816164E-02  0.1226708E+00
        -11   -1    0    0    0    0  0.00000000000E+00  0.00000000000E+00  0.45593999997E+02  0.45594000000E+02  0.51100000000E-03 0.  1.
         11   -1    0    0    0    0 -0.00000000000E+00 -0.00000000000E+00 -0.45593999997E+02  0.45594000000E+02  0.51100000000E-03 0. -1.
    9900012    2    1    2    0    0 -0.17819196036E+02 -0.57061125012E+01 -0.77132674468E+00  0.72461590515E+02  0.70000026342E+02 0.  0.
        -12    1    1    2    0    0  0.17819196036E+02  0.57061125012E+01  0.77132674468E+00  0.18726409485E+02  0.00000000000E+00 0.  1.
         11    1    3    3    0    0  0.89505023974E+01  0.12346839431E+01  0.17779095762E+01  0.92085232436E+01  0.51100000000E-03 0. -1.
        -11    1    3    3    0    0 -0.35167662489E+02 -0.39132807852E+00 -0.21710424609E+02  0.41331104021E+02  0.51100000000E-03 0.  1.
        -12    1    3    3    0    0  0.83979640561E+01 -0.65494683658E+01  0.19161188288E+02  0.21921963251E+02  0.00000000000E+00 0.  1.
</event>
<event>
 7    1  0.1874105E-013  0.7246161E+02  0.7816164E-02  0.1226708E+00
        -11   -1    0    0    0    0  0.00000000000E+00  0.00000000000E+00  0.45593999997E+02  0.45594000000E+02  0.51100000000E-03 0.  1.
         11   -1    0    0    0    0 -0.00000000000E+00 -0.00000000000E+00 -0.45593999997E+02  0.45594000000E+02  0.51100000000E-03 0. -1.
    9900012    2    1    2    0    0  0.14604619410E+02 -0.71361887388E+01 -0.92982641502E+01  0.72461606486E+02  0.70000047147E+02 0.  0.
        -12    1    1    2    0    0 -0.14604619410E+02  0.71361887388E+01  0.92982641502E+01  0.18726393514E+02  0.00000000000E+00 0.  1.
         11    1    3    3    0    0 -0.90567918594E+01 -0.16481936958E+02 -0.21399575580E+02  0.28488972602E+02  0.51100000000E-03 0. -1.
        -11    1    3    3    0    0  0.18986808360E+01  0.52956050299E+01  0.19762785006E+02  0.20547897533E+02  0.51100000000E-03 0.  1.
        -12    1    3    3    0    0  0.21762730433E+02  0.40501431890E+01 -0.76614735762E+01  0.23424736351E+02  0.00000000000E+00 0.  1.
</event>
<event>
 7    1  0.1874105E-013  0.7246159E+02  0.7816164E-02  0.1226708E+00
        -11   -1    0    0    0    0  0.00000000000E+00  0.00000000000E+00  0.45593999997E+02  0.45594000000E+02  0.51100000000E-03 0.  1.
         11   -1    0    0    0    0 -0.00000000000E+00 -0.00000000000E+00 -0.45593999997E+02  0.45594000000E+02  0.51100000000E-03 0. -1.
    9900012    2    1    2    0    0 -0.16072862650E+02  0.28899929916E+01 -0.91645814886E+01  0.72461587447E+02  0.70000022345E+02 0.  0.
        -12    1    1    2    0    0  0.16072862650E+02 -0.28899929916E+01  0.91645814886E+01  0.18726412553E+02  0.00000000000E+00 0.  1.
         11    1    3    3    0    0 -0.24626822405E+01  0.86118403000E+01 -0.13556777991E+02  0.16248533070E+02  0.51100000000E-03 0. -1.
        -11    1    3    3    0    0 -0.11282946140E+02 -0.27914787005E+02  0.12320171729E+02  0.32531935676E+02  0.51100000000E-03 0.  1.
        -12    1    3    3    0    0 -0.23272342692E+01  0.22192939697E+02 -0.79279752263E+01  0.23681118701E+02  0.00000000000E+00 0.  1.
</event>
<event>
 7    1  0.1874105E-013  0.7246152E+02  0.7816164E-02  0.1226708E+00
        -11   -1    0    0    0    0  0.00000000000E+00  0.00000000000E+00  0.45593999997E+02  0.45594000000E+02  0.51100000000E-03 0.  1.
         11   -1    0    0    0    0 -0.00000000000E+00 -0.00000000000E+00 -0.45593999997E+02  0.45594000000E+02  0.51100000000E-03 0. -1.
    9900012    2    1    2    0    0  0.57562165481E+01 -0.38363197750E+01 -0.17401999967E+02  0.72461521922E+02  0.69999936986E+02 0.  0.
        -12    1    1    2    0    0 -0.57562165481E+01  0.38363197750E+01  0.17401999967E+02  0.18726478078E+02  0.00000000000E+00 0.  1.
         11    1    3    3    0    0  0.14435316322E+02  0.25456413416E+02 -0.12022221584E+00  0.29264685116E+02  0.51100000000E-03 0. -1.
        -11    1    3    3    0    0 -0.85399960741E+01 -0.12022622983E+02  0.44819756921E+01  0.15413082193E+02  0.51100000000E-03 0.  1.
         12    1    3    3    0    0 -0.13910370025E+00 -0.17270110208E+02 -0.21763753443E+02  0.27783754612E+02  0.00000000000E+00 0. -1.
</event>
<event>
 7    1  0.1874105E-013  0.7246164E+02  0.7816164E-02  0.1226708E+00
        -11   -1    0    0    0    0  0.00000000000E+00  0.00000000000E+00  0.45593999997E+02  0.45594000000E+02  0.51100000000E-03 0.  1.
         11   -1    0    0    0    0 -0.00000000000E+00 -0.00000000000E+00 -0.45593999997E+02  0.45594000000E+02  0.51100000000E-03 0. -1.
    9900012    2    1    2    0    0 -0.21793728138E+01 -0.18302461091E+02 -0.33086130098E+01  0.72461637088E+02  0.70000087011E+02 0.  0.
        -12    1    1    2    0    0  0.21793728138E+01  0.18302461091E+02  0.33086130098E+01  0.18726362912E+02  0.00000000000E+00 0.  1.
         11    1    3    3    0    0  0.86774200652E+01 -0.37890694396E+02  0.16530226884E+02  0.42240392303E+02  0.51100000000E-03 0. -1.
        -11    1    3    3    0    0 -0.77207326725E+01  0.11779228746E+02 -0.14714995297E+02  0.20368874041E+02  0.51100000000E-03 0.  1.
         12    1    3    3    0    0 -0.31360602065E+01  0.78090045591E+01 -0.51238445969E+01  0.98523707439E+01  0.00000000000E+00 0. -1.
</event>
<event>
 7    1  0.1874105E-013  0.7246157E+02  0.7816164E-02  0.1226708E+00
        -11   -1    0    0    0    0  0.00000000000E+00  0.00000000000E+00  0.45593999997E+02  0.45594000000E+02  0.51100000000E-03 0.  1.
         11   -1    0    0    0    0 -0.00000000000E+00 -0.00000000000E+00 -0.45593999997E+02  0.45594000000E+02  0.51100000000E-03 0. -1.
    9900012    2    1    2    0    0 -0.35969494951E+01 -0.15491431510E+02 -0.98871891065E+01  0.72461574705E+02  0.70000005746E+02 0.  0.
        -12    1    1    2    0    0  0.35969494951E+01  0.15491431510E+02  0.98871891065E+01  0.18726425295E+02  0.00000000000E+00 0.  1.
         11    1    3    3    0    0  0.96502413662E+01 -0.53531711537E+01 -0.23848759883E+02  0.26278259989E+02  0.51100000000E-03 0. -1.
        -11    1    3    3    0    0  0.61091556172E+00  0.58649002259E-01  0.25474147587E+02  0.25481539457E+02  0.51100000000E-03 0.  1.
         12    1    3    3    0    0 -0.13858106423E+02 -0.10196909358E+02 -0.11512576811E+02  0.20701775260E+02  0.00000000000E+00 0. -1.
</event>
<event>
 7    1  0.1874105E-013  0.7246164E+02  0.7816164E-02  0.1226708E+00
        -11   -1    0    0    0    0  0.00000000000E+00  0.00000000000E+00  0.45593999997E+02  0.45594000000E+02  0.51100000000E-03 0.  1.
         11   -1    0    0    0    0 -0.00000000000E+00 -0.00000000000E+00 -0.45593999997E+02  0.45594000000E+02  0.51100000000E-03 0. -1.
    9900012    2    1    2    0    0 -0.92963948506E+01 -0.15725716286E+02  0.41176837474E+01  0.72461643457E+02  0.70000095308E+02 0.  0.
        -12    1    1    2    0    0  0.92963948506E+01  0.15725716286E+02 -0.41176837474E+01  0.18726356543E+02  0.00000000000E+00 0.  1.
         11    1    3    3    0    0  0.10433743779E+02  0.36176992054E+01  0.15253719871E+01  0.11147982631E+02  0.51100000000E-03 0. -1.
        -11    1    3    3    0    0 -0.12825502885E+02 -0.32260944103E+02 -0.15513252434E+02  0.38025294739E+02  0.51100000000E-03 0.  1.
        -12    1    3    3    0    0 -0.69046357439E+01  0.12917528611E+02  0.18105564195E+02  0.23288366087E+02  0.00000000000E+00 0.  1.
</event>
<event>
 7    1  0.1874105E-013  0.7246153E+02  0.7816164E-02  0.1226708E+00
        -11   -1    0    0    0    0  0.00000000000E+00  0.00000000000E+00  0.45593999997E+02  0.45594000000E+02  0.51100000000E-03 0. -1.
         11   -1    0    0    0    0 -0.00000000000E+00 -0.00000000000E+00 -0.45593999997E+02  0.45594000000E+02  0.51100000000E-03 0.  1.
    9900012    2    1    2    0    0 -0.88335253134E+01  0.37325786565E+01  0.16084690992E+02  0.72461532175E+02  0.69999950343E+02 0.  0.
        -12    1    1    2    0    0  0.88335253134E+01 -0.37325786565E+01 -0.16084690992E+02  0.18726467825E+02  0.00000000000E+00 0.  1.
         11    1    3    3    0    0 -0.11123791356E+02  0.60741733573E+01 -0.18337662902E+01  0.12806131937E+02  0.51100000000E-03 0. -1.
        -11    1    3    3    0    0  0.19584056610E+01 -0.47392581329E+01  0.38546364936E+02  0.38885963669E+02  0.51100000000E-03 0.  1.
        -12    1    3    3    0    0  0.33186038207E+00  0.23976634321E+01 -0.20627907654E+02  0.20769436570E+02  0.00000000000E+00 0.  1.
</event>
<event>
 7    1  0.1874105E-013  0.7246147E+02  0.7816164E-02  0.1226708E+00
        -11   -1    0    0    0    0  0.00000000000E+00  0.00000000000E+00  0.45593999997E+02  0.45594000000E+02  0.51100000000E-03 0. -1.
         11   -1    0    0    0    0 -0.00000000000E+00 -0.00000000000E+00 -0.45593999997E+02  0.45594000000E+02  0.51100000000E-03 0.  1.
    9900012    2    1    2    0    0 -0.13827279337E+02 -0.31683092501E+01 -0.12225017215E+02  0.72461471136E+02  0.69999870828E+02 0.  0.
        -12    1    1    2    0    0  0.13827279337E+02  0.31683092501E+01  0.12225017215E+02  0.18726528864E+02  0.00000000000E+00 0.  1.
         11    1    3    3    0    0 -0.15048464314E+02  0.12228094705E+02  0.19408783366E+02  0.27435077007E+02  0.51100000000E-03 0. -1.
        -11    1    3    3    0    0 -0.39713942025E+01 -0.22616144957E+02 -0.24900751196E+02  0.33871955879E+02  0.51100000000E-03 0.  1.
        -12    1    3    3    0    0  0.51925791797E+01  0.72197410017E+01 -0.67330493854E+01  0.11154438251E+02  0.00000000000E+00 0.  1.
</event>
<event>
 7    1  0.1874105E-013  0.7246223E+02  0.7816164E-02  0.1226706E+00
        -11   -1    0    0    0    0  0.00000000000E+00  0.00000000000E+00  0.45593999997E+02  0.45594000000E+02  0.51100000000E-03 0. -1.
         11   -1    0    0    0    0 -0.00000000000E+00 -0.00000000000E+00 -0.45593999997E+02  0.45594000000E+02  0.51100000000E-03 0.  1.
    9900012    2    1    2    0    0  0.72246130975E+01 -0.15310301756E+01  0.17207999020E+02  0.72462233846E+02  0.70000864393E+02 0.  0.
        -12    1    1    2    0    0 -0.72246130975E+01  0.15310301756E+01 -0.17207999020E+02  0.18725766154E+02  0.00000000000E+00 0.  1.
         11    1    3    3    0    0 -0.62102771265E+01 -0.22856672307E+02 -0.43926711567E+01  0.24089221056E+02  0.51100000000E-03 0. -1.
        -11    1    3    3    0    0 -0.29078253183E+01  0.25430899209E+02  0.17571818647E+02  0.31047622993E+02  0.51100000000E-03 0.  1.
        -12    1    3    3    0    0  0.16342715542E+02 -0.41052570781E+01  0.40288515298E+01  0.17325389797E+02  0.00000000000E+00 0.  1.
</event>
<event>
 7    1  0.1874105E-013  0.7246157E+02  0.7816164E-02  0.1226708E+00
        -11   -1    0    0    0    0  0.00000000000E+00  0.00000000000E+00  0.45593999997E+02  0.45594000000E+02  0.51100000000E-03 0.  1.
         11   -1    0    0    0    0 -0.00000000000E+00 -0.00000000000E+00 -0.45593999997E+02  0.45594000000E+02  0.51100000000E-03 0. -1.
    9900012    2    1    2    0    0 -0.92896551104E+01 -0.13502117005E+02 -0.90594928202E+01  0.72461567723E+02  0.69999996650E+02 0.  0.
        -12    1    1    2    0    0  0.92896551104E+01  0.13502117005E+02  0.90594928202E+01  0.18726432277E+02  0.00000000000E+00 0.  1.
         11    1    3    3    0    0  0.38864089965E+01  0.10440904091E+01 -0.21263863465E+02  0.21641307478E+02  0.51100000000E-03 0. -1.
        -11    1    3    3    0    0 -0.23560772762E+02  0.69281875695E+01  0.11074880464E+02  0.26939984664E+02  0.51100000000E-03 0.  1.
        -12    1    3    3    0    0  0.10384708655E+02 -0.21474394983E+02  0.11294901808E+01  0.23880275581E+02  0.00000000000E+00 0.  1.
</event>
<event>
 7    1  0.2780068E-013  0.7246160E+02  0.7816164E-02  0.1226708E+00
        -11   -1    0    0    0    0  0.00000000000E+00  0.00000000000E+00  0.45593999997E+02  0.45594000000E+02  0.51100000000E-03 0. -1.
         11   -1    0    0    0    0 -0.00000000000E+00 -0.00000000000E+00 -0.45593999997E+02  0.45594000000E+02  0.51100000000E-03 0.  1.
    9900012    2    1    2    0    0  0.43803852800E+00 -0.11154910828E+02  0.15035097988E+02  0.72461599255E+02  0.70000037727E+02 0.  0.
        -12    1    1    2    0    0 -0.43803852800E+00  0.11154910828E+02 -0.15035097988E+02  0.18726400745E+02  0.00000000000E+00 0.  1.
         11    1    3    3    0    0  0.12362874404E+02 -0.25858419551E+02  0.24535441271E+02  0.37729118779E+02  0.51100000000E-03 0. -1.
        -11    1    3    3    0    0 -0.99265226536E+01  0.14996014972E+02  0.61089770502E+01  0.18993049200E+02  0.51100000000E-03 0.  1.
        -12    1    3    3    0    0 -0.19983132224E+01 -0.29250624954E+00 -0.15609320333E+02  0.15739431277E+02  0.00000000000E+00 0.  1.
</event>
<event>
 7    1  0.1874105E-013  0.7246156E+02  0.7816164E-02  0.1226708E+00
        -11   -1    0    0    0    0  0.00000000000E+00  0.00000000000E+00  0.45593999997E+02  0.45594000000E+02  0.51100000000E-03 0. -1.
         11   -1    0    0    0    0 -0.00000000000E+00 -0.00000000000E+00 -0.45593999997E+02  0.45594000000E+02  0.51100000000E-03 0.  1.
    9900012    2    1    2    0    0 -0.13116102551E+02 -0.35208077309E+01  0.12893843267E+02  0.72461563409E+02  0.69999991030E+02 0.  0.
        -12    1    1    2    0    0  0.13116102551E+02  0.35208077309E+01 -0.12893843267E+02  0.18726436591E+02  0.00000000000E+00 0.  1.
         11    1    3    3    0    0 -0.23081237525E+02  0.68963262154E+01  0.26894742248E+02  0.36105816731E+02  0.51100000000E-03 0. -1.
        -11    1    3    3    0    0  0.21693180815E+01 -0.20342878375E+02 -0.56575327859E+01  0.21226076392E+02  0.51100000000E-03 0.  1.
         12    1    3    3    0    0  0.77958168931E+01  0.99257444289E+01 -0.83433661946E+01  0.15129670286E+02  0.00000000000E+00 0. -1.
</event>
<event>
 7    1  0.1874105E-013  0.7246153E+02  0.7816164E-02  0.1226708E+00
        -11   -1    0    0    0    0  0.00000000000E+00  0.00000000000E+00  0.45593999997E+02  0.45594000000E+02  0.51100000000E-03 0.  1.
         11   -1    0    0    0    0 -0.00000000000E+00 -0.00000000000E+00 -0.45593999997E+02  0.45594000000E+02  0.51100000000E-03 0. -1.
    9900012    2    1    2    0    0  0.44609553265E+01 -0.16138622465E+02  0.83860176935E+01  0.72461533429E+02  0.69999951976E+02 0.  0.
        -12    1    1    2    0    0 -0.44609553265E+01  0.16138622465E+02 -0.83860176935E+01  0.18726466571E+02  0.00000000000E+00 0.  1.
         11    1    3    3    0    0 -0.55018229317E+01 -0.53233133126E+01 -0.22926523485E+02  0.24170916399E+02  0.51100000000E-03 0. -1.
        -11    1    3    3    0    0  0.64516365390E+01 -0.16560784969E+02  0.35957734130E+02  0.40110370939E+02  0.51100000000E-03 0.  1.
        -12    1    3    3    0    0  0.35111417192E+01  0.57454758171E+01 -0.46451929520E+01  0.81802460904E+01  0.00000000000E+00 0.  1.
</event>
<event>
 7    1  0.1874105E-013  0.7246158E+02  0.7816164E-02  0.1226708E+00
        -11   -1    0    0    0    0  0.00000000000E+00  0.00000000000E+00  0.45593999997E+02  0.45594000000E+02  0.51100000000E-03 0.  1.
         11   -1    0    0    0    0 -0.00000000000E+00 -0.00000000000E+00 -0.45593999997E+02  0.45594000000E+02  0.51100000000E-03 0. -1.
    9900012    2    1    2    0    0 -0.12974344283E+02  0.69606011376E+01  0.11571305344E+02  0.72461583228E+02  0.70000016848E+02 0.  0.
        -12    1    1    2    0    0  0.12974344283E+02 -0.69606011376E+01 -0.11571305344E+02  0.18726416772E+02  0.00000000000E+00 0.  1.
         11    1    3    3    0    0  0.11819463961E+02  0.21016693515E+02  0.45185069199E+01  0.24531979938E+02  0.51100000000E-03 0. -1.
        -11    1    3    3    0    0 -0.37612240295E+01 -0.15579887815E+02  0.18056456975E+02  0.24143639935E+02  0.51100000000E-03 0.  1.
         12    1    3    3    0    0 -0.21032584214E+02  0.15237954379E+01 -0.11003658551E+02  0.23785963355E+02  0.00000000000E+00 0. -1.
</event>
<event>
 8    1  0.1874105E-013  0.7246154E+02  0.7816164E-02  0.1226708E+00
        -11   -1    0    0    0    0  0.00000000000E+00  0.00000000000E+00  0.45593999997E+02  0.45594000000E+02  0.51100000000E-03 0. -1.
         11   -1    0    0    0    0 -0.00000000000E+00 -0.00000000000E+00 -0.45593999997E+02  0.45594000000E+02  0.51100000000E-03 0.  1.
    9900012    2    1    2    0    0 -0.13583839660E+01  0.24182116257E+01  0.18519914718E+02  0.72461542897E+02  0.69999964310E+02 0.  0.
         24    2    3    3    0    0  0.11805762632E+02  0.73422761816E+01  0.60876077072E+01  0.53697123767E+02  0.51507641010E+02 0.  0.
        -12    1    1    2    0    0  0.13583839660E+01 -0.24182116257E+01 -0.18519914718E+02  0.18726457103E+02  0.00000000000E+00 0.  1.
         11    1    3    3    0    0 -0.13164146598E+02 -0.49240645558E+01  0.12432307011E+02  0.18764419130E+02  0.51100000000E-03 0.  1.
        -11    1    4    4    0    0  0.28984436724E+02  0.75556047538E+01 -0.85256430886E+01  0.31142757195E+02  0.51100000000E-03 0. -1.
         12    1    4    4    0    0 -0.17178674092E+02 -0.21332857224E+00  0.14613250796E+02  0.22554366572E+02  0.00000000000E+00 0. -1.
</event>
<event>
 7    1  0.1874105E-013  0.7246161E+02  0.7816164E-02  0.1226708E+00
        -11   -1    0    0    0    0  0.00000000000E+00  0.00000000000E+00  0.45593999997E+02  0.45594000000E+02  0.51100000000E-03 0. -1.
         11   -1    0    0    0    0 -0.00000000000E+00 -0.00000000000E+00 -0.45593999997E+02  0.45594000000E+02  0.51100000000E-03 0.  1.
    9900012    2    1    2    0    0 -0.77229030400E+01  0.13660344713E+02  0.10219076011E+02  0.72461607833E+02  0.70000048901E+02 0.  0.
        -12    1    1    2    0    0  0.77229030400E+01 -0.13660344713E+02 -0.10219076011E+02  0.18726392167E+02  0.00000000000E+00 0.  1.
         11    1    3    3    0    0 -0.32854217319E+02  0.12804944755E+02  0.17145944986E+02  0.39209050430E+02  0.51100000000E-03 0. -1.
        -11    1    3    3    0    0  0.19072719299E+02  0.93533848464E+01 -0.10355276525E+01  0.21267974688E+02  0.51100000000E-03 0.  1.
         12    1    3    3    0    0  0.60585949800E+01 -0.84979848879E+01 -0.58913413225E+01  0.11984582715E+02  0.00000000000E+00 0. -1.
</event>
<event>
 7    1  0.1874105E-013  0.7246165E+02  0.7816164E-02  0.1226708E+00
        -11   -1    0    0    0    0  0.00000000000E+00  0.00000000000E+00  0.45593999997E+02  0.45594000000E+02  0.51100000000E-03 0.  1.
         11   -1    0    0    0    0 -0.00000000000E+00 -0.00000000000E+00 -0.45593999997E+02  0.45594000000E+02  0.51100000000E-03 0. -1.
    9900012    2    1    2    0    0  0.98838652865E+01 -0.15634420221E+02 -0.29241124196E+01  0.72461646321E+02  0.70000099039E+02 0.  0.
        -12    1    1    2    0    0 -0.98838652865E+01  0.15634420221E+02  0.29241124196E+01  0.18726353679E+02  0.00000000000E+00 0.  1.
         11    1    3    3    0    0 -0.24959834544E+01  0.91543937835E+00 -0.12007601056E+02  0.12298392011E+02  0.51100000000E-03 0. -1.
        -11    1    3    3    0    0  0.97860588723E+01  0.10614436127E+02  0.24782970387E+02  0.28681506655E+02  0.51100000000E-03 0.  1.
        -12    1    3    3    0    0  0.25937898686E+01 -0.27164295727E+02 -0.15699481750E+02  0.31481747655E+02  0.00000000000E+00 0.  1.
</event>
<event>
 7    1  0.1874105E-013  0.7246156E+02  0.7816164E-02  0.1226708E+00
        -11   -1    0    0    0    0  0.00000000000E+00  0.00000000000E+00  0.45593999997E+02  0.45594000000E+02  0.51100000000E-03 0.  1.
         11   -1    0    0    0    0 -0.00000000000E+00 -0.00000000000E+00 -0.45593999997E+02  0.45594000000E+02  0.51100000000E-03 0. -1.
    9900012    2    1    2    0    0  0.14006664592E+02 -0.64810995097E+01 -0.10606041659E+02  0.72461563513E+02  0.69999991166E+02 0.  0.
        -12    1    1    2    0    0 -0.14006664592E+02  0.64810995097E+01  0.10606041659E+02  0.18726436487E+02  0.00000000000E+00 0.  1.
         11    1    3    3    0    0  0.17069852639E+02  0.10733437022E+02 -0.22492700334E+02  0.30207749138E+02  0.51100000000E-03 0. -1.
        -11    1    3    3    0    0  0.16683458244E+01 -0.23653940337E+02  0.19885700551E+02  0.30947267374E+02  0.51100000000E-03 0.  1.
        -12    1    3    3    0    0 -0.47315338716E+01  0.64394038051E+01 -0.79990418758E+01  0.11306547000E+02  0.00000000000E+00 0.  1.
</event>
<event>
 7    1  0.1874105E-013  0.7246149E+02  0.7816164E-02  0.1226708E+00
        -11   -1    0    0    0    0  0.00000000000E+00  0.00000000000E+00  0.45593999997E+02  0.45594000000E+02  0.51100000000E-03 0.  1.
         11   -1    0    0    0    0 -0.00000000000E+00 -0.00000000000E+00 -0.45593999997E+02  0.45594000000E+02  0.51100000000E-03 0. -1.
    9900012    2    1    2    0    0  0.81796046796E+01 -0.15861939927E+02 -0.56722950664E+01  0.72461494659E+02  0.69999901471E+02 0.  0.
        -12    1    1    2    0    0 -0.81796046796E+01  0.15861939927E+02  0.56722950664E+01  0.18726505341E+02  0.00000000000E+00 0.  1.
         11    1    3    3    0    0  0.15052356297E+02 -0.12501396849E+02 -0.34237770704E+02  0.39434544454E+02  0.51100000000E-03 0. -1.
        -11    1    3    3    0    0 -0.10369076430E+02 -0.44653045725E+01  0.13885205260E+02  0.17895687087E+02  0.51100000000E-03 0.  1.
         12    1    3    3    0    0  0.34963248129E+01  0.11047614943E+01  0.14680270378E+02  0.15131263117E+02  0.00000000000E+00 0. -1.
</event>
<event>
 7    1  0.1874105E-013  0.7246156E+02  0.7816164E-02  0.1226708E+00
        -11   -1    0    0    0    0  0.00000000000E+00  0.00000000000E+00  0.45593999997E+02  0.45594000000E+02  0.51100000000E-03 0. -1.
         11   -1    0    0    0    0 -0.00000000000E+00 -0.00000000000E+00 -0.45593999997E+02  0.45594000000E+02  0.51100000000E-03 0.  1.
    9900012    2    1    2    0    0 -0.11228160272E+02 -0.11947736444E+02 -0.90476262931E+01  0.72461560649E+02  0.69999987436E+02 0.  0.
        -12    1    1    2    0    0  0.11228160272E+02  0.11947736444E+02  0.90476262931E+01  0.18726439351E+02  0.00000000000E+00 0.  1.
         11    1    3    3    0    0 -0.24052214709E+02 -0.92304227008E+01  0.45438974037E+01  0.26160212910E+02  0.51100000000E-03 0. -1.
        -11    1    3    3    0    0  0.48845059251E+01  0.78817992406E+01 -0.26336806736E+02  0.27921471070E+02  0.51100000000E-03 0.  1.
        -12    1    3    3    0    0  0.79395485119E+01 -0.10599112983E+02  0.12745283040E+02  0.18379876669E+02  0.00000000000E+00 0.  1.
</event>
<event>
 7    1  0.1874105E-013  0.7246158E+02  0.7816164E-02  0.1226708E+00
        -11   -1    0    0    0    0  0.00000000000E+00  0.00000000000E+00  0.45593999997E+02  0.45594000000E+02  0.51100000000E-03 0. -1.
         11   -1    0    0    0    0 -0.00000000000E+00 -0.00000000000E+00 -0.45593999997E+02  0.45594000000E+02  0.51100000000E-03 0.  1.
    9900012    2    1    2    0    0  0.18481236409E+02  0.15243047676E+00 -0.30165527641E+01  0.72461576828E+02  0.70000008511E+02 0.  0.
        -12    1    1    2    0    0 -0.18481236409E+02 -0.15243047676E+00  0.30165527641E+01  0.18726423172E+02  0.00000000000E+00 0.  1.
         11    1    3    3    0    0  0.20881987700E+02 -0.21971998406E+02  0.14690782852E+01  0.30347723400E+02  0.51100000000E-03 0. -1.
        -11    1    3    3    0    0 -0.34954862486E+01  0.19721149180E+02  0.13358921435E+02  0.24074944056E+02  0.51100000000E-03 0.  1.
         12    1    3    3    0    0  0.10947349573E+01  0.24032797027E+01 -0.17844552485E+02  0.18038909372E+02  0.00000000000E+00 0. -1.
</event>
<event>
 7    1  0.1874105E-013  0.7246159E+02  0.7816164E-02  0.1226708E+00
        -11   -1    0    0    0    0  0.00000000000E+00  0.00000000000E+00  0.45593999997E+02  0.45594000000E+02  0.51100000000E-03 0.  1.
         11   -1    0    0    0    0 -0.00000000000E+00 -0.00000000000E+00 -0.45593999997E+02  0.45594000000E+02  0.51100000000E-03 0. -1.
    9900012    2    1    2    0    0  0.10849234168E+02 -0.12264298799E+02 -0.90862327266E+01  0.72461587310E+02  0.70000022166E+02 0.  0.
        -12    1    1    2    0    0 -0.10849234168E+02  0.12264298799E+02  0.90862327266E+01  0.18726412690E+02  0.00000000000E+00 0.  1.
         11    1    3    3    0    0  0.21734098921E+02 -0.17344968310E+02 -0.27602032626E+02  0.39180239751E+02  0.51100000000E-03 0. -1.
        -11    1    3    3    0    0  0.67725483862E+00  0.12148990611E+02  0.27183276151E+01  0.12467796609E+02  0.51100000000E-03 0.  1.
         12    1    3    3    0    0 -0.11562119591E+02 -0.70683211002E+01  0.15797472284E+02  0.20813550951E+02  0.00000000000E+00 0. -1.
</event>
<event>
 7    1  0.1874105E-013  0.7246153E+02  0.7816164E-02  0.1226708E+00
        -11   -1    0    0    0    0  0.00000000000E+00  0.00000000000E+00  0.45593999997E+02  0.45594000000E+02  0.51100000000E-03 0. -1.
         11   -1    0    0    0    0 -0.00000000000E+00 -0.00000000000E+00 -0.45593999997E+02  0.45594000000E+02  0.51100000000E-03 0.  1.
    9900012    2    1    2    0    0 -0.15510624009E+02  0.86900101181E+01  0.58808906536E+01  0.72461531890E+02  0.69999949971E+02 0.  0.
        -12    1    1    2    0    0  0.15510624009E+02 -0.86900101181E+01 -0.58808906536E+01  0.18726468110E+02  0.00000000000E+00 0.  1.
         11    1    3    3    0    0  0.93805828667E+01  0.15038020905E+02  0.73677276226E+00  0.17739228902E+02  0.51100000000E-03 0. -1.
        -11    1    3    3    0    0 -0.36909869056E+02 -0.91317151469E+01 -0.55123740755E+01  0.38420215036E+02  0.51100000000E-03 0.  1.
        -12    1    3    3    0    0  0.12018662180E+02  0.27837043600E+01  0.10656491967E+02  0.16302087952E+02  0.00000000000E+00 0.  1.
</event>
<event>
 7    1  0.1874105E-013  0.7246153E+02  0.7816164E-02  0.1226708E+00
        -11   -1    0    0    0    0  0.00000000000E+00  0.00000000000E+00  0.45593999997E+02  0.45594000000E+02  0.51100000000E-03 0.  1.
         11   -1    0    0    0    0 -0.00000000000E+00 -0.00000000000E+00 -0.45593999997E+02  0.45594000000E+02  0.51100000000E-03 0. -1.
    9900012    2    1    2    0    0 -0.87675409394E+01  0.30500342981E+01 -0.16263703206E+02  0.72461534094E+02  0.69999952843E+02 0.  0.
        -12    1    1    2    0    0  0.87675409394E+01 -0.30500342981E+01  0.16263703206E+02  0.18726465906E+02  0.00000000000E+00 0.  1.
         11    1    3    3    0    0  0.61826106169E+01 -0.13555586270E+02 -0.15061767933E+02  0.21185736869E+02  0.51100000000E-03 0. -1.
        -11    1    3    3    0    0  0.15304807796E+02  0.10164321154E+02  0.63416324173E+01  0.19436225666E+02  0.51100000000E-03 0.  1.
        -12    1    3    3    0    0 -0.30254959352E+02  0.64412994145E+01 -0.75435676905E+01  0.31839571559E+02  0.00000000000E+00 0.  1.
</event>
<event>
 7    1  0.1874105E-013  0.7246157E+02  0.7816164E-02  0.1226708E+00
        -11   -1    0    0    0    0  0.00000000000E+00  0.00000000000E+00  0.45593999997E+02  0.45594000000E+02  0.51100000000E-03 0.  1.
         11   -1    0    0    0    0 -0.00000000000E+00 -0.00000000000E+00 -0.45593999997E+02  0.45594000000E+02  0.51100000000E-03 0. -1.
    9900012    2    1    2    0    0 -0.11646369557E+02  0.11888969709E+02 -0.85844978909E+01  0.72461571386E+02  0.70000001422E+02 0.  0.
        -12    1    1    2    0    0  0.11646369557E+02 -0.11888969709E+02  0.85844978909E+01  0.18726428614E+02  0.00000000000E+00 0.  1.
         11    1    3    3    0    0 -0.20426123251E+02  0.20179515413E+01 -0.15443699677E+02  0.25686698882E+02  0.51100000000E-03 0. -1.
        -11    1    3    3    0    0  0.23538357724E+02 -0.53073075711E+01 -0.11078889493E+01  0.24154693461E+02  0.51100000000E-03 0.  1.
        -12    1    3    3    0    0 -0.14758604031E+02  0.15178325739E+02  0.79670907352E+01  0.22620179043E+02  0.00000000000E+00 0.  1.
</event>
<event>
 7    1  0.1874105E-013  0.7246161E+02  0.7816164E-02  0.1226708E+00
        -11   -1    0    0    0    0  0.00000000000E+00  0.00000000000E+00  0.45593999997E+02  0.45594000000E+02  0.51100000000E-03 0.  1.
         11   -1    0    0    0    0 -0.00000000000E+00 -0.00000000000E+00 -0.45593999997E+02  0.45594000000E+02  0.51100000000E-03 0. -1.
    9900012    2    1    2    0    0  0.74277064931E+01 -0.36931822316E+01 -0.16788905595E+02  0.72461607667E+02  0.70000048685E+02 0.  0.
        -12    1    1    2    0    0 -0.74277064931E+01  0.36931822316E+01  0.16788905595E+02  0.18726392333E+02  0.00000000000E+00 0.  1.
         11    1    3    3    0    0 -0.95111841887E+01  0.43372210647E+01 -0.28213885306E+02  0.30088161053E+02  0.51100000000E-03 0. -1.
        -11    1    3    3    0    0  0.18753784439E+02  0.81065212689E+01  0.15483716506E+02  0.25635241270E+02  0.51100000000E-03 0.  1.
        -12    1    3    3    0    0 -0.18148937568E+01 -0.16136924565E+02 -0.40587367951E+01  0.16738205344E+02  0.00000000000E+00 0.  1.
</event>
<event>
 7    1  0.1874105E-013  0.7246157E+02  0.7816164E-02  0.1226708E+00
        -11   -1    0    0    0    0  0.00000000000E+00  0.00000000000E+00  0.45593999997E+02  0.45594000000E+02  0.51100000000E-03 0. -1.
         11   -1    0    0    0    0 -0.00000000000E+00 -0.00000000000E+00 -0.45593999997E+02  0.45594000000E+02  0.51100000000E-03 0.  1.
    9900012    2    1    2    0    0  0.33885056979E+01 -0.14366505107E+02  0.11523928122E+02  0.72461565230E+02  0.69999993403E+02 0.  0.
        -12    1    1    2    0    0 -0.33885056979E+01  0.14366505107E+02 -0.11523928122E+02  0.18726434770E+02  0.00000000000E+00 0.  1.
         11    1    3    3    0    0  0.23732456893E+02  0.78841803250E+01 -0.11810413235E+02  0.27656385711E+02  0.51100000000E-03 0. -1.
        -11    1    3    3    0    0 -0.13022513776E+02 -0.16226196822E+02  0.13336240910E+01  0.20848354415E+02  0.51100000000E-03 0.  1.
         12    1    3    3    0    0 -0.73214374188E+01 -0.60244886102E+01  0.22000717265E+02  0.23956825104E+02  0.00000000000E+00 0. -1.
</event>
<event>
 7    1  0.1874105E-013  0.7246157E+02  0.7816164E-02  0.1226708E+00
        -11   -1    0    0    0    0  0.00000000000E+00  0.00000000000E+00  0.45593999997E+02  0.45594000000E+02  0.51100000000E-03 0. -1.
         11   -1    0    0    0    0 -0.00000000000E+00 -0.00000000000E+00 -0.45593999997E+02  0.45594000000E+02  0.51100000000E-03 0.  1.
    9900012    2    1    2    0    0  0.10863288937E+02  0.16185840326E+01  0.15167349825E+02  0.72461565168E+02  0.69999993322E+02 0.  0.
        -12    1    1    2    0    0 -0.10863288937E+02 -0.16185840326E+01 -0.15167349825E+02  0.18726434832E+02  0.00000000000E+00 0.  1.
         11    1    3    3    0    0  0.13935242234E+02 -0.19057332188E+02 -0.83493407770E+01  0.25041652859E+02  0.51100000000E-03 0. -1.
        -11    1    3    3    0    0  0.12097364617E+02  0.22811315339E+02  0.13764911485E+02  0.29260470376E+02  0.51100000000E-03 0.  1.
         12    1    3    3    0    0 -0.15169317914E+02 -0.21353991180E+01  0.97517791168E+01  0.18159441933E+02  0.00000000000E+00 0. -1.
</event>
<event>
 7    1  0.1874105E-013  0.7246139E+02  0.7816164E-02  0.1226709E+00
        -11   -1    0    0    0    0  0.00000000000E+00  0.00000000000E+00  0.45593999997E+02  0.45594000000E+02  0.51100000000E-03 0. -1.
         11   -1    0    0    0    0 -0.00000000000E+00 -0.00000000000E+00 -0.45593999997E+02  0.45594000000E+02  0.51100000000E-03 0.  1.
    9900012    2    1    2    0    0 -0.59197419813E+01  0.14812016232E+02 -0.98105491535E+01  0.72461386727E+02  0.69999760869E+02 0.  0.
        -12    1    1    2    0    0  0.59197419813E+01 -0.14812016232E+02  0.98105491535E+01  0.18726613273E+02  0.00000000000E+00 0.  1.
         11    1    3    3    0    0 -0.31771654728E+01  0.26210527542E+02  0.71321643338E+01  0.27348745910E+02  0.51100000000E-03 0. -1.
        -11    1    3    3    0    0  0.73226640398E+01 -0.16856118102E+02  0.61150326449E+01  0.19368628001E+02  0.51100000000E-03 0.  1.
         12    1    3    3    0    0 -0.10065240548E+02  0.54576067923E+01 -0.23057746132E+02  0.25744012816E+02  0.00000000000E+00 0. -1.
</event>
<event>
 7    1  0.1874105E-013  0.7246224E+02  0.7816164E-02  0.1226706E+00
        -11   -1    0    0    0    0  0.00000000000E+00  0.00000000000E+00  0.45593999997E+02  0.45594000000E+02  0.51100000000E-03 0.  1.
         11   -1    0    0    0    0 -0.00000000000E+00 -0.00000000000E+00 -0.45593999997E+02  0.45594000000E+02  0.51100000000E-03 0. -1.
    9900012    2    1    2    0    0  0.91559883708E+01  0.12688058185E+02 -0.10287615810E+02  0.72462242803E+02  0.70000876061E+02 0.  0.
        -12    1    1    2    0    0 -0.91559883708E+01 -0.12688058185E+02  0.10287615810E+02  0.18725757197E+02  0.00000000000E+00 0.  1.
         11    1    3    3    0    0  0.15757122173E+02 -0.17513115854E+02 -0.11452217662E+02  0.26194453911E+02  0.51100000000E-03 0. -1.
        -11    1    3    3    0    0  0.59820246330E+00  0.26959114655E+02  0.14614641730E+02  0.30671476363E+02  0.51100000000E-03 0.  1.
         12    1    3    3    0    0 -0.71993362660E+01  0.32420593843E+01 -0.13450039879E+02  0.15596312528E+02  0.00000000000E+00 0. -1.
</event>
<event>
 7    1  0.1874105E-013  0.7246153E+02  0.7816164E-02  0.1226708E+00
        -11   -1    0    0    0    0  0.00000000000E+00  0.00000000000E+00  0.45593999997E+02  0.45594000000E+02  0.51100000000E-03 0. -1.
         11   -1    0    0    0    0 -0.00000000000E+00 -0.00000000000E+00 -0.45593999997E+02  0.45594000000E+02  0.51100000000E-03 0.  1.
    9900012    2    1    2    0    0  0.16495827065E+02  0.66746411596E+01  0.58324463263E+01  0.72461532759E+02  0.69999951104E+02 0.  0.
        -12    1    1    2    0    0 -0.16495827065E+02 -0.66746411596E+01 -0.58324463263E+01  0.18726467241E+02  0.00000000000E+00 0.  1.
         11    1    3    3    0    0  0.99340365524E+01 -0.70882886760E+01  0.35691972597E+02  0.37720628662E+02  0.51100000000E-03 0. -1.
        -11    1    3    3    0    0  0.53364689705E+01  0.65486355447E+01 -0.23751634483E+02  0.25209178278E+02  0.51100000000E-03 0.  1.
         12    1    3    3    0    0  0.12253215421E+01  0.72142942909E+01 -0.61078917871E+01  0.95317258185E+01  0.00000000000E+00 0. -1.
</event>
<event>
 7    1  0.1874105E-013  0.7246153E+02  0.7816164E-02  0.1226708E+00
        -11   -1    0    0    0    0  0.00000000000E+00  0.00000000000E+00  0.45593999997E+02  0.45594000000E+02  0.51100000000E-03 0.  1.
         11   -1    0    0    0    0 -0.00000000000E+00 -0.00000000000E+00 -0.45593999997E+02  0.45594000000E+02  0.51100000000E-03 0. -1.
    9900012    2    1    2    0    0  0.10342078746E+02 -0.10804710072E+02 -0.11268556208E+02  0.72461529122E+02  0.69999946365E+02 0.  0.
        -12    1    1    2    0    0 -0.10342078746E+02  0.10804710072E+02  0.11268556208E+02  0.18726470878E+02  0.00000000000E+00 0.  1.
         11    1    3    3    0    0  0.42078081348E+01 -0.29504039220E+02  0.13002862751E+02  0.32515664218E+02  0.51100000000E-03 0. -1.
        -11    1    3    3    0    0  0.11729219868E+01  0.19456707926E+02 -0.51277213602E+01  0.20155216593E+02  0.51100000000E-03 0.  1.
         12    1    3    3    0    0  0.49613486240E+01 -0.75737877850E+00 -0.19143697599E+02  0.19790648311E+02  0.00000000000E+00 0. -1.
</event>
<event>
 7    1  0.1874105E-013  0.7246165E+02  0.7816164E-02  0.1226708E+00
        -11   -1    0    0    0    0  0.00000000000E+00  0.00000000000E+00  0.45593999997E+02  0.45594000000E+02  0.51100000000E-03 0. -1.
         11   -1    0    0    0    0 -0.00000000000E+00 -0.00000000000E+00 -0.45593999997E+02  0.45594000000E+02  0.51100000000E-03 0.  1.
    9900012    2    1    2    0    0 -0.98950708000E+01 -0.74728393466E+01  0.14032836569E+02  0.72461648080E+02  0.70000101331E+02 0.  0.
        -12    1    1    2    0    0  0.98950708000E+01  0.74728393466E+01 -0.14032836569E+02  0.18726351920E+02  0.00000000000E+00 0.  1.
         11    1    3    3    0    0  0.62388388783E+01 -0.25017946606E+02  0.16473997807E+01  0.25836692691E+02  0.51100000000E-03 0. -1.
        -11    1    3    3    0    0 -0.15604899395E+01  0.15293407737E+02 -0.11052747124E+02  0.18933744171E+02  0.51100000000E-03 0.  1.
         12    1    3    3    0    0 -0.14573419739E+02  0.22516995222E+01  0.23438183913E+02  0.27691211219E+02  0.00000000000E+00 0. -1.
</event>
<event>
 7    1  0.1874105E-013  0.7246127E+02  0.7816164E-02  0.1226709E+00
        -11   -1    0    0    0    0  0.00000000000E+00  0.00000000000E+00  0.45593999997E+02  0.45594000000E+02  0.51100000000E-03 0.  1.
         11   -1    0    0    0    0 -0.00000000000E+00 -0.00000000000E+00 -0.45593999997E+02  0.45594000000E+02  0.51100000000E-03 0. -1.
    9900012    2    1    2    0    0 -0.12419601390E+01 -0.89161283165E+01 -0.16421038083E+02  0.72461273087E+02  0.69999612831E+02 0.  0.
        -12    1    1    2    0    0  0.12419601390E+01  0.89161283165E+01  0.16421038083E+02  0.18726726913E+02  0.00000000000E+00 0.  1.
         11    1    3    3    0    0 -0.13658506672E+02 -0.14152488425E+02 -0.22144150462E+02  0.29617750304E+02  0.51100000000E-03 0. -1.
        -11    1    3    3    0    0  0.22829364528E+02 -0.84214885570E+01  0.77792133143E+01  0.25546379671E+02  0.51100000000E-03 0.  1.
        -12    1    3    3    0    0 -0.10412817995E+02  0.13657848666E+02 -0.20561009352E+01  0.17297143112E+02  0.00000000000E+00 0.  1.
</event>
<event>
 7    1  0.1874105E-013  0.7246158E+02  0.7816164E-02  0.1226708E+00
        -11   -1    0    0    0    0  0.00000000000E+00  0.00000000000E+00  0.45593999997E+02  0.45594000000E+02  0.51100000000E-03 0.  1.
         11   -1    0    0    0    0 -0.00000000000E+00 -0.00000000000E+00 -0.45593999997E+02  0.45594000000E+02  0.51100000000E-03 0. -1.
    9900012    2    1    2    0    0  0.18404401484E+02  0.33221894795E+01  0.95911003352E+00  0.72461579387E+02  0.70000011845E+02 0.  0.
        -12    1    1    2    0    0 -0.18404401484E+02 -0.33221894795E+01 -0.95911003352E+00  0.18726420613E+02  0.00000000000E+00 0.  1.
         11    1    3    3    0    0  0.93366174286E+01 -0.19468522236E+02 -0.26842008726E+02  0.34448355777E+02  0.51100000000E-03 0. -1.
        -11    1    3    3    0    0  0.54952856631E+01  0.12453875703E+02  0.21335806827E+02  0.25308374854E+02  0.51100000000E-03 0.  1.
         12    1    3    3    0    0  0.35724983923E+01  0.10336836013E+02  0.64653119325E+01  0.12704848755E+02  0.00000000000E+00 0. -1.
</event>
<event>
 7    1  0.1874105E-013  0.7246110E+02  0.7816164E-02  0.1226709E+00
        -11   -1    0    0    0    0  0.00000000000E+00  0.00000000000E+00  0.45593999997E+02  0.45594000000E+02  0.51100000000E-03 0.  1.
         11   -1    0    0    0    0 -0.00000000000E+00 -0.00000000000E+00 -0.45593999997E+02  0.45594000000E+02  0.51100000000E-03 0. -1.
    9900012    2    1    2    0    0 -0.15290774714E+02 -0.39494999691E+01 -0.10064308059E+02  0.72461103886E+02  0.69999392413E+02 0.  0.
        -12    1    1    2    0    0  0.15290774714E+02  0.39494999691E+01  0.10064308059E+02  0.18726896114E+02  0.00000000000E+00 0.  1.
         11    1    3    3    0    0 -0.48273706615E+00  0.17597138325E+02 -0.30646192278E+02  0.35342345900E+02  0.51100000000E-03 0. -1.
        -11    1    3    3    0    0 -0.15592981834E+02 -0.96130353660E+01  0.15966066471E+02  0.24299522840E+02  0.51100000000E-03 0.  1.
         12    1    3    3    0    0  0.78494418584E+00 -0.11933602928E+02  0.46158177479E+01  0.12819235145E+02  0.00000000000E+00 0. -1.
</event>
<event>
 7    1  0.1874105E-013  0.7246157E+02  0.7816164E-02  0.1226708E+00
        -11   -1    0    0    0    0  0.00000000000E+00  0.00000000000E+00  0.45593999997E+02  0.45594000000E+02  0.51100000000E-03 0. -1.
         11   -1    0    0    0    0 -0.00000000000E+00 -0.00000000000E+00 -0.45593999997E+02  0.45594000000E+02  0.51100000000E-03 0.  1.
    9900012    2    1    2    0    0  0.98178295271E+01 -0.56812240712E+01  0.14900108683E+02  0.72461566214E+02  0.69999994685E+02 0.  0.
        -12    1    1    2    0    0 -0.98178295271E+01  0.56812240712E+01 -0.14900108683E+02  0.18726433786E+02  0.00000000000E+00 0.  1.
         11    1    3    3    0    0 -0.28129586303E+02  0.34698899277E+00  0.68089973890E+01  0.28944023090E+02  0.51100000000E-03 0. -1.
        -11    1    3    3    0    0  0.13244116895E+02 -0.82284866614E+01 -0.37469413399E+01  0.16036028022E+02  0.51100000000E-03 0.  1.
         12    1    3    3    0    0  0.24703298935E+02  0.22002735974E+01  0.11838052634E+02  0.27481515102E+02  0.00000000000E+00 0. -1.
</event>
<event>
 7    1  0.1874105E-013  0.7246157E+02  0.7816164E-02  0.1226708E+00
        -11   -1    0    0    0    0  0.00000000000E+00  0.00000000000E+00  0.45593999997E+02  0.45594000000E+02  0.51100000000E-03 0. -1.
         11   -1    0    0    0    0 -0.00000000000E+00 -0.00000000000E+00 -0.45593999997E+02  0.45594000000E+02  0.51100000000E-03 0.  1.
    9900012    2    1    2    0    0 -0.94006001291E+00  0.13271106028E+02  0.13178507024E+02  0.72461574409E+02  0.70000005360E+02 0.  0.
        -12    1    1    2    0    0  0.94006001291E+00 -0.13271106028E+02 -0.13178507024E+02  0.18726425591E+02  0.00000000000E+00 0.  1.
         11    1    3    3    0    0  0.10313129242E+01 -0.23436343962E+02  0.13545295130E+02  0.27088758647E+02  0.51100000000E-03 0. -1.
        -11    1    3    3    0    0  0.84256044281E+01  0.20762292684E+02  0.90134669492E+01  0.24151732737E+02  0.51100000000E-03 0.  1.
        -12    1    3    3    0    0 -0.10396977365E+02  0.15945157306E+02 -0.93802550549E+01  0.21221083024E+02  0.00000000000E+00 0.  1.
</event>
<event>
 7    1  0.1874105E-013  0.7246155E+02  0.7816164E-02  0.1226708E+00
        -11   -1    0    0    0    0  0.00000000000E+00  0.00000000000E+00  0.45593999997E+02  0.45594000000E+02  0.51100000000E-03 0. -1.
         11   -1    0    0    0    0 -0.00000000000E+00 -0.00000000000E+00 -0.45593999997E+02  0.45594000000E+02  0.51100000000E-03 0.  1.
    9900012    2    1    2    0    0 -0.16650658752E+02  0.72469399771E+01 -0.45735453832E+01  0.72461550970E+02  0.69999974827E+02 0.  0.
        -12    1    1    2    0    0  0.16650658752E+02 -0.72469399771E+01  0.45735453832E+01  0.18726449030E+02  0.00000000000E+00 0.  1.
         11    1    3    3    0    0  0.21261100891E+02  0.13105452009E+02  0.91202315949E+00  0.24992380238E+02  0.51100000000E-03 0. -1.
        -11    1    3    3    0    0 -0.89318454882E+01 -0.10479082622E+02 -0.10982755813E+02  0.17612778371E+02  0.51100000000E-03 0.  1.
         12    1    3    3    0    0 -0.28979914154E+02  0.46205705898E+01  0.54971872706E+01  0.29856392362E+02  0.00000000000E+00 0. -1.
</event>
<event>
 7    1  0.1874105E-013  0.7246162E+02  0.7816164E-02  0.1226708E+00
        -11   -1    0    0    0    0  0.00000000000E+00  0.00000000000E+00  0.45593999997E+02  0.45594000000E+02  0.51100000000E-03 0. -1.
         11   -1    0    0    0    0 -0.00000000000E+00 -0.00000000000E+00 -0.45593999997E+02  0.45594000000E+02  0.51100000000E-03 0.  1.
    9900012    2    1    2    0    0 -0.38366789237E+01 -0.10720457141E+02  0.14867045791E+02  0.72461618688E+02  0.70000063042E+02 0.  0.
        -12    1    1    2    0    0  0.38366789237E+01  0.10720457141E+02 -0.14867045791E+02  0.18726381312E+02  0.00000000000E+00 0.  1.
         11    1    3    3    0    0 -0.87260137399E+01  0.10945824705E+02  0.19398083297E+02  0.23921539042E+02  0.51100000000E-03 0. -1.
        -11    1    3    3    0    0  0.18157549681E+02 -0.27403950204E+02 -0.76495242988E+01  0.33751863940E+02  0.51100000000E-03 0.  1.
        -12    1    3    3    0    0 -0.13268214865E+02  0.57376683578E+01  0.31184867931E+01  0.14788215706E+02  0.00000000000E+00 0.  1.
</event>
<event>
 8    1  0.1874105E-013  0.7246155E+02  0.7816164E-02  0.1226708E+00
        -11   -1    0    0    0    0  0.00000000000E+00  0.00000000000E+00  0.45593999997E+02  0.45594000000E+02  0.51100000000E-03 0. -1.
         11   -1    0    0    0    0 -0.00000000000E+00 -0.00000000000E+00 -0.45593999997E+02  0.45594000000E+02  0.51100000000E-03 0.  1.
    9900012    2    1    2    0    0 -0.18084343028E+02  0.45638063271E+00  0.48402684326E+01  0.72461549601E+02  0.69999973044E+02 0.  0.
        -24    2    3    3    0    0 -0.41989527867E+00 -0.73433216060E+01  0.42408361346E+01  0.53142455714E+02  0.52459843918E+02 0.  0.
        -12    1    1    2    0    0  0.18084343028E+02 -0.45638063271E+00 -0.48402684326E+01  0.18726450399E+02  0.00000000000E+00 0.  1.
         11    1    4    4    0    0  0.14249472751E+02 -0.20229892715E+02 -0.12225927960E+02  0.27600169342E+02  0.51100000000E-03 0. -1.
        -11    1    3    3    0    0 -0.17664447749E+02  0.77997022387E+01  0.59943229804E+00  0.19319093888E+02  0.51100000000E-03 0.  1.
        -12    1    4    4    0    0 -0.14669368029E+02  0.12886571109E+02  0.16466764095E+02  0.25542286372E+02  0.00000000000E+00 0.  1.
</event>
<event>
 7    1  0.1874105E-013  0.7246154E+02  0.7816164E-02  0.1226708E+00
        -11   -1    0    0    0    0  0.00000000000E+00  0.00000000000E+00  0.45593999997E+02  0.45594000000E+02  0.51100000000E-03 0.  1.
         11   -1    0    0    0    0 -0.00000000000E+00 -0.00000000000E+00 -0.45593999997E+02  0.45594000000E+02  0.51100000000E-03 0. -1.
    9900012    2    1    2    0    0  0.30580849159E+00 -0.10603779830E+02 -0.15432001191E+02  0.72461539408E+02  0.69999959765E+02 0.  0.
        -12    1    1    2    0    0 -0.30580849159E+00  0.10603779830E+02  0.15432001191E+02  0.18726460592E+02  0.00000000000E+00 0.  1.
         11    1    3    3    0    0 -0.75009906460E+01 -0.35965873254E+02 -0.11182745834E+02  0.38403941259E+02  0.51100000000E-03 0. -1.
        -11    1    3    3    0    0 -0.10636179911E+01  0.60407159288E+01 -0.10269138639E+02  0.11961469007E+02  0.51100000000E-03 0.  1.
         12    1    3    3    0    0  0.88704171287E+01  0.19321377495E+02  0.60198832814E+01  0.22096129142E+02  0.00000000000E+00 0. -1.
</event>
<event>
 7    1  0.1874105E-013  0.7246155E+02  0.7816164E-02  0.1226708E+00
        -11   -1    0    0    0    0  0.00000000000E+00  0.00000000000E+00  0.45593999997E+02  0.45594000000E+02  0.51100000000E-03 0. -1.
         11   -1    0    0    0    0 -0.00000000000E+00 -0.00000000000E+00 -0.45593999997E+02  0.45594000000E+02  0.51100000000E-03 0.  1.
    9900012    2    1    2    0    0  0.11273455277E+02  0.14947897754E+02  0.38672193190E+00  0.72461548254E+02  0.69999971288E+02 0.  0.
        -12    1    1    2    0    0 -0.11273455277E+02 -0.14947897754E+02 -0.38672193190E+00  0.18726451746E+02  0.00000000000E+00 0.  1.
         11    1    3    3    0    0  0.12237986869E+01  0.33395832866E+01  0.21753440398E+01  0.41692471391E+01  0.51100000000E-03 0. -1.
        -11    1    3    3    0    0  0.30248000405E+02 -0.76507885605E+01 -0.17996513499E+02  0.36018753344E+02  0.51100000000E-03 0.  1.
        -12    1    3    3    0    0 -0.20198343815E+02  0.19259103028E+02  0.16207891391E+02  0.32273547770E+02  0.00000000000E+00 0.  1.
</event>
<event>
 7    1  0.1874105E-013  0.7246159E+02  0.7816164E-02  0.1226708E+00
        -11   -1    0    0    0    0  0.00000000000E+00  0.00000000000E+00  0.45593999997E+02  0.45594000000E+02  0.51100000000E-03 0. -1.
         11   -1    0    0    0    0 -0.00000000000E+00 -0.00000000000E+00 -0.45593999997E+02  0.45594000000E+02  0.51100000000E-03 0.  1.
    9900012    2    1    2    0    0  0.49461850081E+01 -0.16472364158E+02 -0.74077685964E+01  0.72461586498E+02  0.70000021108E+02 0.  0.
        -12    1    1    2    0    0 -0.49461850081E+01  0.16472364158E+02  0.74077685964E+01  0.18726413502E+02  0.00000000000E+00 0.  1.
         11    1    3    3    0    0  0.40987078990E+01  0.67219768138E+01 -0.64059397898E+01  0.10149898698E+02  0.51100000000E-03 0. -1.
        -11    1    3    3    0    0  0.72798785011E+01 -0.18261950904E+02  0.26864944412E+02  0.33289949239E+02  0.51100000000E-03 0.  1.
        -12    1    3    3    0    0 -0.64324013921E+01 -0.49323900679E+01 -0.27866773219E+02  0.29021738561E+02  0.00000000000E+00 0.  1.
</event>
<event>
 7    1  0.1874105E-013  0.7246139E+02  0.7816164E-02  0.1226708E+00
        -11   -1    0    0    0    0  0.00000000000E+00  0.00000000000E+00  0.45593999997E+02  0.45594000000E+02  0.51100000000E-03 0.  1.
         11   -1    0    0    0    0 -0.00000000000E+00 -0.00000000000E+00 -0.45593999997E+02  0.45594000000E+02  0.51100000000E-03 0. -1.
    9900012    2    1    2    0    0  0.72471858185E+01  0.16343400732E+02 -0.55729137266E+01  0.72461392801E+02  0.69999768782E+02 0.  0.
        -12    1    1    2    0    0 -0.72471858185E+01 -0.16343400732E+02  0.55729137266E+01  0.18726607199E+02  0.00000000000E+00 0.  1.
         11    1    3    3    0    0 -0.12271453751E+02 -0.14907523710E+02 -0.22121773086E+01  0.19434931670E+02  0.51100000000E-03 0. -1.
        -11    1    3    3    0    0  0.10766774292E+02  0.10982769747E+02  0.17048697163E+02  0.22960895784E+02  0.51100000000E-03 0.  1.
        -12    1    3    3    0    0  0.87518652780E+01  0.20268154695E+02 -0.20409433581E+02  0.30065565347E+02  0.00000000000E+00 0.  1.
</event>
<event>
 7    1  0.1874105E-013  0.7246146E+02  0.7816164E-02  0.1226708E+00
        -11   -1    0    0    0    0  0.00000000000E+00  0.00000000000E+00  0.45593999997E+02  0.45594000000E+02  0.51100000000E-03 0. -1.
         11   -1    0    0    0    0 -0.00000000000E+00 -0.00000000000E+00 -0.45593999997E+02  0.45594000000E+02  0.51100000000E-03 0.  1.
    9900012    2    1    2    0    0  0.90210806271E-01 -0.18716094879E+02  0.61884676028E+00  0.72461459561E+02  0.69999855749E+02 0.  0.
        -12    1    1    2    0    0 -0.90210806271E-01  0.18716094879E+02 -0.61884676028E+00  0.18726540439E+02  0.00000000000E+00 0.  1.
         11    1    3    3    0    0 -0.99779366481E+01 -0.33606837048E+02  0.38389123500E+01  0.35266357402E+02  0.51100000000E-03 0. -1.
        -11    1    3    3    0    0  0.17539790955E+02  0.15064820396E+02 -0.11682342549E+02  0.25905022834E+02  0.51100000000E-03 0.  1.
         12    1    3    3    0    0 -0.74716435007E+01 -0.17407822731E+00  0.84622769595E+01  0.11290079325E+02  0.00000000000E+00 0. -1.
</event>
<event>
 7    1  0.1874105E-013  0.7246156E+02  0.7816164E-02  0.1226708E+00
        -11   -1    0    0    0    0  0.00000000000E+00  0.00000000000E+00  0.45593999997E+02  0.45594000000E+02  0.51100000000E-03 0. -1.
         11   -1    0    0    0    0 -0.00000000000E+00 -0.00000000000E+00 -0.45593999997E+02  0.45594000000E+02  0.51100000000E-03 0.  1.
    9900012    2    1    2    0    0  0.12688709786E+02  0.11481580023E+02 -0.76058797268E+01  0.72461563012E+02  0.69999990513E+02 0.  0.
        -12    1    1    2    0    0 -0.12688709786E+02 -0.11481580023E+02  0.76058797268E+01  0.18726436988E+02  0.00000000000E+00 0.  1.
         11    1    3    3    0    0  0.36409073268E+02  0.50020375389E+01 -0.26397240601E+01  0.36845747912E+02  0.51100000000E-03 0. -1.
        -11    1    3    3    0    0 -0.20985783356E+02 -0.48033890993E+01 -0.89879357694E+01  0.23329351460E+02  0.51100000000E-03 0.  1.
        -12    1    3    3    0    0 -0.27345801270E+01  0.11282931583E+02  0.40217801027E+01  0.12286463640E+02  0.00000000000E+00 0.  1.
</event>
<event>
 7    1  0.1874105E-013  0.7246159E+02  0.7816164E-02  0.1226708E+00
        -11   -1    0    0    0    0  0.00000000000E+00  0.00000000000E+00  0.45593999997E+02  0.45594000000E+02  0.51100000000E-03 0.  1.
         11   -1    0    0    0    0 -0.00000000000E+00 -0.00000000000E+00 -0.45593999997E+02  0.45594000000E+02  0.51100000000E-03 0. -1.
    9900012    2    1    2    0    0  0.89248974374E+01  0.99416516327E+00 -0.16432778002E+02  0.72461592136E+02  0.70000028452E+02 0.  0.
        -12    1    1    2    0    0 -0.89248974374E+01 -0.99416516327E+00  0.16432778002E+02  0.18726407864E+02  0.00000000000E+00 0.  1.
         11    1    3    3    0    0 -0.22210815799E+01 -0.80871574810E+00 -0.29403473359E+02  0.29498329960E+02  0.51100000000E-03 0. -1.
        -11    1    3    3    0    0  0.20258059465E+02 -0.12606262363E+02  0.86072381098E+01  0.25365160598E+02  0.51100000000E-03 0.  1.
        -12    1    3    3    0    0 -0.91120804479E+01  0.14409143274E+02  0.43634572478E+01  0.17598101578E+02  0.00000000000E+00 0.  1.
</event>
<event>
 7    1  0.1874105E-013  0.7246157E+02  0.7816164E-02  0.1226708E+00
        -11   -1    0    0    0    0  0.00000000000E+00  0.00000000000E+00  0.45593999997E+02  0.45594000000E+02  0.51100000000E-03 0.  1.
         11   -1    0    0    0    0 -0.00000000000E+00 -0.00000000000E+00 -0.45593999997E+02  0.45594000000E+02  0.51100000000E-03 0. -1.
    9900012    2    1    2    0    0 -0.28010948587E+01 -0.95455811356E+01 -0.15865528184E+02  0.72461568514E+02  0.69999997681E+02 0.  0.
        -12    1    1    2    0    0  0.28010948587E+01  0.95455811356E+01  0.15865528184E+02  0.18726431486E+02  0.00000000000E+00 0.  1.
         11    1    3    3    0    0  0.15324520163E+02 -0.11681128373E+02 -0.66935933685E+01  0.20398379121E+02  0.51100000000E-03 0. -1.
        -11    1    3    3    0    0 -0.33669638278E+02 -0.18581589906E+01 -0.11949922863E+02  0.35775661466E+02  0.51100000000E-03 0.  1.
        -12    1    3    3    0    0  0.15544023256E+02  0.39937062279E+01  0.27779880470E+01  0.16287527928E+02  0.00000000000E+00 0.  1.
</event>
<event>
 7    1  0.1874105E-013  0.7246155E+02  0.7816164E-02  0.1226708E+00
        -11   -1    0    0    0    0  0.00000000000E+00  0.00000000000E+00  0.45593999997E+02  0.45594000000E+02  0.51100000000E-03 0. -1.
         11   -1    0    0    0    0 -0.00000000000E+00 -0.00000000000E+00 -0.45593999997E+02  0.45594000000E+02  0.51100000000E-03 0.  1.
    9900012    2    1    2    0    0  0.18104078573E+02 -0.81873804171E-01 -0.47870281987E+01  0.72461548033E+02  0.69999971000E+02 0.  0.
        -12    1    1    2    0    0 -0.18104078573E+02  0.81873804171E-01  0.47870281987E+01  0.18726451967E+02  0.00000000000E+00 0.  1.
         11    1    3    3    0    0  0.27386796580E+02  0.21527501185E+02  0.66399159597E+01  0.35462070137E+02  0.51100000000E-03 0. -1.
        -11    1    3    3    0    0  0.47923308297E+01 -0.12178447423E+02 -0.14765958632E+02  0.19731055497E+02  0.51100000000E-03 0.  1.
        -12    1    3    3    0    0 -0.14075048837E+02 -0.94309275659E+01  0.33390144740E+01  0.17268422399E+02  0.00000000000E+00 0.  1.
</event>
<event>
 7    1  0.1874105E-013  0.7246157E+02  0.7816164E-02  0.1226708E+00
        -11   -1    0    0    0    0  0.00000000000E+00  0.00000000000E+00  0.45593999997E+02  0.45594000000E+02  0.51100000000E-03 0. -1.
         11   -1    0    0    0    0 -0.00000000000E+00 -0.00000000000E+00 -0.45593999997E+02  0.45594000000E+02  0.51100000000E-03 0.  1.
    9900012    2    1    2    0    0 -0.37473023157E+01 -0.27240823949E+01  0.18144314382E+02  0.72461573647E+02  0.70000004368E+02 0.  0.
        -12    1    1    2    0    0  0.37473023157E+01  0.27240823949E+01 -0.18144314382E+02  0.18726426353E+02  0.00000000000E+00 0.  1.
         11    1    3    3    0    0 -0.69516920070E+01  0.19623910255E+02  0.27225558896E+02  0.34273239312E+02  0.51100000000E-03 0. -1.
        -11    1    3    3    0    0 -0.80662827040E+01 -0.22177916821E+02 -0.12098164240E+02  0.26519624610E+02  0.51100000000E-03 0.  1.
        -12    1    3    3    0    0  0.11270672395E+02 -0.17007582867E+00  0.30169197270E+01  0.11668709726E+02  0.00000000000E+00 0.  1.
</event>
<event>
 7    1  0.1874105E-013  0.7246154E+02  0.7816164E-02  0.1226708E+00
        -11   -1    0    0    0    0  0.00000000000E+00  0.00000000000E+00  0.45593999997E+02  0.45594000000E+02  0.51100000000E-03 0.  1.
         11   -1    0    0    0    0 -0.00000000000E+00 -0.00000000000E+00 -0.45593999997E+02  0.45594000000E+02  0.51100000000E-03 0. -1.
    9900012    2    1    2    0    0  0.16785150668E+02  0.82039040429E+01  0.12785982459E+01  0.72461544436E+02  0.69999966315E+02 0.  0.
        -12    1    1    2    0    0 -0.16785150668E+02 -0.82039040429E+01 -0.12785982459E+01  0.18726455564E+02  0.00000000000E+00 0.  1.
         11    1    3    3    0    0 -0.20929900515E+02 -0.44546089858E+01  0.18436923108E+01  0.21477976590E+02  0.51100000000E-03 0. -1.
        -11    1    3    3    0    0  0.22483479242E+02  0.74934427652E+01 -0.16077562878E+02  0.28638200915E+02  0.51100000000E-03 0.  1.
        -12    1    3    3    0    0  0.15231571942E+02  0.51650702634E+01  0.15512468813E+02  0.22345366932E+02  0.00000000000E+00 0.  1.
</event>
<event>
 7    1  0.1874105E-013  0.7246165E+02  0.7816164E-02  0.1226708E+00
        -11   -1    0    0    0    0  0.00000000000E+00  0.00000000000E+00  0.45593999997E+02  0.45594000000E+02  0.51100000000E-03 0.  1.
         11   -1    0    0    0    0 -0.00000000000E+00 -0.00000000000E+00 -0.45593999997E+02  0.45594000000E+02  0.51100000000E-03 0. -1.
    9900012    2    1    2    0    0  0.11217416380E+02 -0.41930318435E+01 -0.14396679089E+02  0.72461646509E+02  0.70000099284E+02 0.  0.
        -12    1    1    2    0    0 -0.11217416380E+02  0.41930318435E+01  0.14396679089E+02  0.18726353491E+02  0.00000000000E+00 0.  1.
         11    1    3    3    0    0  0.27505983370E+02 -0.61157956424E+01 -0.28028284687E+02  0.39743764545E+02  0.51100000000E-03 0. -1.
        -11    1    3    3    0    0 -0.16996977946E+02 -0.62046332985E+01  0.16073226631E+02  0.24202135201E+02  0.51100000000E-03 0.  1.
         12    1    3    3    0    0  0.70841095646E+00  0.81273970974E+01 -0.24416210336E+01  0.85157467631E+01  0.00000000000E+00 0. -1.
</event>
<event>
 7    1  0.1874105E-013  0.7246161E+02  0.7816164E-02  0.1226708E+00
        -11   -1    0    0    0    0  0.00000000000E+00  0.00000000000E+00  0.45593999997E+02  0.45594000000E+02  0.51100000000E-03 0.  1.
         11   -1    0    0    0    0 -0.00000000000E+00 -0.00000000000E+00 -0.45593999997E+02  0.45594000000E+02  0.51100000000E-03 0. -1.
    9900012    2    1    2    0    0 -0.31897691252E+01 -0.17571554862E+02  0.56341529402E+01  0.72461605614E+02  0.70000046011E+02 0.  0.
        -12    1    1    2    0    0  0.31897691252E+01  0.17571554862E+02 -0.56341529402E+01  0.18726394386E+02  0.00000000000E+00 0.  1.
         11    1    3    3    0    0  0.24085919439E+02 -0.17624283593E+02  0.18386959512E+02  0.35054631189E+02  0.51100000000E-03 0. -1.
        -11    1    3    3    0    0 -0.23991157704E+02 -0.25113940038E+00  0.24849605680E+00  0.23993758970E+02  0.51100000000E-03 0.  1.
        -12    1    3    3    0    0 -0.32845308603E+01  0.30386813187E+00 -0.13001302629E+02  0.13413215456E+02  0.00000000000E+00 0.  1.
</event>
<event>
 7    1  0.1874105E-013  0.7246155E+02  0.7816164E-02  0.1226708E+00
        -11   -1    0    0    0    0  0.00000000000E+00  0.00000000000E+00  0.45593999997E+02  0.45594000000E+02  0.51100000000E-03 0.  1.
         11   -1    0    0    0    0 -0.00000000000E+00 -0.00000000000E+00 -0.45593999997E+02  0.45594000000E+02  0.51100000000E-03 0. -1.
    9900012    2    1    2    0    0  0.15429865490E+02  0.10379269843E+02  0.22068292603E+01  0.72461545800E+02  0.69999968092E+02 0.  0.
        -12    1    1    2    0    0 -0.15429865490E+02 -0.10379269843E+02 -0.22068292603E+01  0.18726454200E+02  0.00000000000E+00 0.  1.
         11    1    3    3    0    0 -0.10428221178E+02  0.63521245053E+01 -0.10832873693E+02  0.16323248310E+02  0.51100000000E-03 0. -1.
        -11    1    3    3    0    0 -0.22138202029E+01 -0.11051272072E+02  0.20515750655E+02  0.23407854227E+02  0.51100000000E-03 0.  1.
        -12    1    3    3    0    0  0.28071906872E+02  0.15078417410E+02 -0.74760477017E+01  0.32730443263E+02  0.00000000000E+00 0.  1.
</event>
<event>
 7    1  0.1874105E-013  0.7246148E+02  0.7816164E-02  0.1226708E+00
        -11   -1    0    0    0    0  0.00000000000E+00  0.00000000000E+00  0.45593999997E+02  0.45594000000E+02  0.51100000000E-03 0.  1.
         11   -1    0    0    0    0 -0.00000000000E+00 -0.00000000000E+00 -0.45593999997E+02  0.45594000000E+02  0.51100000000E-03 0. -1.
    9900012    2    1    2    0    0  0.10736868211E+02  0.26062965504E+01 -0.15119837312E+02  0.72461478672E+02  0.69999880645E+02 0.  0.
        -12    1    1    2    0    0 -0.10736868211E+02 -0.26062965504E+01  0.15119837312E+02  0.18726521328E+02  0.00000000000E+00 0.  1.
         11    1    3    3    0    0  0.21071703104E+02  0.75866021856E+01 -0.88481786544E+01  0.24080354445E+02  0.51100000000E-03 0.  1.
        -11    1    3    3    0    0 -0.25840643134E+02 -0.93571552478E+01  0.59978526625E+01  0.28129511705E+02  0.51100000000E-03 0. -1.
         12    1    3    3    0    0  0.15505808241E+02  0.43768496125E+01 -0.12269511320E+02  0.20251612523E+02  0.00000000000E+00 0. -1.
</event>
<event>
 7    1  0.1874105E-013  0.7246157E+02  0.7816164E-02  0.1226708E+00
        -11   -1    0    0    0    0  0.00000000000E+00  0.00000000000E+00  0.45593999997E+02  0.45594000000E+02  0.51100000000E-03 0.  1.
         11   -1    0    0    0    0 -0.00000000000E+00 -0.00000000000E+00 -0.45593999997E+02  0.45594000000E+02  0.51100000000E-03 0. -1.
    9900012    2    1    2    0    0  0.10139180684E+02  0.15004137877E+02 -0.47698909408E+01  0.72461574875E+02  0.70000005967E+02 0.  0.
        -12    1    1    2    0    0 -0.10139180684E+02 -0.15004137877E+02  0.47698909408E+01  0.18726425125E+02  0.00000000000E+00 0.  1.
         11    1    3    3    0    0  0.26329290309E+02  0.17462709484E+02  0.11365072745E+00  0.31594155590E+02  0.51100000000E-03 0. -1.
        -11    1    3    3    0    0 -0.73705100036E+00 -0.18096931632E+02 -0.53221624771E+01  0.18877700929E+02  0.51100000000E-03 0.  1.
         12    1    3    3    0    0 -0.15453058625E+02  0.15638360026E+02  0.43862080888E+00  0.21989718356E+02  0.00000000000E+00 0. -1.
</event>
<event>
 7    1  0.1874105E-013  0.7246159E+02  0.7816164E-02  0.1226708E+00
        -11   -1    0    0    0    0  0.00000000000E+00  0.00000000000E+00  0.45593999997E+02  0.45594000000E+02  0.51100000000E-03 0.  1.
         11   -1    0    0    0    0 -0.00000000000E+00 -0.00000000000E+00 -0.45593999997E+02  0.45594000000E+02  0.51100000000E-03 0. -1.
    9900012    2    1    2    0    0  0.43653218462E+01 -0.15714097468E+02 -0.92026964771E+01  0.72461587730E+02  0.70000022714E+02 0.  0.
        -12    1    1    2    0    0 -0.43653218462E+01  0.15714097468E+02  0.92026964771E+01  0.18726412270E+02  0.00000000000E+00 0.  1.
         11    1    3    3    0    0 -0.23117921910E+02 -0.10589615826E+02 -0.28605802789E+01  0.25588301948E+02  0.51100000000E-03 0. -1.
        -11    1    3    3    0    0  0.18061025318E+02  0.10743807914E+02  0.90125687367E+01  0.22866054306E+02  0.51100000000E-03 0.  1.
         12    1    3    3    0    0  0.94222184386E+01 -0.15868289556E+02 -0.15354684935E+02  0.24007231477E+02  0.00000000000E+00 0. -1.
</event>
<event>
 7    1  0.1874105E-013  0.7246162E+02  0.7816164E-02  0.1226708E+00
        -11   -1    0    0    0    0  0.00000000000E+00  0.00000000000E+00  0.45593999997E+02  0.45594000000E+02  0.51100000000E-03 0. -1.
         11   -1    0    0    0    0 -0.00000000000E+00 -0.00000000000E+00 -0.45593999997E+02  0.45594000000E+02  0.51100000000E-03 0.  1.
    9900012    2    1    2    0    0 -0.12154255530E+02 -0.12279059126E+02  0.72232959989E+01  0.72461622198E+02  0.70000067614E+02 0.  0.
        -12    1    1    2    0    0  0.12154255530E+02  0.12279059126E+02 -0.72232959989E+01  0.18726377802E+02  0.00000000000E+00 0.  1.
         11    1    3    3    0    0 -0.27240839592E+02  0.61746235521E+01 -0.62716350482E+01  0.28627307315E+02  0.51100000000E-03 0. -1.
        -11    1    3    3    0    0 -0.24122969167E+01 -0.21689154066E+02  0.14180778711E+02  0.26025623251E+02  0.51100000000E-03 0.  1.
         12    1    3    3    0    0  0.17498880978E+02  0.32354713883E+01 -0.68584766377E+00  0.17808691631E+02  0.00000000000E+00 0. -1.
</event>
<event>
 7    1  0.1874105E-013  0.7246155E+02  0.7816164E-02  0.1226708E+00
        -11   -1    0    0    0    0  0.00000000000E+00  0.00000000000E+00  0.45593999997E+02  0.45594000000E+02  0.51100000000E-03 0. -1.
         11   -1    0    0    0    0 -0.00000000000E+00 -0.00000000000E+00 -0.45593999997E+02  0.45594000000E+02  0.51100000000E-03 0.  1.
    9900012    2    1    2    0    0  0.13337401616E+02  0.12507008578E+02 -0.40457734098E+01  0.72461552714E+02  0.69999977099E+02 0.  0.
        -12    1    1    2    0    0 -0.13337401616E+02 -0.12507008578E+02  0.40457734098E+01  0.18726447286E+02  0.00000000000E+00 0.  1.
         11    1    3    3    0    0  0.21360663984E+02 -0.11815463901E+02  0.14290085304E+02  0.28285856736E+02  0.51100000000E-03 0. -1.
        -11    1    3    3    0    0 -0.12511678084E+02  0.47631174144E+01  0.41702161246E+01  0.14022128183E+02  0.51100000000E-03 0.  1.
         12    1    3    3    0    0  0.44884157160E+01  0.19559355065E+02 -0.22506074838E+02  0.30153567796E+02  0.00000000000E+00 0. -1.
</event>
<event>
 7    1  0.1874105E-013  0.7246160E+02  0.7816164E-02  0.1226708E+00
        -11   -1    0    0    0    0  0.00000000000E+00  0.00000000000E+00  0.45593999997E+02  0.45594000000E+02  0.51100000000E-03 0. -1.
         11   -1    0    0    0    0 -0.00000000000E+00 -0.00000000000E+00 -0.45593999997E+02  0.45594000000E+02  0.51100000000E-03 0.  1.
    9900012    2    1    2    0    0  0.10788240115E+02  0.12731775403E+02 -0.84966869251E+01  0.72461603700E+02  0.70000043517E+02 0.  0.
        -12    1    1    2    0    0 -0.10788240115E+02 -0.12731775403E+02  0.84966869251E+01  0.18726396300E+02  0.00000000000E+00 0.  1.
         11    1    3    3    0    0  0.90042565246E+01 -0.69457391057E+01  0.84776122051E+01  0.14184140307E+02  0.51100000000E-03 0. -1.
        -11    1    3    3    0    0 -0.92807068861E+01  0.23163062602E+02 -0.31180805264E+02  0.39936219232E+02  0.51100000000E-03 0.  1.
        -12    1    3    3    0    0  0.11064690476E+02 -0.34855480938E+01  0.14206506134E+02  0.18341244161E+02  0.00000000000E+00 0.  1.
</event>
<event>
 7    1  0.1874105E-013  0.7246165E+02  0.7816164E-02  0.1226708E+00
        -11   -1    0    0    0    0  0.00000000000E+00  0.00000000000E+00  0.45593999997E+02  0.45594000000E+02  0.51100000000E-03 0.  1.
         11   -1    0    0    0    0 -0.00000000000E+00 -0.00000000000E+00 -0.45593999997E+02  0.45594000000E+02  0.51100000000E-03 0. -1.
    9900012    2    1    2    0    0 -0.94734232090E+01 -0.46754220389E+01 -0.15461915037E+02  0.72461651313E+02  0.70000105541E+02 0.  0.
        -12    1    1    2    0    0  0.94734232090E+01  0.46754220389E+01  0.15461915037E+02  0.18726348687E+02  0.00000000000E+00 0.  1.
         11    1    3    3    0    0  0.19271989447E+02 -0.20179717957E+02 -0.54874632563E+01  0.28438404444E+02  0.51100000000E-03 0. -1.
        -11    1    3    3    0    0 -0.12775806317E+02  0.18239729500E+02 -0.15242682263E+02  0.26986076449E+02  0.51100000000E-03 0.  1.
         12    1    3    3    0    0 -0.15969606339E+02 -0.27354335814E+01  0.52682304817E+01  0.17037170420E+02  0.00000000000E+00 0. -1.
</event>
<event>
 7    1  0.1874105E-013  0.7246153E+02  0.7816164E-02  0.1226708E+00
        -11   -1    0    0    0    0  0.00000000000E+00  0.00000000000E+00  0.45593999997E+02  0.45594000000E+02  0.51100000000E-03 0. -1.
         11   -1    0    0    0    0 -0.00000000000E+00 -0.00000000000E+00 -0.45593999997E+02  0.45594000000E+02  0.51100000000E-03 0.  1.
    9900012    2    1    2    0    0 -0.27460312556E+01  0.11841959877E+02  0.14244581536E+02  0.72461526640E+02  0.69999943132E+02 0.  0.
        -12    1    1    2    0    0  0.27460312556E+01 -0.11841959877E+02 -0.14244581536E+02  0.18726473360E+02  0.00000000000E+00 0.  1.
         11    1    3    3    0    0 -0.32963848325E+02  0.17687861150E+02  0.20052533114E+01  0.37463272275E+02  0.51100000000E-03 0. -1.
        -11    1    3    3    0    0  0.15098585108E+01 -0.34510237649E+01  0.27645181019E+01  0.46724509998E+01  0.51100000000E-03 0.  1.
         12    1    3    3    0    0  0.28707958558E+02 -0.23948775079E+01  0.94748101228E+01  0.30325803365E+02  0.00000000000E+00 0. -1.
</event>
<event>
 7    1  0.1874105E-013  0.7246156E+02  0.7816164E-02  0.1226708E+00
        -11   -1    0    0    0    0  0.00000000000E+00  0.00000000000E+00  0.45593999997E+02  0.45594000000E+02  0.51100000000E-03 0.  1.
         11   -1    0    0    0    0 -0.00000000000E+00 -0.00000000000E+00 -0.45593999997E+02  0.45594000000E+02  0.51100000000E-03 0. -1.
    9900012    2    1    2    0    0  0.16963279596E+02 -0.77987347320E+01 -0.14513098971E+01  0.72461563646E+02  0.69999991340E+02 0.  0.
        -12    1    1    2    0    0 -0.16963279596E+02  0.77987347320E+01  0.14513098971E+01  0.18726436354E+02  0.00000000000E+00 0.  1.
         11    1    3    3    0    0  0.36902287056E+01 -0.30572742428E+02  0.44997432344E+01  0.31121665394E+02  0.51100000000E-03 0. -1.
        -11    1    3    3    0    0 -0.54885610313E+01  0.19022888311E+02  0.33263491299E+01  0.20076333845E+02  0.51100000000E-03 0.  1.
         12    1    3    3    0    0  0.18761611922E+02  0.37511193855E+01 -0.92774022614E+01  0.21263564407E+02  0.00000000000E+00 0. -1.
</event>
<event>
 7    1  0.1874105E-013  0.7246148E+02  0.7816164E-02  0.1226708E+00
        -11   -1    0    0    0    0  0.00000000000E+00  0.00000000000E+00  0.45593999997E+02  0.45594000000E+02  0.51100000000E-03 0. -1.
         11   -1    0    0    0    0 -0.00000000000E+00 -0.00000000000E+00 -0.45593999997E+02  0.45594000000E+02  0.51100000000E-03 0.  1.
    9900012    2    1    2    0    0 -0.17773846248E+02 -0.56094764873E+01  0.18184403480E+01  0.72461479709E+02  0.69999881995E+02 0.  0.
        -12    1    1    2    0    0  0.17773846248E+02  0.56094764873E+01 -0.18184403480E+01  0.18726520291E+02  0.00000000000E+00 0.  1.
         11    1    3    3    0    0  0.22977823246E+00  0.14541120234E+02  0.16557928769E+02  0.22037739927E+02  0.51100000000E-03 0. -1.
        -11    1    3    3    0    0 -0.19230994494E+02 -0.28744341221E+02 -0.20312197658E+02  0.40108025075E+02  0.51100000000E-03 0.  1.
        -12    1    3    3    0    0  0.12273700131E+01  0.85937445001E+01  0.55727092368E+01  0.10315714707E+02  0.00000000000E+00 0.  1.
</event>
<event>
 7    1  0.1874105E-013  0.7246155E+02  0.7816164E-02  0.1226708E+00
        -11   -1    0    0    0    0  0.00000000000E+00  0.00000000000E+00  0.45593999997E+02  0.45594000000E+02  0.51100000000E-03 0.  1.
         11   -1    0    0    0    0 -0.00000000000E+00 -0.00000000000E+00 -0.45593999997E+02  0.45594000000E+02  0.51100000000E-03 0. -1.
    9900012    2    1    2    0    0  0.99193281993E+01  0.14180163754E+02 -0.71560969087E+01  0.72461552420E+02  0.69999976715E+02 0.  0.
        -12    1    1    2    0    0 -0.99193281993E+01 -0.14180163754E+02  0.71560969087E+01  0.18726447580E+02  0.00000000000E+00 0.  1.
         11    1    3    3    0    0  0.86747580130E+01 -0.15276041015E+02 -0.15677035395E+02  0.23545239322E+02  0.51100000000E-03 0. -1.
        -11    1    3    3    0    0  0.16348919803E+02  0.20652713580E+02 -0.50054629052E+01  0.26811870806E+02  0.51100000000E-03 0.  1.
        -12    1    3    3    0    0 -0.15104349616E+02  0.88034911881E+01  0.13526401392E+02  0.22104442292E+02  0.00000000000E+00 0.  1.
</event>
<event>
 7    1  0.1874105E-013  0.7246149E+02  0.7816164E-02  0.1226708E+00
        -11   -1    0    0    0    0  0.00000000000E+00  0.00000000000E+00  0.45593999997E+02  0.45594000000E+02  0.51100000000E-03 0. -1.
         11   -1    0    0    0    0 -0.00000000000E+00 -0.00000000000E+00 -0.45593999997E+02  0.45594000000E+02  0.51100000000E-03 0.  1.
    9900012    2    1    2    0    0  0.62152993994E+01 -0.16255228803E+02 -0.69151884512E+01  0.72461488275E+02  0.69999893155E+02 0.  0.
        -12    1    1    2    0    0 -0.62152993994E+01  0.16255228803E+02  0.69151884512E+01  0.18726511725E+02  0.00000000000E+00 0.  1.
         11    1    3    3    0    0 -0.17238119000E+02 -0.19457472366E+02  0.13463768366E+02  0.29274887471E+02  0.51100000000E-03 0. -1.
        -11    1    3    3    0    0  0.21960874926E+02 -0.10380995756E+02 -0.14670020185E+02  0.28377008174E+02  0.51100000000E-03 0.  1.
         12    1    3    3    0    0  0.14925434737E+01  0.13583239319E+02 -0.57089366325E+01  0.14809592631E+02  0.00000000000E+00 0. -1.
</event>
<event>
 7    1  0.1874105E-013  0.7246216E+02  0.7816164E-02  0.1226706E+00
        -11   -1    0    0    0    0  0.00000000000E+00  0.00000000000E+00  0.45593999997E+02  0.45594000000E+02  0.51100000000E-03 0.  1.
         11   -1    0    0    0    0 -0.00000000000E+00 -0.00000000000E+00 -0.45593999997E+02  0.45594000000E+02  0.51100000000E-03 0. -1.
    9900012    2    1    2    0    0 -0.17994833479E+02  0.42067246788E+01  0.30242913342E+01  0.72462164837E+02  0.70000774498E+02 0.  0.
        -12    1    1    2    0    0  0.17994833479E+02 -0.42067246788E+01 -0.30242913342E+01  0.18725835163E+02  0.00000000000E+00 0.  1.
         11    1    3    3    0    0 -0.14774631762E+01 -0.26402207023E+02  0.14521619973E+02  0.30168474937E+02  0.51100000000E-03 0. -1.
        -11    1    3    3    0    0 -0.12182234755E+02  0.14765103077E+02  0.41731806026E+01  0.19591593838E+02  0.51100000000E-03 0.  1.
         12    1    3    3    0    0 -0.43351355479E+01  0.15843828625E+02 -0.15670509242E+02  0.22702096062E+02  0.00000000000E+00 0. -1.
</event>
<event>
 7    1  0.1874105E-013  0.7246157E+02  0.7816164E-02  0.1226708E+00
        -11   -1    0    0    0    0  0.00000000000E+00  0.00000000000E+00  0.45593999997E+02  0.45594000000E+02  0.51100000000E-03 0.  1.
         11   -1    0    0    0    0 -0.00000000000E+00 -0.00000000000E+00 -0.45593999997E+02  0.45594000000E+02  0.51100000000E-03 0. -1.
    9900012    2    1    2    0    0 -0.47095383011E+01 -0.23409500939E+01 -0.17972740784E+02  0.72461569224E+02  0.69999998605E+02 0.  0.
        -12    1    1    2    0    0  0.47095383011E+01  0.23409500939E+01  0.17972740784E+02  0.18726430776E+02  0.00000000000E+00 0.  1.
         11    1    3    3    0    0 -0.31466917908E+02  0.90213406513E+01 -0.95784881822E+01  0.34107168542E+02  0.51100000000E-03 0. -1.
        -11    1    3    3    0    0  0.11739709333E+02 -0.13103813056E+02 -0.13735531536E+02  0.22320293875E+02  0.51100000000E-03 0.  1.
         12    1    3    3    0    0  0.15017670275E+02  0.17415223112E+01  0.53412789346E+01  0.16034106807E+02  0.00000000000E+00 0. -1.
</event>
<event>
 7    1  0.1874105E-013  0.7246155E+02  0.7816164E-02  0.1226708E+00
        -11   -1    0    0    0    0  0.00000000000E+00  0.00000000000E+00  0.45593999997E+02  0.45594000000E+02  0.51100000000E-03 0.  1.
         11   -1    0    0    0    0 -0.00000000000E+00 -0.00000000000E+00 -0.45593999997E+02  0.45594000000E+02  0.51100000000E-03 0. -1.
    9900012    2    1    2    0    0 -0.66649309581E+01  0.79149031119E+00 -0.17482337038E+02  0.72461551594E+02  0.69999975639E+02 0.  0.
        -12    1    1    2    0    0  0.66649309581E+01 -0.79149031119E+00  0.17482337038E+02  0.18726448406E+02  0.00000000000E+00 0.  1.
         11    1    3    3    0    0 -0.96068965312E+01 -0.16335693124E+02 -0.69530002095E+01  0.20186419766E+02  0.51100000000E-03 0. -1.
        -11    1    3    3    0    0 -0.15627684964E+02  0.17380000840E+02  0.92563630200E+01  0.25138998054E+02  0.51100000000E-03 0.  1.
        -12    1    3    3    0    0  0.18569650537E+02 -0.25281740481E+00 -0.19785699849E+02  0.27136133774E+02  0.00000000000E+00 0.  1.
</event>
<event>
 7    1  0.1874105E-013  0.7246146E+02  0.7816164E-02  0.1226708E+00
        -11   -1    0    0    0    0  0.00000000000E+00  0.00000000000E+00  0.45593999997E+02  0.45594000000E+02  0.51100000000E-03 0.  1.
         11   -1    0    0    0    0 -0.00000000000E+00 -0.00000000000E+00 -0.45593999997E+02  0.45594000000E+02  0.51100000000E-03 0. -1.
    9900012    2    1    2    0    0  0.86953477757E+01  0.46730615990E+01 -0.15913414252E+02  0.72461459188E+02  0.69999855263E+02 0.  0.
        -12    1    1    2    0    0 -0.86953477757E+01 -0.46730615990E+01  0.15913414252E+02  0.18726540812E+02  0.00000000000E+00 0.  1.
         11    1    3    3    0    0 -0.44947899209E+01 -0.12053780892E+02 -0.18177041437E+02  0.22268848328E+02  0.51100000000E-03 0. -1.
        -11    1    3    3    0    0  0.13411361888E+02  0.31252397532E+02  0.73629068533E+01  0.34796398905E+02  0.51100000000E-03 0.  1.
        -12    1    3    3    0    0 -0.22122419124E+00 -0.14525555042E+02 -0.50992796683E+01  0.15396211954E+02  0.00000000000E+00 0.  1.
</event>
<event>
 7    1  0.1874105E-013  0.7246154E+02  0.7816164E-02  0.1226708E+00
        -11   -1    0    0    0    0  0.00000000000E+00  0.00000000000E+00  0.45593999997E+02  0.45594000000E+02  0.51100000000E-03 0. -1.
         11   -1    0    0    0    0 -0.00000000000E+00 -0.00000000000E+00 -0.45593999997E+02  0.45594000000E+02  0.51100000000E-03 0.  1.
    9900012    2    1    2    0    0 -0.10410701311E+02 -0.17120073171E+01  0.15471480152E+02  0.72461538269E+02  0.69999958281E+02 0.  0.
        -12    1    1    2    0    0  0.10410701311E+02  0.17120073171E+01 -0.15471480152E+02  0.18726461731E+02  0.00000000000E+00 0.  1.
         11    1    3    3    0    0  0.20128041218E+02  0.10578297236E+02 -0.18825566378E+00  0.22739258038E+02  0.51100000000E-03 0.  1.
        -11    1    3    3    0    0 -0.23538727697E+02 -0.19841939684E+02  0.21809779306E+02  0.37728513695E+02  0.51100000000E-03 0. -1.
         12    1    3    3    0    0 -0.70000148320E+01  0.75516351306E+01 -0.61500434894E+01  0.11993766536E+02  0.00000000000E+00 0. -1.
</event>
<event>
 7    1  0.1874105E-013  0.7246155E+02  0.7816164E-02  0.1226708E+00
        -11   -1    0    0    0    0  0.00000000000E+00  0.00000000000E+00  0.45593999997E+02  0.45594000000E+02  0.51100000000E-03 0.  1.
         11   -1    0    0    0    0 -0.00000000000E+00 -0.00000000000E+00 -0.45593999997E+02  0.45594000000E+02  0.51100000000E-03 0. -1.
    9900012    2    1    2    0    0 -0.15781039783E+02  0.98187654062E+01 -0.22870680700E+01  0.72461546756E+02  0.69999969337E+02 0.  0.
        -12    1    1    2    0    0  0.15781039783E+02 -0.98187654062E+01  0.22870680700E+01  0.18726453244E+02  0.00000000000E+00 0.  1.
         11    1    3    3    0    0  0.10510592987E+02  0.13093299321E+02 -0.16758959178E+01  0.16873520067E+02  0.51100000000E-03 0. -1.
        -11    1    3    3    0    0 -0.30421297419E+02  0.69458286293E+01 -0.17230479050E+02  0.35645326209E+02  0.51100000000E-03 0.  1.
        -12    1    3    3    0    0  0.41296646489E+01 -0.10220362544E+02  0.16619306898E+02  0.19942700480E+02  0.00000000000E+00 0.  1.
</event>
<event>
 7    1  0.1874105E-013  0.7246160E+02  0.7816164E-02  0.1226708E+00
        -11   -1    0    0    0    0  0.00000000000E+00  0.00000000000E+00  0.45593999997E+02  0.45594000000E+02  0.51100000000E-03 0.  1.
         11   -1    0    0    0    0 -0.00000000000E+00 -0.00000000000E+00 -0.45593999997E+02  0.45594000000E+02  0.51100000000E-03 0. -1.
    9900012    2    1    2    0    0  0.21252833690E+01 -0.16209124595E+02 -0.91337567546E+01  0.72461599866E+02  0.70000038522E+02 0.  0.
        -12    1    1    2    0    0 -0.21252833690E+01  0.16209124595E+02  0.91337567546E+01  0.18726400134E+02  0.00000000000E+00 0.  1.
         11    1    3    3    0    0  0.10388896554E+02  0.50704142185E+01  0.15278476894E+01  0.11660728570E+02  0.51100000000E-03 0. -1.
        -11    1    3    3    0    0 -0.27845924861E+02 -0.19701575167E+02 -0.19463890208E+02  0.39273281219E+02  0.51100000000E-03 0.  1.
        -12    1    3    3    0    0  0.19582311676E+02 -0.15779636464E+01  0.88022857644E+01  0.21527590077E+02  0.00000000000E+00 0.  1.
</event>
<event>
 7    1  0.1874105E-013  0.7246170E+02  0.7816164E-02  0.1226708E+00
        -11   -1    0    0    0    0  0.00000000000E+00  0.00000000000E+00  0.45593999997E+02  0.45594000000E+02  0.51100000000E-03 0. -1.
         11   -1    0    0    0    0 -0.00000000000E+00 -0.00000000000E+00 -0.45593999997E+02  0.45594000000E+02  0.51100000000E-03 0.  1.
    9900012    2    1    2    0    0  0.35976878097E+01 -0.15227831431E+02 -0.10288052412E+02  0.72461702178E+02  0.70000171803E+02 0.  0.
        -12    1    1    2    0    0 -0.35976878097E+01  0.15227831431E+02  0.10288052412E+02  0.18726297822E+02  0.00000000000E+00 0.  1.
         11    1    3    3    0    0 -0.10732497991E+02 -0.18461791365E+02 -0.76541175041E+01  0.22685011980E+02  0.51100000000E-03 0. -1.
        -11    1    3    3    0    0  0.30244423943E+02 -0.63662605003E+01 -0.38774555796E+01  0.31149464111E+02  0.51100000000E-03 0.  1.
        -12    1    3    3    0    0 -0.15914238142E+02  0.96002204339E+01  0.12435206713E+01  0.18627226087E+02  0.00000000000E+00 0.  1.
</event>
<event>
 7    1  0.1874105E-013  0.7246162E+02  0.7816164E-02  0.1226708E+00
        -11   -1    0    0    0    0  0.00000000000E+00  0.00000000000E+00  0.45593999997E+02  0.45594000000E+02  0.51100000000E-03 0.  1.
         11   -1    0    0    0    0 -0.00000000000E+00 -0.00000000000E+00 -0.45593999997E+02  0.45594000000E+02  0.51100000000E-03 0. -1.
    9900012    2    1    2    0    0 -0.22225685311E+01  0.42022469143E+01 -0.18112936291E+02  0.72461624188E+02  0.70000070206E+02 0.  0.
        -12    1    1    2    0    0  0.22225685311E+01 -0.42022469143E+01  0.18112936291E+02  0.18726375812E+02  0.00000000000E+00 0.  1.
         11    1    3    3    0    0  0.20754875717E+02  0.11496897001E+02  0.52110814073E+01  0.24291950855E+02  0.51100000000E-03 0. -1.
        -11    1    3    3    0    0 -0.26426412666E+02  0.57784643884E+01 -0.21443466705E+02  0.34519099085E+02  0.51100000000E-03 0.  1.
        -12    1    3    3    0    0  0.34489684180E+01 -0.13073114475E+02 -0.18805509928E+01  0.13650574247E+02  0.00000000000E+00 0.  1.
</event>
<event>
 7    1  0.1874105E-013  0.7246156E+02  0.7816164E-02  0.1226708E+00
        -11   -1    0    0    0    0  0.00000000000E+00  0.00000000000E+00  0.45593999997E+02  0.45594000000E+02  0.51100000000E-03 0.  1.
         11   -1    0    0    0    0 -0.00000000000E+00 -0.00000000000E+00 -0.45593999997E+02  0.45594000000E+02  0.51100000000E-03 0. -1.
    9900012    2    1    2    0    0  0.44914591640E+01  0.27905990538E+01 -0.17964373761E+02  0.72461564858E+02  0.69999992918E+02 0.  0.
        -12    1    1    2    0    0 -0.44914591640E+01 -0.27905990538E+01  0.17964373761E+02  0.18726435142E+02  0.00000000000E+00 0.  1.
         11    1    3    3    0    0  0.16147293487E+02  0.92888803532E+01  0.18106719950E+02  0.25978292722E+02  0.51100000000E-03 0.  1.
        -11    1    3    3    0    0 -0.17005432265E+02  0.27637149275E+01 -0.14959812718E+02  0.22817073510E+02  0.51100000000E-03 0. -1.
         12    1    3    3    0    0  0.53495979426E+01 -0.92619962268E+01 -0.21111280993E+02  0.23666198626E+02  0.00000000000E+00 0. -1.
</event>
<event>
 7    1  0.1874105E-013  0.7246178E+02  0.7816164E-02  0.1226707E+00
        -11   -1    0    0    0    0  0.00000000000E+00  0.00000000000E+00  0.45593999997E+02  0.45594000000E+02  0.51100000000E-03 0.  1.
         11   -1    0    0    0    0 -0.00000000000E+00 -0.00000000000E+00 -0.45593999997E+02  0.45594000000E+02  0.51100000000E-03 0. -1.
    9900012    2    1    2    0    0 -0.16952745421E+02 -0.38722877615E+01  0.69484754441E+01  0.72461775052E+02  0.70000266734E+02 0.  0.
        -12    1    1    2    0    0  0.16952745421E+02  0.38722877615E+01 -0.69484754441E+01  0.18726224948E+02  0.00000000000E+00 0.  1.
         11    1    3    3    0    0 -0.91825753748E+01  0.14239198322E+02  0.10479020988E+02  0.19921956241E+02  0.51100000000E-03 0.  1.
        -11    1    3    3    0    0 -0.12664652357E+02 -0.24350610640E+02  0.15783163732E+02  0.31661552639E+02  0.51100000000E-03 0. -1.
        -12    1    3    3    0    0  0.48944823107E+01  0.62391245570E+01 -0.19313709276E+02  0.20878266171E+02  0.00000000000E+00 0.  1.
</event>
<event>
 7    1  0.1874105E-013  0.7246156E+02  0.7816164E-02  0.1226708E+00
        -11   -1    0    0    0    0  0.00000000000E+00  0.00000000000E+00  0.45593999997E+02  0.45594000000E+02  0.51100000000E-03 0.  1.
         11   -1    0    0    0    0 -0.00000000000E+00 -0.00000000000E+00 -0.45593999997E+02  0.45594000000E+02  0.51100000000E-03 0. -1.
    9900012    2    1    2    0    0  0.18512630222E+02  0.30502003527E+00  0.28051541216E+01  0.72461564017E+02  0.69999991823E+02 0.  0.
        -12    1    1    2    0    0 -0.18512630222E+02 -0.30502003527E+00 -0.28051541216E+01  0.18726435983E+02  0.00000000000E+00 0.  1.
         11    1    3    3    0    0  0.19541932642E+02  0.19340356105E+02 -0.17220891464E+02  0.32442188716E+02  0.51100000000E-03 0. -1.
        -11    1    3    3    0    0 -0.13417129542E+02 -0.44419697503E+01  0.14140942932E+02  0.19992916937E+02  0.51100000000E-03 0.  1.
        -12    1    3    3    0    0  0.12387827122E+02 -0.14593366319E+02  0.58851026543E+01  0.20026458364E+02  0.00000000000E+00 0.  1.
</event>
<event>
 7    1  0.1874105E-013  0.7246151E+02  0.7816164E-02  0.1226708E+00
        -11   -1    0    0    0    0  0.00000000000E+00  0.00000000000E+00  0.45593999997E+02  0.45594000000E+02  0.51100000000E-03 0. -1.
         11   -1    0    0    0    0 -0.00000000000E+00 -0.00000000000E+00 -0.45593999997E+02  0.45594000000E+02  0.51100000000E-03 0.  1.
    9900012    2    1    2    0    0 -0.56709882737E+01 -0.15065794959E+02  0.95678264684E+01  0.72461505692E+02  0.69999915843E+02 0.  0.
        -12    1    1    2    0    0  0.56709882737E+01  0.15065794959E+02 -0.95678264684E+01  0.18726494308E+02  0.00000000000E+00 0.  1.
         11    1    3    3    0    0 -0.26283172006E+02 -0.41888539057E+01  0.16663432835E+02  0.31400981224E+02  0.51100000000E-03 0.  1.
        -11    1    3    3    0    0  0.23533368167E+02  0.47875379551E+01 -0.73789640848E+01  0.25123476037E+02  0.51100000000E-03 0. -1.
         12    1    3    3    0    0 -0.29211844351E+01 -0.15664479008E+02  0.28335771777E+00  0.15937048431E+02  0.00000000000E+00 0. -1.
</event>
<event>
 7    1  0.1874105E-013  0.7246171E+02  0.7816164E-02  0.1226708E+00
        -11   -1    0    0    0    0  0.00000000000E+00  0.00000000000E+00  0.45593999997E+02  0.45594000000E+02  0.51100000000E-03 0.  1.
         11   -1    0    0    0    0 -0.00000000000E+00 -0.00000000000E+00 -0.45593999997E+02  0.45594000000E+02  0.51100000000E-03 0. -1.
    9900012    2    1    2    0    0 -0.18275948132E+02  0.13011302045E+01 -0.38691997032E+01  0.72461710290E+02  0.70000182370E+02 0.  0.
        -12    1    1    2    0    0  0.18275948132E+02 -0.13011302045E+01  0.38691997032E+01  0.18726289710E+02  0.00000000000E+00 0.  1.
         11    1    3    3    0    0 -0.31305750074E+02 -0.14265193619E+02  0.32007149921E+01  0.34551270793E+02  0.51100000000E-03 0. -1.
        -11    1    3    3    0    0  0.31360628222E+01  0.12259283169E+02 -0.18514011040E+02  0.22425287487E+02  0.51100000000E-03 0.  1.
         12    1    3    3    0    0  0.98937391193E+01  0.33070406542E+01  0.11444096344E+02  0.15485152010E+02  0.00000000000E+00 0. -1.
</event>
<event>
 7    1  0.1874105E-013  0.7246155E+02  0.7816164E-02  0.1226708E+00
        -11   -1    0    0    0    0  0.00000000000E+00  0.00000000000E+00  0.45593999997E+02  0.45594000000E+02  0.51100000000E-03 0.  1.
         11   -1    0    0    0    0 -0.00000000000E+00 -0.00000000000E+00 -0.45593999997E+02  0.45594000000E+02  0.51100000000E-03 0. -1.
    9900012    2    1    2    0    0 -0.17210838873E+02  0.57433049886E+01  0.46347841050E+01  0.72461554780E+02  0.69999979789E+02 0.  0.
        -12    1    1    2    0    0  0.17210838873E+02 -0.57433049886E+01 -0.46347841050E+01  0.18726445220E+02  0.00000000000E+00 0.  1.
         11    1    3    3    0    0 -0.28355222583E+02  0.41866210380E+00  0.27115974938E+02  0.39236080625E+02  0.51100000000E-03 0. -1.
        -11    1    3    3    0    0  0.11570640119E+02 -0.86097451714E+00 -0.19334230725E+01  0.11762615139E+02  0.51100000000E-03 0.  1.
         12    1    3    3    0    0 -0.42625640782E+00  0.61856174019E+01 -0.20547767761E+02  0.21462859015E+02  0.00000000000E+00 0. -1.
</event>
<event>
 7    1  0.1874105E-013  0.7246159E+02  0.7816164E-02  0.1226708E+00
        -11   -1    0    0    0    0  0.00000000000E+00  0.00000000000E+00  0.45593999997E+02  0.45594000000E+02  0.51100000000E-03 0. -1.
         11   -1    0    0    0    0 -0.00000000000E+00 -0.00000000000E+00 -0.45593999997E+02  0.45594000000E+02  0.51100000000E-03 0.  1.
    9900012    2    1    2    0    0  0.18600506149E+01  0.91016648256E+01  0.16259711791E+02  0.72461593019E+02  0.70000029604E+02 0.  0.
        -12    1    1    2    0    0 -0.18600506149E+01 -0.91016648256E+01 -0.16259711791E+02  0.18726406981E+02  0.00000000000E+00 0.  1.
         11    1    3    3    0    0 -0.18737430765E+02 -0.20670565344E+02 -0.74293060423E+01  0.28871407514E+02  0.51100000000E-03 0.  1.
        -11    1    3    3    0    0  0.14889345120E+02  0.24192503698E+02  0.16521961240E+02  0.32862517201E+02  0.51100000000E-03 0. -1.
        -12    1    3    3    0    0  0.57081362595E+01  0.55797264708E+01  0.71670565929E+01  0.10727668305E+02  0.00000000000E+00 0.  1.
</event>
<event>
 7    1  0.1874105E-013  0.7246162E+02  0.7816164E-02  0.1226708E+00
        -11   -1    0    0    0    0  0.00000000000E+00  0.00000000000E+00  0.45593999997E+02  0.45594000000E+02  0.51100000000E-03 0.  1.
         11   -1    0    0    0    0 -0.00000000000E+00 -0.00000000000E+00 -0.45593999997E+02  0.45594000000E+02  0.51100000000E-03 0. -1.
    9900012    2    1    2    0    0 -0.16417888384E+02 -0.51002670086E+01 -0.74241250193E+01  0.72461617145E+02  0.70000061032E+02 0.  0.
        -12    1    1    2    0    0  0.16417888384E+02  0.51002670086E+01  0.74241250193E+01  0.18726382855E+02  0.00000000000E+00 0.  1.
         11    1    3    3    0    0  0.15635519285E+02  0.18008816563E+01  0.18135677334E+02  0.24012818050E+02  0.51100000000E-03 0. -1.
        -11    1    3    3    0    0 -0.66345749858E+01 -0.55219487499E+00 -0.20775081711E+02  0.21815740299E+02  0.51100000000E-03 0.  1.
        -12    1    3    3    0    0 -0.25418832683E+02 -0.63489537898E+01 -0.47847206426E+01  0.26633058796E+02  0.00000000000E+00 0.  1.
</event>
<event>
 7    1  0.1874105E-013  0.7246190E+02  0.7816164E-02  0.1226707E+00
        -11   -1    0    0    0    0  0.00000000000E+00  0.00000000000E+00  0.45593999997E+02  0.45594000000E+02  0.51100000000E-03 0.  1.
         11   -1    0    0    0    0 -0.00000000000E+00 -0.00000000000E+00 -0.45593999997E+02  0.45594000000E+02  0.51100000000E-03 0. -1.
    9900012    2    1    2    0    0 -0.53796602402E+01 -0.48905049313E+01 -0.17257146523E+02  0.72461898192E+02  0.70000427147E+02 0.  0.
        -12    1    1    2    0    0  0.53796602402E+01  0.48905049313E+01  0.17257146523E+02  0.18726101808E+02  0.00000000000E+00 0.  1.
         11    1    3    3    0    0 -0.98709523613E+01  0.38690697408E+01 -0.17034711782E+02  0.20064565954E+02  0.51100000000E-03 0. -1.
        -11    1    3    3    0    0  0.26776276666E+02  0.32566513837E+01  0.15428773890E+01  0.27017683861E+02  0.51100000000E-03 0.  1.
        -12    1    3    3    0    0 -0.22284984545E+02 -0.12016226056E+02 -0.17653121304E+01  0.25379648377E+02  0.00000000000E+00 0.  1.
</event>
<event>
 7    1  0.1874105E-013  0.7246165E+02  0.7816164E-02  0.1226708E+00
        -11   -1    0    0    0    0  0.00000000000E+00  0.00000000000E+00  0.45593999997E+02  0.45594000000E+02  0.51100000000E-03 0. -1.
         11   -1    0    0    0    0 -0.00000000000E+00 -0.00000000000E+00 -0.45593999997E+02  0.45594000000E+02  0.51100000000E-03 0.  1.
    9900012    2    1    2    0    0 -0.51420519111E+01 -0.17913650941E+02 -0.18266681244E+01  0.72461646795E+02  0.70000099657E+02 0.  0.
        -12    1    1    2    0    0  0.51420519111E+01  0.17913650941E+02  0.18266681244E+01  0.18726353205E+02  0.00000000000E+00 0.  1.
         11    1    3    3    0    0 -0.19374759046E+01  0.35975386596E+01  0.13950058151E+02  0.14536169371E+02  0.51100000000E-03 0. -1.
        -11    1    3    3    0    0 -0.12540229001E+02 -0.36095891670E+02 -0.13145124134E+02  0.40409961985E+02  0.51100000000E-03 0.  1.
        -12    1    3    3    0    0  0.93356529943E+01  0.14584702069E+02 -0.26316021419E+01  0.17515515440E+02  0.00000000000E+00 0.  1.
</event>
<event>
 7    1  0.1874105E-013  0.7246156E+02  0.7816164E-02  0.1226708E+00
        -11   -1    0    0    0    0  0.00000000000E+00  0.00000000000E+00  0.45593999997E+02  0.45594000000E+02  0.51100000000E-03 0.  1.
         11   -1    0    0    0    0 -0.00000000000E+00 -0.00000000000E+00 -0.45593999997E+02  0.45594000000E+02  0.51100000000E-03 0. -1.
    9900012    2    1    2    0    0 -0.15694121987E+02 -0.90280648633E+01  0.47820578105E+01  0.72461561550E+02  0.69999988609E+02 0.  0.
        -12    1    1    2    0    0  0.15694121987E+02  0.90280648633E+01 -0.47820578105E+01  0.18726438450E+02  0.00000000000E+00 0.  1.
         11    1    3    3    0    0 -0.26508081624E+02  0.99620069133E+01  0.61231212668E+01  0.28972617890E+02  0.51100000000E-03 0. -1.
        -11    1    3    3    0    0 -0.34835697620E+01 -0.23959644428E+02 -0.98340095208E+01  0.26132500127E+02  0.51100000000E-03 0.  1.
        -12    1    3    3    0    0  0.14297529399E+02  0.49695726510E+01  0.84929460645E+01  0.17356443532E+02  0.00000000000E+00 0.  1.
</event>
<event>
 7    1  0.1874105E-013  0.7246155E+02  0.7816164E-02  0.1226708E+00
        -11   -1    0    0    0    0  0.00000000000E+00  0.00000000000E+00  0.45593999997E+02  0.45594000000E+02  0.51100000000E-03 0.  1.
         11   -1    0    0    0    0 -0.00000000000E+00 -0.00000000000E+00 -0.45593999997E+02  0.45594000000E+02  0.51100000000E-03 0. -1.
    9900012    2    1    2    0    0  0.48675598956E+01 -0.11534403689E+02  0.13926390246E+02  0.72461549373E+02  0.69999972746E+02 0.  0.
        -12    1    1    2    0    0 -0.48675598956E+01  0.11534403689E+02 -0.13926390246E+02  0.18726450627E+02  0.00000000000E+00 0.  1.
         11    1    3    3    0    0  0.17601218246E+02  0.20530878613E+02  0.22220553442E+01  0.27134063289E+02  0.51100000000E-03 0. -1.
        -11    1    3    3    0    0 -0.19339973549E+02 -0.27437340214E+02  0.33831008387E+01  0.33738517846E+02  0.51100000000E-03 0.  1.
        -12    1    3    3    0    0  0.66063151983E+01 -0.46279420882E+01  0.83212340633E+01  0.11588968237E+02  0.00000000000E+00 0.  1.
</event>
<event>
 7    1  0.1874105E-013  0.7246155E+02  0.7816164E-02  0.1226708E+00
        -11   -1    0    0    0    0  0.00000000000E+00  0.00000000000E+00  0.45593999997E+02  0.45594000000E+02  0.51100000000E-03 0. -1.
         11   -1    0    0    0    0 -0.00000000000E+00 -0.00000000000E+00 -0.45593999997E+02  0.45594000000E+02  0.51100000000E-03 0.  1.
    9900012    2    1    2    0    0  0.24516786309E+01  0.11655711444E+02  0.14450379822E+02  0.72461553077E+02  0.69999977571E+02 0.  0.
        -12    1    1    2    0    0 -0.24516786309E+01 -0.11655711444E+02 -0.14450379822E+02  0.18726446923E+02  0.00000000000E+00 0.  1.
         11    1    3    3    0    0 -0.69339136910E+01  0.66795408233E+01  0.10350773948E+02  0.14136263518E+02  0.51100000000E-03 0. -1.
        -11    1    3    3    0    0  0.27125262085E+02 -0.14981073994E+02  0.59734421818E+01  0.31557795122E+02  0.51100000000E-03 0.  1.
        -12    1    3    3    0    0 -0.17739669763E+02  0.19957244614E+02 -0.18738363069E+01  0.26767494436E+02  0.00000000000E+00 0.  1.
</event>
<event>
 7    1  0.1874105E-013  0.7246155E+02  0.7816164E-02  0.1226708E+00
        -11   -1    0    0    0    0  0.00000000000E+00  0.00000000000E+00  0.45593999997E+02  0.45594000000E+02  0.51100000000E-03 0. -1.
         11   -1    0    0    0    0 -0.00000000000E+00 -0.00000000000E+00 -0.45593999997E+02  0.45594000000E+02  0.51100000000E-03 0.  1.
    9900012    2    1    2    0    0 -0.16154546120E+02 -0.22609099277E+01  0.91977599046E+01  0.72461551824E+02  0.69999975938E+02 0.  0.
        -12    1    1    2    0    0  0.16154546120E+02  0.22609099277E+01 -0.91977599046E+01  0.18726448176E+02  0.00000000000E+00 0.  1.
         11    1    3    3    0    0 -0.14682378541E+02 -0.97052425488E+01  0.36622794327E+02  0.40632413627E+02  0.51100000000E-03 0. -1.
        -11    1    3    3    0    0 -0.72245450089E+01  0.67078869552E+01 -0.13262610654E+02  0.16525333267E+02  0.51100000000E-03 0.  1.
         12    1    3    3    0    0  0.57523774300E+01  0.73644566580E+00 -0.14162423769E+02  0.15303804929E+02  0.00000000000E+00 0. -1.
</event>
<event>
 7    1  0.1874105E-013  0.7246161E+02  0.7816164E-02  0.1226708E+00
        -11   -1    0    0    0    0  0.00000000000E+00  0.00000000000E+00  0.45593999997E+02  0.45594000000E+02  0.51100000000E-03 0.  1.
         11   -1    0    0    0    0 -0.00000000000E+00 -0.00000000000E+00 -0.45593999997E+02  0.45594000000E+02  0.51100000000E-03 0. -1.
    9900012    2    1    2    0    0 -0.12402208625E+02 -0.21408514202E+00 -0.14029157430E+02  0.72461605008E+02  0.70000045220E+02 0.  0.
        -12    1    1    2    0    0  0.12402208625E+02  0.21408514202E+00  0.14029157430E+02  0.18726394992E+02  0.00000000000E+00 0.  1.
         11    1    3    3    0    0  0.14025201144E+02  0.22477649288E+02  0.62213714293E+01  0.27215004085E+02  0.51100000000E-03 0. -1.
        -11    1    3    3    0    0 -0.22874925051E+02 -0.10510505223E+02 -0.54604500016E+01  0.25759453228E+02  0.51100000000E-03 0.  1.
        -12    1    3    3    0    0 -0.35524847172E+01 -0.12181229207E+02 -0.14790078858E+02  0.19487147695E+02  0.00000000000E+00 0.  1.
</event>
<event>
 7    1  0.1874105E-013  0.7246159E+02  0.7816164E-02  0.1226708E+00
        -11   -1    0    0    0    0  0.00000000000E+00  0.00000000000E+00  0.45593999997E+02  0.45594000000E+02  0.51100000000E-03 0.  1.
         11   -1    0    0    0    0 -0.00000000000E+00 -0.00000000000E+00 -0.45593999997E+02  0.45594000000E+02  0.51100000000E-03 0. -1.
    9900012    2    1    2    0    0 -0.94572668230E+01 -0.81931994912E+01 -0.13932342107E+02  0.72461586295E+02  0.70000020844E+02 0.  0.
        -12    1    1    2    0    0  0.94572668230E+01  0.81931994912E+01  0.13932342107E+02  0.18726413705E+02  0.00000000000E+00 0.  1.
         11    1    3    3    0    0  0.14638105091E+02 -0.21311015984E+02 -0.15439646247E+02  0.30113389039E+02  0.51100000000E-03 0. -1.
        -11    1    3    3    0    0 -0.41439336686E+01  0.10407687910E+02  0.14546563842E+02  0.18360138173E+02  0.51100000000E-03 0.  1.
         12    1    3    3    0    0 -0.19951438246E+02  0.27101285829E+01 -0.13039259701E+02  0.23988059083E+02  0.00000000000E+00 0. -1.
</event>
<event>
 7    1  0.1874105E-013  0.7246154E+02  0.7816164E-02  0.1226708E+00
        -11   -1    0    0    0    0  0.00000000000E+00  0.00000000000E+00  0.45593999997E+02  0.45594000000E+02  0.51100000000E-03 0.  1.
         11   -1    0    0    0    0 -0.00000000000E+00 -0.00000000000E+00 -0.45593999997E+02  0.45594000000E+02  0.51100000000E-03 0. -1.
    9900012    2    1    2    0    0  0.15569847295E+02  0.98346633997E+00 -0.10358226431E+02  0.72461542630E+02  0.69999963962E+02 0.  0.
        -12    1    1    2    0    0 -0.15569847295E+02 -0.98346633997E+00  0.10358226431E+02  0.18726457370E+02  0.00000000000E+00 0.  1.
         11    1    3    3    0    0 -0.62940106585E+01 -0.51647010816E+01 -0.46064425320E+01  0.93545721705E+01  0.51100000000E-03 0. -1.
        -11    1    3    3    0    0  0.30977268773E+02  0.68806178824E+01 -0.25913683210E+02  0.40968927992E+02  0.51100000000E-03 0.  1.
        -12    1    3    3    0    0 -0.91134108192E+01 -0.73245046080E+00  0.20161899312E+02  0.22138042467E+02  0.00000000000E+00 0.  1.
</event>
<event>
 7    1  0.1874105E-013  0.7246144E+02  0.7816164E-02  0.1226708E+00
        -11   -1    0    0    0    0  0.00000000000E+00  0.00000000000E+00  0.45593999997E+02  0.45594000000E+02  0.51100000000E-03 0.  1.
         11   -1    0    0    0    0 -0.00000000000E+00 -0.00000000000E+00 -0.45593999997E+02  0.45594000000E+02  0.51100000000E-03 0. -1.
    9900012    2    1    2    0    0  0.55138523963E+01  0.16695068208E+02 -0.64464166607E+01  0.72461437088E+02  0.69999826474E+02 0.  0.
        -12    1    1    2    0    0 -0.55138523963E+01 -0.16695068208E+02  0.64464166607E+01  0.18726562912E+02  0.00000000000E+00 0.  1.
         11    1    3    3    0    0 -0.20916065832E+02  0.15960331366E+02 -0.18271299016E+01  0.26373327267E+02  0.51100000000E-03 0. -1.
        -11    1    3    3    0    0  0.20412768377E+02  0.15942419992E+02 -0.11507501964E+02  0.28341920714E+02  0.51100000000E-03 0.  1.
        -12    1    3    3    0    0  0.60171498509E+01 -0.15207683150E+02  0.68882152044E+01  0.17746189107E+02  0.00000000000E+00 0.  1.
</event>
<event>
 7    1  0.1874105E-013  0.7246166E+02  0.7816164E-02  0.1226708E+00
        -11   -1    0    0    0    0  0.00000000000E+00  0.00000000000E+00  0.45593999997E+02  0.45594000000E+02  0.51100000000E-03 0. -1.
         11   -1    0    0    0    0 -0.00000000000E+00 -0.00000000000E+00 -0.45593999997E+02  0.45594000000E+02  0.51100000000E-03 0.  1.
    9900012    2    1    2    0    0 -0.70193010900E+01 -0.17338765588E+02 -0.87891816353E+00  0.72461658204E+02  0.70000114519E+02 0.  0.
        -12    1    1    2    0    0  0.70193010900E+01  0.17338765588E+02  0.87891816353E+00  0.18726341796E+02  0.00000000000E+00 0.  1.
         11    1    3    3    0    0  0.69148705087E+01 -0.19780332984E+02  0.20333191387E+02  0.29197871145E+02  0.51100000000E-03 0. -1.
        -11    1    3    3    0    0 -0.23506691859E+02  0.58572236855E+01 -0.59807970069E+01  0.24952786709E+02  0.51100000000E-03 0.  1.
        -12    1    3    3    0    0  0.95725202604E+01 -0.34156562895E+01 -0.15231312544E+02  0.18311000350E+02  0.00000000000E+00 0.  1.
</event>
<event>
 7    1  0.1874105E-013  0.7246157E+02  0.7816164E-02  0.1226708E+00
        -11   -1    0    0    0    0  0.00000000000E+00  0.00000000000E+00  0.45593999997E+02  0.45594000000E+02  0.51100000000E-03 0. -1.
         11   -1    0    0    0    0 -0.00000000000E+00 -0.00000000000E+00 -0.45593999997E+02  0.45594000000E+02  0.51100000000E-03 0.  1.
    9900012    2    1    2    0    0  0.42367506946E+01  0.18007175792E+02  0.29104641211E+01  0.72461568470E+02  0.69999997624E+02 0.  0.
        -12    1    1    2    0    0 -0.42367506946E+01 -0.18007175792E+02 -0.29104641211E+01  0.18726431530E+02  0.00000000000E+00 0.  1.
         11    1    3    3    0    0 -0.16884530601E+02 -0.12103721658E+02  0.10058055397E+01  0.20799016723E+02  0.51100000000E-03 0. -1.
        -11    1    3    3    0    0  0.26906845548E+02  0.73691431014E+01  0.36308428735E+01  0.28132998909E+02  0.51100000000E-03 0.  1.
         12    1    3    3    0    0 -0.57855642520E+01  0.22741754348E+02 -0.17261842921E+01  0.23529552838E+02  0.00000000000E+00 0. -1.
</event>
<event>
 7    1  0.1874105E-013  0.7246156E+02  0.7816164E-02  0.1226708E+00
        -11   -1    0    0    0    0  0.00000000000E+00  0.00000000000E+00  0.45593999997E+02  0.45594000000E+02  0.51100000000E-03 0.  1.
         11   -1    0    0    0    0 -0.00000000000E+00 -0.00000000000E+00 -0.45593999997E+02  0.45594000000E+02  0.51100000000E-03 0. -1.
    9900012    2    1    2    0    0  0.62544339448E+01 -0.64059806168E+01 -0.16447643323E+02  0.72461561403E+02  0.69999988418E+02 0.  0.
        -12    1    1    2    0    0 -0.62544339448E+01  0.64059806168E+01  0.16447643323E+02  0.18726438597E+02  0.00000000000E+00 0.  1.
         11    1    3    3    0    0 -0.12511008628E+02 -0.16229976791E+01 -0.39229515618E+02  0.41208183098E+02  0.51100000000E-03 0. -1.
        -11    1    3    3    0    0  0.66082709125E+01 -0.92342791573E+00  0.21743711059E+01  0.70178239887E+01  0.51100000000E-03 0.  1.
         12    1    3    3    0    0  0.12157171660E+02 -0.38595550219E+01  0.20607501190E+02  0.24235554316E+02  0.00000000000E+00 0. -1.
</event>
<event>
 7    1  0.1874105E-013  0.7246152E+02  0.7816164E-02  0.1226708E+00
        -11   -1    0    0    0    0  0.00000000000E+00  0.00000000000E+00  0.45593999997E+02  0.45594000000E+02  0.51100000000E-03 0. -1.
         11   -1    0    0    0    0 -0.00000000000E+00 -0.00000000000E+00 -0.45593999997E+02  0.45594000000E+02  0.51100000000E-03 0.  1.
    9900012    2    1    2    0    0 -0.12652748071E+02  0.92833301387E+01 -0.10218066434E+02  0.72461517846E+02  0.69999931677E+02 0.  0.
        -12    1    1    2    0    0  0.12652748071E+02 -0.92833301387E+01  0.10218066434E+02  0.18726482154E+02  0.00000000000E+00 0.  1.
         11    1    3    3    0    0 -0.19332275438E+02  0.33435877932E+02 -0.14617127467E+02  0.41295946803E+02  0.51100000000E-03 0.  1.
        -11    1    3    3    0    0  0.47755907511E+01 -0.26944505613E+02  0.47293576273E+01  0.27770118357E+02  0.51100000000E-03 0. -1.
         12    1    3    3    0    0  0.19039366157E+01  0.27919578198E+01 -0.33029659433E+00  0.33954526862E+01  0.00000000000E+00 0. -1.
</event>
<event>
 7    1  0.1874105E-013  0.7246158E+02  0.7816164E-02  0.1226708E+00
        -11   -1    0    0    0    0  0.00000000000E+00  0.00000000000E+00  0.45593999997E+02  0.45594000000E+02  0.51100000000E-03 0. -1.
         11   -1    0    0    0    0 -0.00000000000E+00 -0.00000000000E+00 -0.45593999997E+02  0.45594000000E+02  0.51100000000E-03 0.  1.
    9900012    2    1    2    0    0  0.93830350761E+01 -0.16194423381E+02 -0.61479210966E+00  0.72461583759E+02  0.70000017540E+02 0.  0.
        -12    1    1    2    0    0 -0.93830350761E+01  0.16194423381E+02  0.61479210966E+00  0.18726416241E+02  0.00000000000E+00 0.  1.
         11    1    3    3    0    0  0.13441524389E+02  0.56016403561E+01 -0.21402929379E+02  0.25887030321E+02  0.51100000000E-03 0. -1.
        -11    1    3    3    0    0  0.55727468069E+01 -0.18638259034E+02 -0.39411248494E+01  0.19848744851E+02  0.51100000000E-03 0.  1.
         12    1    3    3    0    0 -0.96312361195E+01 -0.31578047030E+01  0.24729262119E+02  0.26725808588E+02  0.00000000000E+00 0. -1.
</event>
<event>
 7    1  0.1874105E-013  0.7246163E+02  0.7816164E-02  0.1226708E+00
        -11   -1    0    0    0    0  0.00000000000E+00  0.00000000000E+00  0.45593999997E+02  0.45594000000E+02  0.51100000000E-03 0. -1.
         11   -1    0    0    0    0 -0.00000000000E+00 -0.00000000000E+00 -0.45593999997E+02  0.45594000000E+02  0.51100000000E-03 0.  1.
    9900012    2    1    2    0    0  0.36698537379E+01 -0.17847481785E+02  0.43216471946E+01  0.72461626432E+02  0.70000073130E+02 0.  0.
        -12    1    1    2    0    0 -0.36698537379E+01  0.17847481785E+02 -0.43216471946E+01  0.18726373568E+02  0.00000000000E+00 0.  1.
         11    1    3    3    0    0  0.19755711072E+02 -0.54545099910E+00  0.16582431695E+02  0.25798501467E+02  0.51100000000E-03 0. -1.
        -11    1    3    3    0    0 -0.15640820827E+02 -0.10115592675E+01 -0.22496969011E+02  0.27418463546E+02  0.51100000000E-03 0.  1.
        -12    1    3    3    0    0 -0.44503650729E+00 -0.16290471518E+02  0.10236184511E+02  0.19244661419E+02  0.00000000000E+00 0.  1.
</event>
<event>
 7    1  0.1874105E-013  0.7246155E+02  0.7816164E-02  0.1226708E+00
        -11   -1    0    0    0    0  0.00000000000E+00  0.00000000000E+00  0.45593999997E+02  0.45594000000E+02  0.51100000000E-03 0.  1.
         11   -1    0    0    0    0 -0.00000000000E+00 -0.00000000000E+00 -0.45593999997E+02  0.45594000000E+02  0.51100000000E-03 0. -1.
    9900012    2    1    2    0    0  0.12245237468E+02 -0.44001169040E+01  0.13467482798E+02  0.72461549126E+02  0.69999972425E+02 0.  0.
        -12    1    1    2    0    0 -0.12245237468E+02  0.44001169040E+01 -0.13467482798E+02  0.18726450874E+02  0.00000000000E+00 0.  1.
         11    1    3    3    0    0  0.24354889737E+02  0.42898653242E+01 -0.16767537389E+02  0.29878318376E+02  0.51100000000E-03 0. -1.
        -11    1    3    3    0    0 -0.18713129642E+02 -0.38242851498E+01  0.11917274843E+02  0.22512836735E+02  0.51100000000E-03 0.  1.
        -12    1    3    3    0    0  0.66034773733E+01 -0.48656970784E+01  0.18317745343E+02  0.20070394016E+02  0.00000000000E+00 0.  1.
</event>
<event>
 7    1  0.1874105E-013  0.7246205E+02  0.7816164E-02  0.1226707E+00
        -11   -1    0    0    0    0  0.00000000000E+00  0.00000000000E+00  0.45593999997E+02  0.45594000000E+02  0.51100000000E-03 0.  1.
         11   -1    0    0    0    0 -0.00000000000E+00 -0.00000000000E+00 -0.45593999997E+02  0.45594000000E+02  0.51100000000E-03 0. -1.
    9900012    2    1    2    0    0  0.12999800052E+02  0.80051646649E+01 -0.10843606631E+02  0.72462048290E+02  0.70000622675E+02 0.  0.
        -12    1    1    2    0    0 -0.12999800052E+02 -0.80051646649E+01  0.10843606631E+02  0.18725951710E+02  0.00000000000E+00 0.  1.
         11    1    3    3    0    0 -0.10092643309E+02 -0.46253739050E+01  0.17928470402E+02  0.21087569418E+02  0.51100000000E-03 0.  1.
        -11    1    3    3    0    0  0.29956071517E+02  0.32460667018E+01 -0.24996924827E+02  0.39150343815E+02  0.51100000000E-03 0. -1.
         12    1    3    3    0    0 -0.68636281561E+01  0.93844718680E+01 -0.37751522067E+01  0.12224135057E+02  0.00000000000E+00 0. -1.
</event>
<event>
 7    1  0.1874105E-013  0.7246160E+02  0.7816164E-02  0.1226708E+00
        -11   -1    0    0    0    0  0.00000000000E+00  0.00000000000E+00  0.45593999997E+02  0.45594000000E+02  0.51100000000E-03 0.  1.
         11   -1    0    0    0    0 -0.00000000000E+00 -0.00000000000E+00 -0.45593999997E+02  0.45594000000E+02  0.51100000000E-03 0. -1.
    9900012    2    1    2    0    0 -0.79560462243E+00  0.54381144514E+01 -0.17901736447E+02  0.72461595025E+02  0.70000032216E+02 0.  0.
        -12    1    1    2    0    0  0.79560462243E+00 -0.54381144514E+01  0.17901736447E+02  0.18726404975E+02  0.00000000000E+00 0.  1.
         11    1    3    3    0    0 -0.19444586126E+02 -0.42877307470E+01 -0.23680921827E+02  0.30939661010E+02  0.51100000000E-03 0. -1.
        -11    1    3    3    0    0  0.17184090758E+02 -0.10922461244E+02  0.17825300000E+01  0.20439436105E+02  0.51100000000E-03 0.  1.
        -12    1    3    3    0    0  0.14648907458E+01  0.20648306443E+02  0.39966553807E+01  0.21082497909E+02  0.00000000000E+00 0.  1.
</event>
<event>
 7    1  0.1874105E-013  0.7246161E+02  0.7816164E-02  0.1226708E+00
        -11   -1    0    0    0    0  0.00000000000E+00  0.00000000000E+00  0.45593999997E+02  0.45594000000E+02  0.51100000000E-03 0.  1.
         11   -1    0    0    0    0 -0.00000000000E+00 -0.00000000000E+00 -0.45593999997E+02  0.45594000000E+02  0.51100000000E-03 0. -1.
    9900012    2    1    2    0    0 -0.38850879069E+01  0.89390063467E+01 -0.15989928910E+02  0.72461613027E+02  0.70000055667E+02 0.  0.
        -12    1    1    2    0    0  0.38850879069E+01 -0.89390063467E+01  0.15989928910E+02  0.18726386973E+02  0.00000000000E+00 0.  1.
         11    1    3    3    0    0  0.10878362641E+00 -0.17545057423E+02 -0.35338767303E+01  0.17897741726E+02  0.51100000000E-03 0. -1.
        -11    1    3    3    0    0 -0.24075673749E+02  0.20318503874E+02 -0.11493824731E+02  0.33534872497E+02  0.51100000000E-03 0.  1.
        -12    1    3    3    0    0  0.20081802216E+02  0.61655598965E+01 -0.96222744827E+00  0.21028998805E+02  0.00000000000E+00 0.  1.
</event>
<event>
 7    1  0.1874105E-013  0.7246155E+02  0.7816164E-02  0.1226708E+00
        -11   -1    0    0    0    0  0.00000000000E+00  0.00000000000E+00  0.45593999997E+02  0.45594000000E+02  0.51100000000E-03 0. -1.
         11   -1    0    0    0    0 -0.00000000000E+00 -0.00000000000E+00 -0.45593999997E+02  0.45594000000E+02  0.51100000000E-03 0.  1.
    9900012    2    1    2    0    0  0.11895985724E+02  0.12192765303E+02 -0.77783063380E+01  0.72461546744E+02  0.69999969321E+02 0.  0.
        -12    1    1    2    0    0 -0.11895985724E+02 -0.12192765303E+02  0.77783063380E+01  0.18726453256E+02  0.00000000000E+00 0.  1.
         11    1    3    3    0    0  0.81324825566E+01 -0.10046439992E+02 -0.33338454999E+02  0.35756409370E+02  0.51100000000E-03 0.  1.
        -11    1    3    3    0    0  0.59535933138E+01  0.19978524168E+02  0.14990745110E+02  0.25677015802E+02  0.51100000000E-03 0. -1.
        -12    1    3    3    0    0 -0.21900901466E+01  0.22606811275E+01  0.10569403550E+02  0.11028121573E+02  0.00000000000E+00 0.  1.
</event>
<event>
 7    1  0.1874105E-013  0.7246181E+02  0.7816164E-02  0.1226707E+00
        -11   -1    0    0    0    0  0.00000000000E+00  0.00000000000E+00  0.45593999997E+02  0.45594000000E+02  0.51100000000E-03 0.  1.
         11   -1    0    0    0    0 -0.00000000000E+00 -0.00000000000E+00 -0.45593999997E+02  0.45594000000E+02  0.51100000000E-03 0. -1.
    9900012    2    1    2    0    0 -0.82681717296E+01  0.19343403136E+01 -0.16690297255E+02  0.72461805548E+02  0.70000306461E+02 0.  0.
        -12    1    1    2    0    0  0.82681717296E+01 -0.19343403136E+01  0.16690297255E+02  0.18726194452E+02  0.00000000000E+00 0.  1.
         11    1    3    3    0    0  0.13824778172E+02 -0.51442203875E+01 -0.18755129921E+02  0.23860896746E+02  0.51100000000E-03 0. -1.
        -11    1    3    3    0    0 -0.26936729197E+02  0.17322146381E+02 -0.84724848209E+01  0.33127437787E+02  0.51100000000E-03 0.  1.
        -12    1    3    3    0    0  0.48437792947E+01 -0.10243585680E+02  0.10537317487E+02  0.15473471015E+02  0.00000000000E+00 0.  1.
</event>
<event>
 7    1  0.1874105E-013  0.7246150E+02  0.7816164E-02  0.1226708E+00
        -11   -1    0    0    0    0  0.00000000000E+00  0.00000000000E+00  0.45593999997E+02  0.45594000000E+02  0.51100000000E-03 0. -1.
         11   -1    0    0    0    0 -0.00000000000E+00 -0.00000000000E+00 -0.45593999997E+02  0.45594000000E+02  0.51100000000E-03 0.  1.
    9900012    2    1    2    0    0  0.38146284405E+01  0.18223813267E+02  0.20057711341E+01  0.72461497979E+02  0.69999905795E+02 0.  0.
        -12    1    1    2    0    0 -0.38146284405E+01 -0.18223813267E+02 -0.20057711341E+01  0.18726502021E+02  0.00000000000E+00 0.  1.
         11    1    3    3    0    0  0.21137003434E+02 -0.14941611871E+02 -0.17876477018E+01  0.25946490400E+02  0.51100000000E-03 0. -1.
        -11    1    3    3    0    0 -0.48559506673E+01  0.10609034834E+02 -0.11635253401E+02  0.16477590812E+02  0.51100000000E-03 0.  1.
         12    1    3    3    0    0 -0.12466424327E+02  0.22556390303E+02  0.15428672237E+02  0.30037416767E+02  0.00000000000E+00 0. -1.
</event>
<event>
 7    1  0.1874105E-013  0.7246154E+02  0.7816164E-02  0.1226708E+00
        -11   -1    0    0    0    0  0.00000000000E+00  0.00000000000E+00  0.45593999997E+02  0.45594000000E+02  0.51100000000E-03 0. -1.
         11   -1    0    0    0    0 -0.00000000000E+00 -0.00000000000E+00 -0.45593999997E+02  0.45594000000E+02  0.51100000000E-03 0.  1.
    9900012    2    1    2    0    0  0.11024025793E+02 -0.86759746930E+00  0.15112860900E+02  0.72461536516E+02  0.69999955997E+02 0.  0.
        -12    1    1    2    0    0 -0.11024025793E+02  0.86759746930E+00 -0.15112860900E+02  0.18726463484E+02  0.00000000000E+00 0.  1.
         11    1    3    3    0    0  0.16515933310E+01  0.18359207707E+02  0.28614298822E+02  0.34037719746E+02  0.51100000000E-03 0. -1.
        -11    1    3    3    0    0 -0.38480812786E+00 -0.22288723235E+02 -0.10577052897E+01  0.22317123504E+02  0.51100000000E-03 0.  1.
         12    1    3    3    0    0  0.97572405903E+01  0.30619180593E+01 -0.12443732633E+02  0.16106693266E+02  0.00000000000E+00 0. -1.
</event>
<event>
 7    1  0.2385514E-013  0.7246158E+02  0.7816164E-02  0.1226708E+00
        -11   -1    0    0    0    0  0.00000000000E+00  0.00000000000E+00  0.45593999997E+02  0.45594000000E+02  0.51100000000E-03 0. -1.
         11   -1    0    0    0    0 -0.00000000000E+00 -0.00000000000E+00 -0.45593999997E+02  0.45594000000E+02  0.51100000000E-03 0.  1.
    9900012    2    1    2    0    0  0.75209268228E+01  0.12566485723E+02  0.11670378390E+02  0.72461584554E+02  0.70000018576E+02 0.  0.
        -12    1    1    2    0    0 -0.75209268228E+01 -0.12566485723E+02 -0.11670378390E+02  0.18726415446E+02  0.00000000000E+00 0.  1.
         11    1    3    3    0    0  0.72141771332E+01  0.16661935963E+02  0.20377118364E+02  0.27292698929E+02  0.51100000000E-03 0. -1.
        -11    1    3    3    0    0 -0.11364141565E+02  0.63453179016E+01 -0.21375574528E+02  0.25026425223E+02  0.51100000000E-03 0.  1.
         12    1    3    3    0    0  0.11670891254E+02 -0.10440768142E+02  0.12668834555E+02  0.20142460402E+02  0.00000000000E+00 0. -1.
</event>
<event>
 7    1  0.1874105E-013  0.7246150E+02  0.7816164E-02  0.1226708E+00
        -11   -1    0    0    0    0  0.00000000000E+00  0.00000000000E+00  0.45593999997E+02  0.45594000000E+02  0.51100000000E-03 0.  1.
         11   -1    0    0    0    0 -0.00000000000E+00 -0.00000000000E+00 -0.45593999997E+02  0.45594000000E+02  0.51100000000E-03 0. -1.
    9900012    2    1    2    0    0 -0.10153343613E+02 -0.13509075600E+02 -0.80682289588E+01  0.72461499296E+02  0.69999907512E+02 0.  0.
        -12    1    1    2    0    0  0.10153343613E+02  0.13509075600E+02  0.80682289588E+01  0.18726500704E+02  0.00000000000E+00 0.  1.
         11    1    3    3    0    0 -0.23264325163E+02  0.13509025388E+02 -0.25676415319E+02  0.37188720011E+02  0.51100000000E-03 0. -1.
        -11    1    3    3    0    0  0.20844075481E+01 -0.98782802692E+01  0.71038894791E+01  0.12344651550E+02  0.51100000000E-03 0.  1.
         12    1    3    3    0    0  0.11026574002E+02 -0.17139820718E+02  0.10504296881E+02  0.22928127735E+02  0.00000000000E+00 0. -1.
</event>
<event>
 7    1  0.1874105E-013  0.7246156E+02  0.7816164E-02  0.1226708E+00
        -11   -1    0    0    0    0  0.00000000000E+00  0.00000000000E+00  0.45593999997E+02  0.45594000000E+02  0.51100000000E-03 0.  1.
         11   -1    0    0    0    0 -0.00000000000E+00 -0.00000000000E+00 -0.45593999997E+02  0.45594000000E+02  0.51100000000E-03 0. -1.
    9900012    2    1    2    0    0 -0.14816951066E+02 -0.57664530351E+01 -0.98937178802E+01  0.72461556851E+02  0.69999982488E+02 0.  0.
        -12    1    1    2    0    0  0.14816951066E+02  0.57664530351E+01  0.98937178802E+01  0.18726443149E+02  0.00000000000E+00 0.  1.
         11    1    3    3    0    0 -0.56470642786E+01 -0.16314871346E+02 -0.82552857357E+01  0.19136721371E+02  0.51100000000E-03 0. -1.
        -11    1    3    3    0    0  0.15864857033E+02  0.75599799498E+01  0.15009983392E+02  0.23111611523E+02  0.51100000000E-03 0.  1.
        -12    1    3    3    0    0 -0.25034743820E+02  0.29884383611E+01 -0.16648415536E+02  0.30213223957E+02  0.00000000000E+00 0.  1.
</event>
<event>
 7    1  0.1874105E-013  0.7246156E+02  0.7816164E-02  0.1226708E+00
        -11   -1    0    0    0    0  0.00000000000E+00  0.00000000000E+00  0.45593999997E+02  0.45594000000E+02  0.51100000000E-03 0.  1.
         11   -1    0    0    0    0 -0.00000000000E+00 -0.00000000000E+00 -0.45593999997E+02  0.45594000000E+02  0.51100000000E-03 0. -1.
    9900012    2    1    2    0    0 -0.98449354440E+01  0.11353022363E+02 -0.11174335795E+02  0.72461557435E+02  0.69999983249E+02 0.  0.
        -12    1    1    2    0    0  0.98449354440E+01 -0.11353022363E+02  0.11174335795E+02  0.18726442565E+02  0.00000000000E+00 0.  1.
         11    1    3    3    0    0 -0.77421258440E+01  0.31426173225E+01 -0.10918739147E+02  0.13749015276E+02  0.51100000000E-03 0. -1.
        -11    1    3    3    0    0 -0.34015057122E+01 -0.10729305409E+02  0.24824878347E+02  0.27257344347E+02  0.51100000000E-03 0.  1.
        -12    1    3    3    0    0  0.12986961122E+01  0.18939710450E+02 -0.25080474994E+02  0.31455197813E+02  0.00000000000E+00 0.  1.
</event>
<event>
 7    1  0.1874105E-013  0.7246160E+02  0.7816164E-02  0.1226708E+00
        -11   -1    0    0    0    0  0.00000000000E+00  0.00000000000E+00  0.45593999997E+02  0.45594000000E+02  0.51100000000E-03 0.  1.
         11   -1    0    0    0    0 -0.00000000000E+00 -0.00000000000E+00 -0.45593999997E+02  0.45594000000E+02  0.51100000000E-03 0. -1.
    9900012    2    1    2    0    0  0.92048589494E+01  0.10606168634E+02 -0.12387803123E+02  0.72461603988E+02  0.70000043892E+02 0.  0.
        -12    1    1    2    0    0 -0.92048589494E+01 -0.10606168634E+02  0.12387803123E+02  0.18726396012E+02  0.00000000000E+00 0.  1.
         11    1    3    3    0    0 -0.16679529139E+01  0.15124346983E+02 -0.21894873929E+02  0.26662960136E+02  0.51100000000E-03 0. -1.
        -11    1    3    3    0    0 -0.82631070660E+01 -0.88723749032E+01  0.20117783473E+02  0.23488788537E+02  0.51100000000E-03 0.  1.
        -12    1    3    3    0    0  0.19135918929E+02  0.43541965547E+01 -0.10610712667E+02  0.22309855316E+02  0.00000000000E+00 0.  1.
</event>
<event>
 7    1  0.1874105E-013  0.7246159E+02  0.7816164E-02  0.1226708E+00
        -11   -1    0    0    0    0  0.00000000000E+00  0.00000000000E+00  0.45593999997E+02  0.45594000000E+02  0.51100000000E-03 0. -1.
         11   -1    0    0    0    0 -0.00000000000E+00 -0.00000000000E+00 -0.45593999997E+02  0.45594000000E+02  0.51100000000E-03 0.  1.
    9900012    2    1    2    0    0 -0.13183693220E+02  0.12696847185E+02  0.39570933773E+01  0.72461593955E+02  0.70000030822E+02 0.  0.
        -12    1    1    2    0    0  0.13183693220E+02 -0.12696847185E+02 -0.39570933773E+01  0.18726406045E+02  0.00000000000E+00 0.  1.
         11    1    3    3    0    0 -0.83939344025E+01 -0.19824287900E+02  0.13760387547E+02  0.25550123115E+02  0.51100000000E-03 0. -1.
        -11    1    3    3    0    0  0.19530491778E+01  0.33596485986E+02  0.15214334413E+01  0.33687579783E+02  0.51100000000E-03 0.  1.
        -12    1    3    3    0    0 -0.67428079957E+01 -0.10753509011E+01 -0.11324727611E+02  0.13223891057E+02  0.00000000000E+00 0.  1.
</event>
<event>
 7    1  0.1874105E-013  0.7246185E+02  0.7816164E-02  0.1226707E+00
        -11   -1    0    0    0    0  0.00000000000E+00  0.00000000000E+00  0.45593999997E+02  0.45594000000E+02  0.51100000000E-03 0.  1.
         11   -1    0    0    0    0 -0.00000000000E+00 -0.00000000000E+00 -0.45593999997E+02  0.45594000000E+02  0.51100000000E-03 0. -1.
    9900012    2    1    2    0    0  0.16019172242E+02 -0.15444888537E+01 -0.95744078965E+01  0.72461852193E+02  0.70000367224E+02 0.  0.
        -12    1    1    2    0    0 -0.16019172242E+02  0.15444888537E+01  0.95744078965E+01  0.18726147807E+02  0.00000000000E+00 0.  1.
         11    1    3    3    0    0 -0.30560582675E+01 -0.16659305082E+02  0.26840266553E+01  0.17148642433E+02  0.51100000000E-03 0. -1.
        -11    1    3    3    0    0  0.24109742368E+01  0.20767269877E+02  0.12933618109E+02  0.24583953559E+02  0.51100000000E-03 0.  1.
        -12    1    3    3    0    0  0.16664256273E+02 -0.56524536490E+01 -0.25192052661E+02  0.30729256201E+02  0.00000000000E+00 0.  1.
</event>
<event>
 7    1  0.1874105E-013  0.7246159E+02  0.7816164E-02  0.1226708E+00
        -11   -1    0    0    0    0  0.00000000000E+00  0.00000000000E+00  0.45593999997E+02  0.45594000000E+02  0.51100000000E-03 0. -1.
         11   -1    0    0    0    0 -0.00000000000E+00 -0.00000000000E+00 -0.45593999997E+02  0.45594000000E+02  0.51100000000E-03 0.  1.
    9900012    2    1    2    0    0  0.74103169249E+01 -0.16971344198E+02 -0.27819331986E+01  0.72461588888E+02  0.70000024222E+02 0.  0.
        -12    1    1    2    0    0 -0.74103169249E+01  0.16971344198E+02  0.27819331986E+01  0.18726411112E+02  0.00000000000E+00 0.  1.
         11    1    3    3    0    0  0.15758525242E+02 -0.17473718229E+02  0.57729511985E+01  0.24227854060E+02  0.51100000000E-03 0. -1.
        -11    1    3    3    0    0 -0.26613382468E+02 -0.28687222953E+01  0.20497367390E+01  0.26845914307E+02  0.51100000000E-03 0.  1.
        -12    1    3    3    0    0  0.18265174152E+02  0.33710963261E+01 -0.10604621136E+02  0.21387820522E+02  0.00000000000E+00 0.  1.
</event>
<event>
 7    1  0.1874105E-013  0.7246172E+02  0.7816164E-02  0.1226708E+00
        -11   -1    0    0    0    0  0.00000000000E+00  0.00000000000E+00  0.45593999997E+02  0.45594000000E+02  0.51100000000E-03 0.  1.
         11   -1    0    0    0    0 -0.00000000000E+00 -0.00000000000E+00 -0.45593999997E+02  0.45594000000E+02  0.51100000000E-03 0. -1.
    9900012    2    1    2    0    0 -0.13021988813E+02 -0.10258125043E+02 -0.87104577282E+01  0.72461724452E+02  0.70000200819E+02 0.  0.
        -12    1    1    2    0    0  0.13021988813E+02  0.10258125043E+02  0.87104577282E+01  0.18726275548E+02  0.00000000000E+00 0.  1.
         11    1    3    3    0    0  0.25556902652E+02 -0.13772402081E+00 -0.43282453868E+01  0.25921187270E+02  0.51100000000E-03 0.  1.
        -11    1    3    3    0    0 -0.23930318770E+02  0.48086260880E+01 -0.71703292730E+01  0.25440060209E+02  0.51100000000E-03 0. -1.
         12    1    3    3    0    0 -0.14648572696E+02 -0.14929027110E+02  0.27881169316E+01  0.21100476973E+02  0.00000000000E+00 0. -1.
</event>
<event>
 7    1  0.1874105E-013  0.7246154E+02  0.7816164E-02  0.1226708E+00
        -11   -1    0    0    0    0  0.00000000000E+00  0.00000000000E+00  0.45593999997E+02  0.45594000000E+02  0.51100000000E-03 0.  1.
         11   -1    0    0    0    0 -0.00000000000E+00 -0.00000000000E+00 -0.45593999997E+02  0.45594000000E+02  0.51100000000E-03 0. -1.
    9900012    2    1    2    0    0  0.64629996139E+01  0.30766001678E+01 -0.17304462106E+02  0.72461541676E+02  0.69999962719E+02 0.  0.
        -12    1    1    2    0    0 -0.64629996139E+01 -0.30766001678E+01  0.17304462106E+02  0.18726458324E+02  0.00000000000E+00 0.  1.
         11    1    3    3    0    0 -0.63750146869E+01 -0.11443928805E+02 -0.17588693753E+02  0.21930947698E+02  0.51100000000E-03 0.  1.
        -11    1    3    3    0    0  0.72234062561E+01  0.22035525513E+02 -0.18414035784E+02  0.29611124543E+02  0.51100000000E-03 0. -1.
        -12    1    3    3    0    0  0.56146080447E+01 -0.75149965406E+01  0.18698267431E+02  0.20919469435E+02  0.00000000000E+00 0.  1.
</event>
<event>
 7    1  0.1874105E-013  0.7246125E+02  0.7816164E-02  0.1226709E+00
        -11   -1    0    0    0    0  0.00000000000E+00  0.00000000000E+00  0.45593999997E+02  0.45594000000E+02  0.51100000000E-03 0. -1.
         11   -1    0    0    0    0 -0.00000000000E+00 -0.00000000000E+00 -0.45593999997E+02  0.45594000000E+02  0.51100000000E-03 0.  1.
    9900012    2    1    2    0    0 -0.71178094856E+01  0.17265002691E+02  0.13955471477E+01  0.72461252241E+02  0.69999585675E+02 0.  0.
        -12    1    1    2    0    0  0.71178094856E+01 -0.17265002691E+02 -0.13955471477E+01  0.18726747759E+02  0.00000000000E+00 0.  1.
         11    1    3    3    0    0 -0.11039599781E+02 -0.74478586218E+01  0.94835650026E+01  0.16348742056E+02  0.51100000000E-03 0. -1.
        -11    1    3    3    0    0  0.18035698429E+02  0.25870487652E+02 -0.20222394600E+02  0.37463499473E+02  0.51100000000E-03 0.  1.
        -12    1    3    3    0    0 -0.14113908133E+02 -0.11576263386E+01  0.12134376746E+02  0.18649010712E+02  0.00000000000E+00 0.  1.
</event>
<event>
 7    1  0.1874105E-013  0.7246158E+02  0.7816164E-02  0.1226708E+00
        -11   -1    0    0    0    0  0.00000000000E+00  0.00000000000E+00  0.45593999997E+02  0.45594000000E+02  0.51100000000E-03 0.  1.
         11   -1    0    0    0    0 -0.00000000000E+00 -0.00000000000E+00 -0.45593999997E+02  0.45594000000E+02  0.51100000000E-03 0. -1.
    9900012    2    1    2    0    0 -0.15786711800E+02 -0.31538356904E+01 -0.95661846560E+01  0.72461579149E+02  0.70000011535E+02 0.  0.
        -12    1    1    2    0    0  0.15786711800E+02  0.31538356904E+01  0.95661846560E+01  0.18726420851E+02  0.00000000000E+00 0.  1.
         11    1    3    3    0    0 -0.28062323717E+02 -0.11742686042E+02 -0.31355854912E+02  0.43687232979E+02  0.51100000000E-03 0.  1.
        -11    1    3    3    0    0  0.14270734528E+02  0.66600768655E+01  0.16551377643E+02  0.22846413066E+02  0.51100000000E-03 0. -1.
        -12    1    3    3    0    0 -0.19951226109E+01  0.19287734858E+01  0.52382926125E+01  0.59279331040E+01  0.00000000000E+00 0.  1.
</event>
<event>
 7    1  0.1874105E-013  0.7246170E+02  0.7816164E-02  0.1226708E+00
        -11   -1    0    0    0    0  0.00000000000E+00  0.00000000000E+00  0.45593999997E+02  0.45594000000E+02  0.51100000000E-03 0. -1.
         11   -1    0    0    0    0 -0.00000000000E+00 -0.00000000000E+00 -0.45593999997E+02  0.45594000000E+02  0.51100000000E-03 0.  1.
    9900012    2    1    2    0    0 -0.10856310263E+02  0.15181467977E+02 -0.15290426223E+01  0.72461697273E+02  0.70000165414E+02 0.  0.
        -12    1    1    2    0    0  0.10856310263E+02 -0.15181467977E+02  0.15290426223E+01  0.18726302727E+02  0.00000000000E+00 0.  1.
         11    1    3    3    0    0  0.22681215765E+02  0.73407377012E+01  0.10438343114E+02  0.26024661108E+02  0.51100000000E-03 0. -1.
        -11    1    3    3    0    0 -0.24671276371E+02 -0.82513149118E+01 -0.36506807611E+01  0.26269441293E+02  0.51100000000E-03 0.  1.
         12    1    3    3    0    0 -0.88662496571E+01  0.16092045188E+02 -0.83167049749E+01  0.20167594872E+02  0.00000000000E+00 0. -1.
</event>
<event>
 7    1  0.1874105E-013  0.7246158E+02  0.7816164E-02  0.1226708E+00
        -11   -1    0    0    0    0  0.00000000000E+00  0.00000000000E+00  0.45593999997E+02  0.45594000000E+02  0.51100000000E-03 0.  1.
         11   -1    0    0    0    0 -0.00000000000E+00 -0.00000000000E+00 -0.45593999997E+02  0.45594000000E+02  0.51100000000E-03 0. -1.
    9900012    2    1    2    0    0  0.69864345728E+01 -0.13335091036E+02  0.11137499271E+02  0.72461579867E+02  0.70000012471E+02 0.  0.
        -12    1    1    2    0    0 -0.69864345728E+01  0.13335091036E+02 -0.11137499271E+02  0.18726420133E+02  0.00000000000E+00 0.  1.
         11    1    3    3    0    0  0.48731643104E+01  0.17550286270E+02 -0.17129785576E+02  0.25003796366E+02  0.51100000000E-03 0. -1.
        -11    1    3    3    0    0 -0.27971661260E+01 -0.22856240662E+02  0.67870993539E+01  0.24006178235E+02  0.51100000000E-03 0.  1.
         12    1    3    3    0    0  0.49104363884E+01 -0.80291366437E+01  0.21480185493E+02  0.23451605266E+02  0.00000000000E+00 0. -1.
</event>
<event>
 7    1  0.1874105E-013  0.7246157E+02  0.7816164E-02  0.1226708E+00
        -11   -1    0    0    0    0  0.00000000000E+00  0.00000000000E+00  0.45593999997E+02  0.45594000000E+02  0.51100000000E-03 0. -1.
         11   -1    0    0    0    0 -0.00000000000E+00 -0.00000000000E+00 -0.45593999997E+02  0.45594000000E+02  0.51100000000E-03 0.  1.
    9900012    2    1    2    0    0  0.17199596670E+02 -0.18633981582E+00  0.74039514049E+01  0.72461565621E+02  0.69999993912E+02 0.  0.
        -12    1    1    2    0    0 -0.17199596670E+02  0.18633981582E+00 -0.74039514049E+01  0.18726434379E+02  0.00000000000E+00 0.  1.
         11    1    3    3    0    0  0.24316217464E+02 -0.14772259906E+01  0.14938734350E+02  0.28576676025E+02  0.51100000000E-03 0. -1.
        -11    1    3    3    0    0 -0.23489579228E+02  0.89741946119E+01 -0.41959753482E+01  0.25493189495E+02  0.51100000000E-03 0.  1.
        -12    1    3    3    0    0  0.16372958435E+02 -0.76833084372E+01 -0.33388075972E+01  0.18391700101E+02  0.00000000000E+00 0.  1.
</event>
<event>
 7    1  0.1874105E-013  0.7246156E+02  0.7816164E-02  0.1226708E+00
        -11   -1    0    0    0    0  0.00000000000E+00  0.00000000000E+00  0.45593999997E+02  0.45594000000E+02  0.51100000000E-03 0.  1.
         11   -1    0    0    0    0 -0.00000000000E+00 -0.00000000000E+00 -0.45593999997E+02  0.45594000000E+02  0.51100000000E-03 0. -1.
    9900012    2    1    2    0    0  0.13061022226E+02  0.52742073883E+01 -0.12339851231E+02  0.72461561642E+02  0.69999988729E+02 0.  0.
        -12    1    1    2    0    0 -0.13061022226E+02 -0.52742073883E+01  0.12339851231E+02  0.18726438358E+02  0.00000000000E+00 0.  1.
         11    1    3    3    0    0  0.22349064854E+01  0.18549338332E+01 -0.38991196071E+02  0.39099219402E+02  0.51100000000E-03 0. -1.
        -11    1    3    3    0    0  0.73240671640E+01  0.37563144175E+01  0.20125392533E+01  0.84736162489E+01  0.51100000000E-03 0.  1.
         12    1    3    3    0    0  0.35020485761E+01 -0.33704086239E+00  0.24638805586E+02  0.24888725992E+02  0.00000000000E+00 0. -1.
</event>
<event>
 7    1  0.1874105E-013  0.7246158E+02  0.7816164E-02  0.1226708E+00
        -11   -1    0    0    0    0  0.00000000000E+00  0.00000000000E+00  0.45593999997E+02  0.45594000000E+02  0.51100000000E-03 0. -1.
         11   -1    0    0    0    0 -0.00000000000E+00 -0.00000000000E+00 -0.45593999997E+02  0.45594000000E+02  0.51100000000E-03 0.  1.
    9900012    2    1    2    0    0 -0.88765343988E+01 -0.11775045330E+02  0.11542719465E+02  0.72461576740E+02  0.70000008396E+02 0.  0.
        -12    1    1    2    0    0  0.88765343988E+01  0.11775045330E+02 -0.11542719465E+02  0.18726423260E+02  0.00000000000E+00 0.  1.
         11    1    3    3    0    0 -0.84318404118E+01  0.13165210800E+02  0.29378676578E+02  0.33279503390E+02  0.51100000000E-03 0. -1.
        -11    1    3    3    0    0 -0.66478876392E+01 -0.12528900567E+02  0.26605557957E+01  0.14430742077E+02  0.51100000000E-03 0.  1.
         12    1    3    3    0    0  0.62031936522E+01 -0.12411355563E+02 -0.20496512908E+02  0.24751331273E+02  0.00000000000E+00 0. -1.
</event>
<event>
 7    1  0.1874105E-013  0.7246157E+02  0.7816164E-02  0.1226708E+00
        -11   -1    0    0    0    0  0.00000000000E+00  0.00000000000E+00  0.45593999997E+02  0.45594000000E+02  0.51100000000E-03 0. -1.
         11   -1    0    0    0    0 -0.00000000000E+00 -0.00000000000E+00 -0.45593999997E+02  0.45594000000E+02  0.51100000000E-03 0.  1.
    9900012    2    1    2    0    0 -0.22599166470E+01 -0.85536240537E+01  0.16504776276E+02  0.72461565539E+02  0.69999993806E+02 0.  0.
        -12    1    1    2    0    0  0.22599166470E+01  0.85536240537E+01 -0.16504776276E+02  0.18726434461E+02  0.00000000000E+00 0.  1.
         11    1    3    3    0    0 -0.15851668807E+02  0.11599608633E+01 -0.11157061296E+02  0.19419086749E+02  0.51100000000E-03 0.  1.
        -11    1    3    3    0    0  0.54213186648E+01  0.43989331830E+01  0.34617119693E+02  0.35314108870E+02  0.51100000000E-03 0. -1.
        -12    1    3    3    0    0  0.81704334949E+01 -0.14112518100E+02 -0.69552821217E+01  0.17728369920E+02  0.00000000000E+00 0.  1.
</event>
<event>
 7    1  0.1874105E-013  0.7246155E+02  0.7816164E-02  0.1226708E+00
        -11   -1    0    0    0    0  0.00000000000E+00  0.00000000000E+00  0.45593999997E+02  0.45594000000E+02  0.51100000000E-03 0. -1.
         11   -1    0    0    0    0 -0.00000000000E+00 -0.00000000000E+00 -0.45593999997E+02  0.45594000000E+02  0.51100000000E-03 0.  1.
    9900012    2    1    2    0    0  0.11761149070E+02 -0.18818059922E+01  0.14450396925E+02  0.72461553659E+02  0.69999978330E+02 0.  0.
        -12    1    1    2    0    0 -0.11761149070E+02  0.18818059922E+01 -0.14450396925E+02  0.18726446341E+02  0.00000000000E+00 0.  1.
         11    1    3    3    0    0  0.18594458783E+02 -0.19258219972E+02  0.95115715918E+01  0.28409556990E+02  0.51100000000E-03 0. -1.
        -11    1    3    3    0    0 -0.66844546239E+01  0.88140483592E+01 -0.17123537677E+02  0.20385900150E+02  0.51100000000E-03 0.  1.
        -12    1    3    3    0    0 -0.14885508933E+00  0.85623656208E+01  0.22062363011E+02  0.23666096520E+02  0.00000000000E+00 0.  1.
</event>
<event>
 7    1  0.1874105E-013  0.7246113E+02  0.7816164E-02  0.1226709E+00
        -11   -1    0    0    0    0  0.00000000000E+00  0.00000000000E+00  0.45593999997E+02  0.45594000000E+02  0.51100000000E-03 0.  1.
         11   -1    0    0    0    0 -0.00000000000E+00 -0.00000000000E+00 -0.45593999997E+02  0.45594000000E+02  0.51100000000E-03 0. -1.
    9900012    2    1    2    0    0  0.94320961010E+01 -0.68572520305E+01 -0.14652963242E+02  0.72461129625E+02  0.69999425944E+02 0.  0.
        -12    1    1    2    0    0 -0.94320961010E+01  0.68572520305E+01  0.14652963242E+02  0.18726870375E+02  0.00000000000E+00 0.  1.
         11    1    3    3    0    0 -0.23083111897E+02  0.83917501357E+01 -0.85643570410E+01  0.26011530846E+02  0.51100000000E-03 0. -1.
        -11    1    3    3    0    0  0.80250622273E+01 -0.68689976555E+01  0.11143054972E+02  0.15354231563E+02  0.51100000000E-03 0.  1.
         12    1    3    3    0    0  0.24490145771E+02 -0.83800045107E+01 -0.17231661173E+02  0.31095367215E+02  0.00000000000E+00 0. -1.
</event>
<event>
 7    1  0.1874105E-013  0.7246156E+02  0.7816164E-02  0.1226708E+00
        -11   -1    0    0    0    0  0.00000000000E+00  0.00000000000E+00  0.45593999997E+02  0.45594000000E+02  0.51100000000E-03 0.  1.
         11   -1    0    0    0    0 -0.00000000000E+00 -0.00000000000E+00 -0.45593999997E+02  0.45594000000E+02  0.51100000000E-03 0. -1.
    9900012    2    1    2    0    0 -0.14726660612E+02  0.77916215361E+01  0.85495918900E+01  0.72461563595E+02  0.69999991273E+02 0.  0.
        -12    1    1    2    0    0  0.14726660612E+02 -0.77916215361E+01 -0.85495918900E+01  0.18726436405E+02  0.00000000000E+00 0.  1.
         11    1    3    3    0    0 -0.89479040368E+01 -0.13730515465E+02 -0.17159399236E+02  0.23728401210E+02  0.51100000000E-03 0. -1.
        -11    1    3    3    0    0 -0.13540035072E+02  0.27610698449E+02  0.23291147828E+02  0.38576687080E+02  0.51100000000E-03 0.  1.
        -12    1    3    3    0    0  0.77612784969E+01 -0.60885614482E+01  0.24178432979E+01  0.10156475305E+02  0.00000000000E+00 0.  1.
</event>
<event>
 7    1  0.1874105E-013  0.7246146E+02  0.7816164E-02  0.1226708E+00
        -11   -1    0    0    0    0  0.00000000000E+00  0.00000000000E+00  0.45593999997E+02  0.45594000000E+02  0.51100000000E-03 0. -1.
         11   -1    0    0    0    0 -0.00000000000E+00 -0.00000000000E+00 -0.45593999997E+02  0.45594000000E+02  0.51100000000E-03 0.  1.
    9900012    2    1    2    0    0 -0.14979679850E+01 -0.11764168614E+01  0.18629424246E+02  0.72461459678E+02  0.69999855901E+02 0.  0.
        -12    1    1    2    0    0  0.14979679850E+01  0.11764168614E+01 -0.18629424246E+02  0.18726540322E+02  0.00000000000E+00 0.  1.
         11    1    3    3    0    0  0.17707165016E+02  0.53281552175E+01  0.36803083147E+01  0.18854113622E+02  0.51100000000E-03 0. -1.
        -11    1    3    3    0    0 -0.26649683107E+02 -0.20914155445E+02  0.15770926057E+02  0.37367494118E+02  0.51100000000E-03 0.  1.
        -12    1    3    3    0    0  0.74445501065E+01  0.14409583366E+02 -0.82181012588E+00  0.16239851938E+02  0.00000000000E+00 0.  1.
</event>
<event>
 7    1  0.1874105E-013  0.7246157E+02  0.7816164E-02  0.1226708E+00
        -11   -1    0    0    0    0  0.00000000000E+00  0.00000000000E+00  0.45593999997E+02  0.45594000000E+02  0.51100000000E-03 0. -1.
         11   -1    0    0    0    0 -0.00000000000E+00 -0.00000000000E+00 -0.45593999997E+02  0.45594000000E+02  0.51100000000E-03 0.  1.
    9900012    2    1    2    0    0  0.79706507001E+01 -0.16924206444E+02  0.84808432192E+00  0.72461567255E+02  0.69999996041E+02 0.  0.
        -12    1    1    2    0    0 -0.79706507001E+01  0.16924206444E+02 -0.84808432192E+00  0.18726432745E+02  0.00000000000E+00 0.  1.
         11    1    3    3    0    0  0.67452702400E+01 -0.18029527428E+02  0.31954075497E+02  0.37304496660E+02  0.51100000000E-03 0. -1.
        -11    1    3    3    0    0  0.62019957349E+01  0.55958364908E+01 -0.10096084157E+02  0.13103780092E+02  0.51100000000E-03 0.  1.
         12    1    3    3    0    0 -0.49766152748E+01 -0.44905155064E+01 -0.21009907018E+02  0.22053290503E+02  0.00000000000E+00 0. -1.
</event>
<event>
 7    1  0.1874105E-013  0.7246160E+02  0.7816164E-02  0.1226708E+00
        -11   -1    0    0    0    0  0.00000000000E+00  0.00000000000E+00  0.45593999997E+02  0.45594000000E+02  0.51100000000E-03 0.  1.
         11   -1    0    0    0    0 -0.00000000000E+00 -0.00000000000E+00 -0.45593999997E+02  0.45594000000E+02  0.51100000000E-03 0. -1.
    9900012    2    1    2    0    0  0.70289952000E+01  0.14891877719E+02 -0.89164590568E+01  0.72461600516E+02  0.70000039370E+02 0.  0.
        -12    1    1    2    0    0 -0.70289952000E+01 -0.14891877719E+02  0.89164590568E+01  0.18726399484E+02  0.00000000000E+00 0.  1.
         11    1    3    3    0    0  0.16479267107E+02  0.33578223928E+02  0.11696845147E-01  0.37404057314E+02  0.51100000000E-03 0. -1.
        -11    1    3    3    0    0 -0.37281902233E+01 -0.23075539798E+02 -0.13029831230E+02  0.26761099407E+02  0.51100000000E-03 0.  1.
         12    1    3    3    0    0 -0.57220816833E+01  0.43891935891E+01  0.41016753279E+01  0.82964437953E+01  0.00000000000E+00 0. -1.
</event>
<event>
 7    1  0.2374155E-013  0.7246159E+02  0.7816164E-02  0.1226708E+00
        -11   -1    0    0    0    0  0.00000000000E+00  0.00000000000E+00  0.45593999997E+02  0.45594000000E+02  0.51100000000E-03 0. -1.
         11   -1    0    0    0    0 -0.00000000000E+00 -0.00000000000E+00 -0.45593999997E+02  0.45594000000E+02  0.51100000000E-03 0.  1.
    9900012    2    1    2    0    0 -0.54398808691E-01  0.81957468804E+00  0.18708383500E+02  0.72461594176E+02  0.70000031110E+02 0.  0.
        -12    1    1    2    0    0  0.54398808691E-01 -0.81957468804E+00 -0.18708383500E+02  0.18726405824E+02  0.00000000000E+00 0.  1.
         11    1    3    3    0    0 -0.18248344915E+02  0.17288854846E+02  0.18751375057E+02  0.31361132965E+02  0.51100000000E-03 0. -1.
        -11    1    3    3    0    0  0.33012284538E+00 -0.21831089474E+02 -0.35562507055E+01  0.22121310270E+02  0.51100000000E-03 0.  1.
        -12    1    3    3    0    0  0.17863823261E+02  0.53618093152E+01  0.35132591488E+01  0.18979150942E+02  0.00000000000E+00 0.  1.
</event>
<event>
 8    1  0.1874105E-013  0.7246160E+02  0.7816164E-02  0.1226708E+00
        -11   -1    0    0    0    0  0.00000000000E+00  0.00000000000E+00  0.45593999997E+02  0.45594000000E+02  0.51100000000E-03 0. -1.
         11   -1    0    0    0    0 -0.00000000000E+00 -0.00000000000E+00 -0.45593999997E+02  0.45594000000E+02  0.51100000000E-03 0.  1.
    9900012    2    1    2    0    0  0.90443851840E+01  0.16353298415E+02  0.12028871444E+01  0.72461595917E+02  0.70000033378E+02 0.  0.
         24    2    3    3    0    0  0.12157993912E+02  0.91187050456E+01 -0.13275760278E+02  0.55979328719E+02  0.52215628266E+02 0.  0.
        -12    1    1    2    0    0 -0.90443851840E+01 -0.16353298415E+02 -0.12028871444E+01  0.18726404083E+02  0.00000000000E+00 0.  1.
         11    1    3    3    0    0 -0.31136087281E+01  0.72345933689E+01  0.14478647423E+02  0.16482267198E+02  0.51100000000E-03 0. -1.
        -11    1    4    4    0    0 -0.17323208169E+02  0.15501978829E+02 -0.11032439734E+02  0.25731685052E+02  0.51100000000E-03 0.  1.
         12    1    4    4    0    0  0.29481202081E+02 -0.63832737833E+01 -0.22433205443E+01  0.30247643667E+02  0.00000000000E+00 0. -1.
</event>
<event>
 7    1  0.1874105E-013  0.7246162E+02  0.7816164E-02  0.1226708E+00
        -11   -1    0    0    0    0  0.00000000000E+00  0.00000000000E+00  0.45593999997E+02  0.45594000000E+02  0.51100000000E-03 0. -1.
         11   -1    0    0    0    0 -0.00000000000E+00 -0.00000000000E+00 -0.45593999997E+02  0.45594000000E+02  0.51100000000E-03 0.  1.
    9900012    2    1    2    0    0  0.95428382996E+01 -0.16028906290E+02 -0.16388539522E+01  0.72461616421E+02  0.70000060088E+02 0.  0.
        -12    1    1    2    0    0 -0.95428382996E+01  0.16028906290E+02  0.16388539522E+01  0.18726383579E+02  0.00000000000E+00 0.  1.
         11    1    3    3    0    0 -0.82835314166E+01 -0.11039394755E+02 -0.26775738598E+02  0.30123500909E+02  0.51100000000E-03 0. -1.
        -11    1    3    3    0    0  0.17659499516E+02 -0.47312220896E+01  0.11171337202E+01  0.18316396306E+02  0.51100000000E-03 0.  1.
         12    1    3    3    0    0  0.16687019991E+00 -0.25828944519E+00  0.24019750925E+02  0.24021719206E+02  0.00000000000E+00 0. -1.
</event>
<event>
 7    1  0.1874105E-013  0.7246151E+02  0.7816164E-02  0.1226708E+00
        -11   -1    0    0    0    0  0.00000000000E+00  0.00000000000E+00  0.45593999997E+02  0.45594000000E+02  0.51100000000E-03 0.  1.
         11   -1    0    0    0    0 -0.00000000000E+00 -0.00000000000E+00 -0.45593999997E+02  0.45594000000E+02  0.51100000000E-03 0. -1.
    9900012    2    1    2    0    0  0.56467193237E+01 -0.16005548737E+02 -0.79131899313E+01  0.72461505283E+02  0.69999915311E+02 0.  0.
        -12    1    1    2    0    0 -0.56467193237E+01  0.16005548737E+02  0.79131899313E+01  0.18726494717E+02  0.00000000000E+00 0.  1.
         11    1    3    3    0    0 -0.19096801300E+02 -0.15544021542E+02 -0.36978401774E+01  0.24899366414E+02  0.51100000000E-03 0. -1.
        -11    1    3    3    0    0  0.19539163485E+02 -0.64431191156E+01 -0.20752456895E+02  0.29222545424E+02  0.51100000000E-03 0.  1.
         12    1    3    3    0    0  0.52043571388E+01  0.59815919204E+01  0.16537107141E+02  0.18339593445E+02  0.00000000000E+00 0. -1.
</event>
<event>
 7    1  0.1874105E-013  0.7246164E+02  0.7816164E-02  0.1226708E+00
        -11   -1    0    0    0    0  0.00000000000E+00  0.00000000000E+00  0.45593999997E+02  0.45594000000E+02  0.51100000000E-03 0.  1.
         11   -1    0    0    0    0 -0.00000000000E+00 -0.00000000000E+00 -0.45593999997E+02  0.45594000000E+02  0.51100000000E-03 0. -1.
    9900012    2    1    2    0    0 -0.21488631703E+01  0.14690220462E+02 -0.11412993786E+02  0.72461638439E+02  0.70000088772E+02 0.  0.
        -12    1    1    2    0    0  0.21488631703E+01 -0.14690220462E+02  0.11412993786E+02  0.18726361561E+02  0.00000000000E+00 0.  1.
         11    1    3    3    0    0  0.23811333675E+02  0.20524000425E+02 -0.11312148332E+02  0.33409263760E+02  0.51100000000E-03 0.  1.
        -11    1    3    3    0    0 -0.99715426644E+01 -0.98704024323E+01 -0.12205260004E+02  0.18596367369E+02  0.51100000000E-03 0. -1.
         12    1    3    3    0    0 -0.15988654181E+02  0.40366224690E+01  0.12104414550E+02  0.20456007311E+02  0.00000000000E+00 0. -1.
</event>
<event>
 7    1  0.1874105E-013  0.7246157E+02  0.7816164E-02  0.1226708E+00
        -11   -1    0    0    0    0  0.00000000000E+00  0.00000000000E+00  0.45593999997E+02  0.45594000000E+02  0.51100000000E-03 0. -1.
         11   -1    0    0    0    0 -0.00000000000E+00 -0.00000000000E+00 -0.45593999997E+02  0.45594000000E+02  0.51100000000E-03 0.  1.
    9900012    2    1    2    0    0  0.16694844829E+01  0.17474251445E+02 -0.65224753012E+01  0.72461566115E+02  0.69999994556E+02 0.  0.
        -12    1    1    2    0    0 -0.16694844829E+01 -0.17474251445E+02  0.65224753012E+01  0.18726433885E+02  0.00000000000E+00 0.  1.
         11    1    3    3    0    0  0.17877682071E+02 -0.12825848523E+02 -0.13830793904E+02  0.25988550688E+02  0.51100000000E-03 0.  1.
        -11    1    3    3    0    0 -0.18259456322E+02  0.28543799323E+02  0.15927163926E+02  0.37441030648E+02  0.51100000000E-03 0. -1.
         12    1    3    3    0    0  0.20512587329E+01  0.17563006447E+01 -0.86188453240E+01  0.90319847798E+01  0.00000000000E+00 0. -1.
</event>
<event>
 7    1  0.1874105E-013  0.7246171E+02  0.7816164E-02  0.1226708E+00
        -11   -1    0    0    0    0  0.00000000000E+00  0.00000000000E+00  0.45593999997E+02  0.45594000000E+02  0.51100000000E-03 0. -1.
         11   -1    0    0    0    0 -0.00000000000E+00 -0.00000000000E+00 -0.45593999997E+02  0.45594000000E+02  0.51100000000E-03 0.  1.
    9900012    2    1    2    0    0 -0.10627271141E+02 -0.15693595817E+01  0.15338578922E+02  0.72461714069E+02  0.70000187293E+02 0.  0.
        -12    1    1    2    0    0  0.10627271141E+02  0.15693595817E+01 -0.15338578922E+02  0.18726285931E+02  0.00000000000E+00 0.  1.
         11    1    3    3    0    0  0.15449520877E+02  0.12447811675E+02  0.23417450177E+02  0.30692225138E+02  0.51100000000E-03 0. -1.
        -11    1    3    3    0    0 -0.18937875775E+02 -0.11960318699E+02 -0.18445214931E+02  0.29015828721E+02  0.51100000000E-03 0.  1.
         12    1    3    3    0    0 -0.71389162431E+01 -0.20568525570E+01  0.10366343676E+02  0.12753660211E+02  0.00000000000E+00 0. -1.
</event>
<event>
 7    1  0.1874105E-013  0.7246151E+02  0.7816164E-02  0.1226708E+00
        -11   -1    0    0    0    0  0.00000000000E+00  0.00000000000E+00  0.45593999997E+02  0.45594000000E+02  0.51100000000E-03 0.  1.
         11   -1    0    0    0    0 -0.00000000000E+00 -0.00000000000E+00 -0.45593999997E+02  0.45594000000E+02  0.51100000000E-03 0. -1.
    9900012    2    1    2    0    0  0.11849316534E+00 -0.74608411887E-01 -0.18725967602E+02  0.72461508879E+02  0.69999919995E+02 0.  0.
        -12    1    1    2    0    0 -0.11849316534E+00  0.74608411887E-01  0.18725967602E+02  0.18726491121E+02  0.00000000000E+00 0.  1.
         11    1    3    3    0    0 -0.12540933052E+02 -0.15853656562E+02 -0.98553428676E+01  0.22488690747E+02  0.51100000000E-03 0. -1.
        -11    1    3    3    0    0  0.82434988151E+01  0.84352798392E+01  0.18139030268E+02  0.21636396142E+02  0.51100000000E-03 0.  1.
         12    1    3    3    0    0  0.44159274024E+01  0.73437683113E+01 -0.27009655003E+02  0.28336421990E+02  0.00000000000E+00 0. -1.
</event>
<event>
 7    1  0.1874105E-013  0.7246144E+02  0.7816164E-02  0.1226708E+00
        -11   -1    0    0    0    0  0.00000000000E+00  0.00000000000E+00  0.45593999997E+02  0.45594000000E+02  0.51100000000E-03 0.  1.
         11   -1    0    0    0    0 -0.00000000000E+00 -0.00000000000E+00 -0.45593999997E+02  0.45594000000E+02  0.51100000000E-03 0. -1.
    9900012    2    1    2    0    0 -0.12335745247E+02 -0.11213084196E+02 -0.85311340954E+01  0.72461438198E+02  0.69999827919E+02 0.  0.
        -12    1    1    2    0    0  0.12335745247E+02  0.11213084196E+02  0.85311340954E+01  0.18726561802E+02  0.00000000000E+00 0.  1.
         11    1    3    3    0    0 -0.24562617988E+02 -0.23703162564E+02 -0.64793122551E+01  0.34743972218E+02  0.51100000000E-03 0. -1.
        -11    1    3    3    0    0  0.13724942733E+02  0.18601292523E+02  0.91562272389E+01  0.24864002776E+02  0.51100000000E-03 0.  1.
        -12    1    3    3    0    0 -0.14980699920E+01 -0.61112141557E+01 -0.11208049079E+02  0.12853463203E+02  0.00000000000E+00 0.  1.
</event>
<event>
 7    1  0.1874105E-013  0.7246158E+02  0.7816164E-02  0.1226708E+00
        -11   -1    0    0    0    0  0.00000000000E+00  0.00000000000E+00  0.45593999997E+02  0.45594000000E+02  0.51100000000E-03 0. -1.
         11   -1    0    0    0    0 -0.00000000000E+00 -0.00000000000E+00 -0.45593999997E+02  0.45594000000E+02  0.51100000000E-03 0.  1.
    9900012    2    1    2    0    0  0.21064896552E+01 -0.13263288293E+02  0.13050919803E+02  0.72461584894E+02  0.70000019019E+02 0.  0.
        -12    1    1    2    0    0 -0.21064896552E+01  0.13263288293E+02 -0.13050919803E+02  0.18726415106E+02  0.00000000000E+00 0.  1.
         11    1    3    3    0    0 -0.41978695069E+01 -0.80756334557E+01  0.22057393300E+01  0.93650013540E+01  0.51100000000E-03 0. -1.
        -11    1    3    3    0    0  0.21497067752E+02  0.14445585943E+02 -0.12731663900E+02  0.28859905424E+02  0.51100000000E-03 0.  1.
        -12    1    3    3    0    0 -0.15192708590E+02 -0.19633240780E+02  0.23576844373E+02  0.34236678116E+02  0.00000000000E+00 0.  1.
</event>
<event>
 7    1  0.1874105E-013  0.7246169E+02  0.7816164E-02  0.1226708E+00
        -11   -1    0    0    0    0  0.00000000000E+00  0.00000000000E+00  0.45593999997E+02  0.45594000000E+02  0.51100000000E-03 0.  1.
         11   -1    0    0    0    0 -0.00000000000E+00 -0.00000000000E+00 -0.45593999997E+02  0.45594000000E+02  0.51100000000E-03 0. -1.
    9900012    2    1    2    0    0  0.39742694499E+01  0.12277935223E+02 -0.13569532446E+02  0.72461689050E+02  0.70000154701E+02 0.  0.
        -12    1    1    2    0    0 -0.39742694499E+01 -0.12277935223E+02  0.13569532446E+02  0.18726310950E+02  0.00000000000E+00 0.  1.
         11    1    3    3    0    0  0.21421551878E+02  0.92617942888E+01 -0.25602735947E+02  0.34643380415E+02  0.51100000000E-03 0. -1.
        -11    1    3    3    0    0 -0.19368667930E+02 -0.53140178084E+01 -0.32121193809E+01  0.20339660612E+02  0.51100000000E-03 0.  1.
         12    1    3    3    0    0  0.19213855012E+01  0.83301587430E+01  0.15245322882E+02  0.17478648023E+02  0.00000000000E+00 0. -1.
</event>
<event>
 7    1  0.1874105E-013  0.7246159E+02  0.7816164E-02  0.1226708E+00
        -11   -1    0    0    0    0  0.00000000000E+00  0.00000000000E+00  0.45593999997E+02  0.45594000000E+02  0.51100000000E-03 0.  1.
         11   -1    0    0    0    0 -0.00000000000E+00 -0.00000000000E+00 -0.45593999997E+02  0.45594000000E+02  0.51100000000E-03 0. -1.
    9900012    2    1    2    0    0  0.10965422476E+02  0.14252444087E+02 -0.52255073586E+01  0.72461586043E+02  0.70000020515E+02 0.  0.
        -12    1    1    2    0    0 -0.10965422476E+02 -0.14252444087E+02  0.52255073586E+01  0.18726413957E+02  0.00000000000E+00 0.  1.
         11    1    3    3    0    0 -0.61158415903E+01 -0.13326780157E+02 -0.58290349966E+01  0.15779234359E+02  0.51100000000E-03 0. -1.
        -11    1    3    3    0    0  0.11450365936E+02  0.25139589909E+02 -0.20695523726E+02  0.34516873605E+02  0.51100000000E-03 0.  1.
        -12    1    3    3    0    0  0.56308981306E+01  0.24396343351E+01  0.21299051364E+02  0.22165478079E+02  0.00000000000E+00 0.  1.
</event>
<event>
 7    1  0.1874105E-013  0.7246157E+02  0.7816164E-02  0.1226708E+00
        -11   -1    0    0    0    0  0.00000000000E+00  0.00000000000E+00  0.45593999997E+02  0.45594000000E+02  0.51100000000E-03 0. -1.
         11   -1    0    0    0    0 -0.00000000000E+00 -0.00000000000E+00 -0.45593999997E+02  0.45594000000E+02  0.51100000000E-03 0.  1.
    9900012    2    1    2    0    0  0.12895103992E+02 -0.13325497042E+02 -0.26127963935E+01  0.72461567254E+02  0.69999996040E+02 0.  0.
        -12    1    1    2    0    0 -0.12895103992E+02  0.13325497042E+02  0.26127963935E+01  0.18726432746E+02  0.00000000000E+00 0.  1.
         11    1    3    3    0    0  0.23520664683E+02 -0.36622199465E+02  0.81439530898E+01  0.44280143778E+02  0.51100000000E-03 0. -1.
        -11    1    3    3    0    0 -0.45597043675E+01  0.90539397457E+01 -0.17983603521E+01  0.10295573275E+02  0.51100000000E-03 0.  1.
         12    1    3    3    0    0 -0.60658563232E+01  0.14242762678E+02 -0.89583891312E+01  0.17885850202E+02  0.00000000000E+00 0. -1.
</event>
<event>
 7    1  0.1874105E-013  0.7246161E+02  0.7816164E-02  0.1226708E+00
        -11   -1    0    0    0    0  0.00000000000E+00  0.00000000000E+00  0.45593999997E+02  0.45594000000E+02  0.51100000000E-03 0.  1.
         11   -1    0    0    0    0 -0.00000000000E+00 -0.00000000000E+00 -0.45593999997E+02  0.45594000000E+02  0.51100000000E-03 0. -1.
    9900012    2    1    2    0    0  0.15844799244E+02  0.34235650287E+01 -0.93754669043E+01  0.72461605786E+02  0.70000046234E+02 0.  0.
        -12    1    1    2    0    0 -0.15844799244E+02 -0.34235650287E+01  0.93754669043E+01  0.18726394214E+02  0.00000000000E+00 0.  1.
         11    1    3    3    0    0  0.80938887702E+01 -0.20428233931E+01 -0.19874059821E+02  0.21556029710E+02  0.51100000000E-03 0. -1.
        -11    1    3    3    0    0  0.15701621794E+02  0.20013435349E+02  0.19490298950E+02  0.32046064889E+02  0.51100000000E-03 0.  1.
        -12    1    3    3    0    0 -0.79507113202E+01 -0.14547046927E+02 -0.89917060334E+01  0.18859511187E+02  0.00000000000E+00 0.  1.
</event>
<event>
 7    1  0.1874105E-013  0.7246160E+02  0.7816164E-02  0.1226708E+00
        -11   -1    0    0    0    0  0.00000000000E+00  0.00000000000E+00  0.45593999997E+02  0.45594000000E+02  0.51100000000E-03 0. -1.
         11   -1    0    0    0    0 -0.00000000000E+00 -0.00000000000E+00 -0.45593999997E+02  0.45594000000E+02  0.51100000000E-03 0.  1.
    9900012    2    1    2    0    0 -0.85118523459E+01  0.10354331017E+02  0.13077241417E+02  0.72461600340E+02  0.70000039140E+02 0.  0.
        -12    1    1    2    0    0  0.85118523459E+01 -0.10354331017E+02 -0.13077241417E+02  0.18726399660E+02  0.00000000000E+00 0.  1.
         11    1    3    3    0    0 -0.13621640292E+02  0.31609248511E+02  0.74842873913E+01  0.35223688530E+02  0.51100000000E-03 0. -1.
        -11    1    3    3    0    0 -0.74241877179E+01 -0.22984147120E+02  0.40682526780E+01  0.24493678005E+02  0.51100000000E-03 0.  1.
        -12    1    3    3    0    0  0.12533975664E+02  0.17292296263E+01  0.15247013475E+01  0.12744233804E+02  0.00000000000E+00 0.  1.
</event>
<event>
 7    1  0.1874105E-013  0.7246165E+02  0.7816164E-02  0.1226708E+00
        -11   -1    0    0    0    0  0.00000000000E+00  0.00000000000E+00  0.45593999997E+02  0.45594000000E+02  0.51100000000E-03 0. -1.
         11   -1    0    0    0    0 -0.00000000000E+00 -0.00000000000E+00 -0.45593999997E+02  0.45594000000E+02  0.51100000000E-03 0.  1.
    9900012    2    1    2    0    0 -0.59046154800E+01 -0.13087988632E+02  0.12021487532E+02  0.72461652441E+02  0.70000107011E+02 0.  0.
        -12    1    1    2    0    0  0.59046154800E+01  0.13087988632E+02 -0.12021487532E+02  0.18726347559E+02  0.00000000000E+00 0.  1.
         11    1    3    3    0    0  0.27393291423E+02 -0.11208174250E+02  0.22550810074E+02  0.37209603871E+02  0.51100000000E-03 0. -1.
        -11    1    3    3    0    0 -0.13007873731E+02  0.29403626250E+00 -0.61026681242E+01  0.14371283687E+02  0.51100000000E-03 0.  1.
         12    1    3    3    0    0 -0.20290033172E+02 -0.21738506449E+01 -0.44266544171E+01  0.20880764883E+02  0.00000000000E+00 0. -1.
</event>
<event>
 7    1  0.1874105E-013  0.7246158E+02  0.7816164E-02  0.1226708E+00
        -11   -1    0    0    0    0  0.00000000000E+00  0.00000000000E+00  0.45593999997E+02  0.45594000000E+02  0.51100000000E-03 0. -1.
         11   -1    0    0    0    0 -0.00000000000E+00 -0.00000000000E+00 -0.45593999997E+02  0.45594000000E+02  0.51100000000E-03 0.  1.
    9900012    2    1    2    0    0  0.64310671242E+01 -0.59506618765E+01  0.16550221301E+02  0.72461579460E+02  0.70000011940E+02 0.  0.
        -12    1    1    2    0    0 -0.64310671242E+01  0.59506618765E+01 -0.16550221301E+02  0.18726420540E+02  0.00000000000E+00 0.  1.
         11    1    3    3    0    0  0.15400330896E+00 -0.31438592535E+02  0.20963059812E+02  0.37787017539E+02  0.51100000000E-03 0. -1.
        -11    1    3    3    0    0 -0.41798880371E+01  0.12352293873E+02  0.65798922094E+01  0.14606355113E+02  0.51100000000E-03 0.  1.
         12    1    3    3    0    0  0.10456951852E+02  0.13135636785E+02 -0.10992730720E+02  0.20068206808E+02  0.00000000000E+00 0. -1.
</event>
<event>
 7    1  0.1874105E-013  0.7246149E+02  0.7816164E-02  0.1226708E+00
        -11   -1    0    0    0    0  0.00000000000E+00  0.00000000000E+00  0.45593999997E+02  0.45594000000E+02  0.51100000000E-03 0.  1.
         11   -1    0    0    0    0 -0.00000000000E+00 -0.00000000000E+00 -0.45593999997E+02  0.45594000000E+02  0.51100000000E-03 0. -1.
    9900012    2    1    2    0    0 -0.10198151612E+02  0.56583773285E+00 -0.15695846917E+02  0.72461492609E+02  0.69999898800E+02 0.  0.
        -12    1    1    2    0    0  0.10198151612E+02 -0.56583773285E+00  0.15695846917E+02  0.18726507391E+02  0.00000000000E+00 0.  1.
         11    1    3    3    0    0  0.22761307973E+01 -0.13647769821E+02  0.22156388093E+02  0.26121790255E+02  0.51100000000E-03 0. -1.
        -11    1    3    3    0    0 -0.14594954811E+02  0.13501824126E+02 -0.19490675380E+02  0.27842384734E+02  0.51100000000E-03 0.  1.
        -12    1    3    3    0    0  0.21206724018E+01  0.71178342798E+00 -0.18361559630E+02  0.18497317620E+02  0.00000000000E+00 0.  1.
</event>
<event>
 7    1  0.1874105E-013  0.7246156E+02  0.7816164E-02  0.1226708E+00
        -11   -1    0    0    0    0  0.00000000000E+00  0.00000000000E+00  0.45593999997E+02  0.45594000000E+02  0.51100000000E-03 0. -1.
         11   -1    0    0    0    0 -0.00000000000E+00 -0.00000000000E+00 -0.45593999997E+02  0.45594000000E+02  0.51100000000E-03 0.  1.
    9900012    2    1    2    0    0  0.16463969535E+02 -0.34973754843E+01  0.82088826235E+01  0.72461556609E+02  0.69999982173E+02 0.  0.
        -12    1    1    2    0    0 -0.16463969535E+02  0.34973754843E+01 -0.82088826235E+01  0.18726443391E+02  0.00000000000E+00 0.  1.
         11    1    3    3    0    0 -0.86113285662E+01 -0.20234494980E+02 -0.13990338882E+02  0.26063755468E+02  0.51100000000E-03 0. -1.
        -11    1    3    3    0    0  0.36256720582E+01  0.92005926549E+01  0.21484763034E+02  0.23651457587E+02  0.51100000000E-03 0.  1.
         12    1    3    3    0    0  0.21449626043E+02  0.75365268408E+01  0.71445847154E+00  0.22746343555E+02  0.00000000000E+00 0. -1.
</event>
<event>
 7    1  0.1874105E-013  0.7246158E+02  0.7816164E-02  0.1226708E+00
        -11   -1    0    0    0    0  0.00000000000E+00  0.00000000000E+00  0.45593999997E+02  0.45594000000E+02  0.51100000000E-03 0.  1.
         11   -1    0    0    0    0 -0.00000000000E+00 -0.00000000000E+00 -0.45593999997E+02  0.45594000000E+02  0.51100000000E-03 0. -1.
    9900012    2    1    2    0    0  0.20361784033E+01 -0.11427297449E+02 -0.14695219978E+02  0.72461584441E+02  0.70000018429E+02 0.  0.
        -12    1    1    2    0    0 -0.20361784033E+01  0.11427297449E+02  0.14695219978E+02  0.18726415559E+02  0.00000000000E+00 0.  1.
         11    1    3    3    0    0 -0.10648624343E+02  0.21127266788E+02 -0.13885393155E+02  0.27432804188E+02  0.51100000000E-03 0. -1.
        -11    1    3    3    0    0  0.21767305968E+02 -0.20347681195E+02 -0.94541942425E-01  0.29796856840E+02  0.51100000000E-03 0.  1.
         12    1    3    3    0    0 -0.90825032221E+01 -0.12206883042E+02 -0.71528488069E+00  0.15231923413E+02  0.00000000000E+00 0. -1.
</event>
<event>
 7    1  0.1874105E-013  0.7246157E+02  0.7816164E-02  0.1226708E+00
        -11   -1    0    0    0    0  0.00000000000E+00  0.00000000000E+00  0.45593999997E+02  0.45594000000E+02  0.51100000000E-03 0.  1.
         11   -1    0    0    0    0 -0.00000000000E+00 -0.00000000000E+00 -0.45593999997E+02  0.45594000000E+02  0.51100000000E-03 0. -1.
    9900012    2    1    2    0    0 -0.11069229655E+02  0.10714526145E+01 -0.15066635547E+02  0.72461565139E+02  0.69999993285E+02 0.  0.
        -12    1    1    2    0    0  0.11069229655E+02 -0.10714526145E+01  0.15066635547E+02  0.18726434861E+02  0.00000000000E+00 0.  1.
         11    1    3    3    0    0  0.16177625948E+02  0.19345068629E+02 -0.26212857475E+02  0.36373907665E+02  0.51100000000E-03 0.  1.
        -11    1    3    3    0    0 -0.22564423263E+02 -0.13750737913E+02  0.12814105847E+02  0.29367282803E+02  0.51100000000E-03 0. -1.
         12    1    3    3    0    0 -0.46824323408E+01 -0.45228781013E+01 -0.16678839200E+01  0.67203746708E+01  0.00000000000E+00 0. -1.
</event>
<event>
 7    1  0.1874105E-013  0.7246157E+02  0.7816164E-02  0.1226708E+00
        -11   -1    0    0    0    0  0.00000000000E+00  0.00000000000E+00  0.45593999997E+02  0.45594000000E+02  0.51100000000E-03 0.  1.
         11   -1    0    0    0    0 -0.00000000000E+00 -0.00000000000E+00 -0.45593999997E+02  0.45594000000E+02  0.51100000000E-03 0. -1.
    9900012    2    1    2    0    0  0.92057643202E+01 -0.11596455046E+02 -0.11465400560E+02  0.72461567441E+02  0.69999996284E+02 0.  0.
        -12    1    1    2    0    0 -0.92057643202E+01  0.11596455046E+02  0.11465400560E+02  0.18726432559E+02  0.00000000000E+00 0.  1.
         11    1    3    3    0    0  0.70005897814E+01 -0.11467202105E+02 -0.15163730382E+02  0.20259410178E+02  0.51100000000E-03 0. -1.
        -11    1    3    3    0    0  0.13447134405E+02  0.22707200662E+02  0.43174865294E+01  0.26741037299E+02  0.51100000000E-03 0.  1.
        -12    1    3    3    0    0 -0.11241959866E+02 -0.22836453603E+02 -0.61915670750E+00  0.25461119964E+02  0.00000000000E+00 0.  1.
</event>
<event>
 7    1  0.1874105E-013  0.7246164E+02  0.7816164E-02  0.1226708E+00
        -11   -1    0    0    0    0  0.00000000000E+00  0.00000000000E+00  0.45593999997E+02  0.45594000000E+02  0.51100000000E-03 0.  1.
         11   -1    0    0    0    0 -0.00000000000E+00 -0.00000000000E+00 -0.45593999997E+02  0.45594000000E+02  0.51100000000E-03 0. -1.
    9900012    2    1    2    0    0 -0.50045035740E+01 -0.11128044406E+01 -0.18010918856E+02  0.72461639227E+02  0.70000089798E+02 0.  0.
        -12    1    1    2    0    0  0.50045035740E+01  0.11128044406E+01  0.18010918856E+02  0.18726360773E+02  0.00000000000E+00 0.  1.
         11    1    3    3    0    0  0.23722830862E+02 -0.16849632332E+02 -0.22862241921E+02  0.37004931020E+02  0.51100000000E-03 0. -1.
        -11    1    3    3    0    0 -0.84188792374E+01 -0.48376358849E+00 -0.18114493252E+01  0.86251321000E+01  0.51100000000E-03 0.  1.
         12    1    3    3    0    0 -0.20308455199E+02  0.16220591480E+02  0.66627723906E+01  0.26831576108E+02  0.00000000000E+00 0. -1.
</event>
<event>
 7    1  0.1874105E-013  0.7246157E+02  0.7816164E-02  0.1226708E+00
        -11   -1    0    0    0    0  0.00000000000E+00  0.00000000000E+00  0.45593999997E+02  0.45594000000E+02  0.51100000000E-03 0. -1.
         11   -1    0    0    0    0 -0.00000000000E+00 -0.00000000000E+00 -0.45593999997E+02  0.45594000000E+02  0.51100000000E-03 0.  1.
    9900012    2    1    2    0    0 -0.22974778870E+01  0.13566572235E+02  0.12702322113E+02  0.72461567507E+02  0.69999996369E+02 0.  0.
        -12    1    1    2    0    0  0.22974778870E+01 -0.13566572235E+02 -0.12702322113E+02  0.18726432493E+02  0.00000000000E+00 0.  1.
         11    1    3    3    0    0  0.99699693984E+01  0.25132494917E+02 -0.45236456730E+01  0.27413609047E+02  0.51100000000E-03 0.  1.
        -11    1    3    3    0    0 -0.15150378175E+02 -0.17935899317E+02  0.25200235070E+02  0.34442448969E+02  0.51100000000E-03 0. -1.
         12    1    3    3    0    0  0.28829308898E+01  0.63699766352E+01 -0.79742672834E+01  0.10605509491E+02  0.00000000000E+00 0. -1.
</event>
<event>
 7    1  0.1874105E-013  0.7246159E+02  0.7816164E-02  0.1226708E+00
        -11   -1    0    0    0    0  0.00000000000E+00  0.00000000000E+00  0.45593999997E+02  0.45594000000E+02  0.51100000000E-03 0.  1.
         11   -1    0    0    0    0 -0.00000000000E+00 -0.00000000000E+00 -0.45593999997E+02  0.45594000000E+02  0.51100000000E-03 0. -1.
    9900012    2    1    2    0    0  0.34546527018E+01 -0.15863903558E+02 -0.93316918515E+01  0.72461587258E+02  0.70000022098E+02 0.  0.
        -12    1    1    2    0    0 -0.34546527018E+01  0.15863903558E+02  0.93316918515E+01  0.18726412742E+02  0.00000000000E+00 0.  1.
         11    1    3    3    0    0  0.34596524126E+01 -0.36346032839E+02 -0.70633421526E+01  0.37187284124E+02  0.51100000000E-03 0. -1.
        -11    1    3    3    0    0 -0.61862081689E+01  0.98808292413E+01  0.11812589310E+02  0.16596301530E+02  0.51100000000E-03 0.  1.
         12    1    3    3    0    0  0.61812084580E+01  0.10601300040E+02 -0.14080939009E+02  0.18678001604E+02  0.00000000000E+00 0. -1.
</event>
<event>
 7    1  0.1874105E-013  0.7246160E+02  0.7816164E-02  0.1226708E+00
        -11   -1    0    0    0    0  0.00000000000E+00  0.00000000000E+00  0.45593999997E+02  0.45594000000E+02  0.51100000000E-03 0.  1.
         11   -1    0    0    0    0 -0.00000000000E+00 -0.00000000000E+00 -0.45593999997E+02  0.45594000000E+02  0.51100000000E-03 0. -1.
    9900012    2    1    2    0    0 -0.10233769281E+00  0.18688201364E+02 -0.11911076596E+01  0.72461599367E+02  0.70000037872E+02 0.  0.
        -12    1    1    2    0    0  0.10233769281E+00 -0.18688201364E+02  0.11911076596E+01  0.18726400633E+02  0.00000000000E+00 0.  1.
         11    1    3    3    0    0 -0.98870864303E+01  0.60789930745E+01 -0.19198885755E+02  0.22434479030E+02  0.51100000000E-03 0. -1.
        -11    1    3    3    0    0  0.23388812626E+02  0.13613805505E+02  0.22985270977E+02  0.35506266187E+02  0.51100000000E-03 0.  1.
        -12    1    3    3    0    0 -0.13604063888E+02 -0.10045972152E+01 -0.49774928818E+01  0.14520854150E+02  0.00000000000E+00 0.  1.
</event>
<event>
 7    1  0.1874105E-013  0.7246144E+02  0.7816164E-02  0.1226708E+00
        -11   -1    0    0    0    0  0.00000000000E+00  0.00000000000E+00  0.45593999997E+02  0.45594000000E+02  0.51100000000E-03 0.  1.
         11   -1    0    0    0    0 -0.00000000000E+00 -0.00000000000E+00 -0.45593999997E+02  0.45594000000E+02  0.51100000000E-03 0. -1.
    9900012    2    1    2    0    0 -0.47925853612E+01 -0.44177767924E+01 -0.17555579382E+02  0.72461441489E+02  0.69999832207E+02 0.  0.
        -12    1    1    2    0    0  0.47925853612E+01  0.44177767924E+01  0.17555579382E+02  0.18726558511E+02  0.00000000000E+00 0.  1.
         11    1    3    3    0    0  0.88509862552E+01 -0.14819365592E+02 -0.24932412078E+02  0.30324556493E+02  0.51100000000E-03 0. -1.
        -11    1    3    3    0    0 -0.55658892269E+01  0.16544908362E+02  0.19602337160E+02  0.26248137800E+02  0.51100000000E-03 0.  1.
        -12    1    3    3    0    0 -0.80776823895E+01 -0.61433195628E+01 -0.12225504464E+02  0.15888747195E+02  0.00000000000E+00 0.  1.
</event>
<event>
 7    1  0.1874105E-013  0.7246158E+02  0.7816164E-02  0.1226708E+00
        -11   -1    0    0    0    0  0.00000000000E+00  0.00000000000E+00  0.45593999997E+02  0.45594000000E+02  0.51100000000E-03 0.  1.
         11   -1    0    0    0    0 -0.00000000000E+00 -0.00000000000E+00 -0.45593999997E+02  0.45594000000E+02  0.51100000000E-03 0. -1.
    9900012    2    1    2    0    0  0.12070270799E+02  0.95398947108E+01  0.10676032378E+02  0.72461582949E+02  0.70000016485E+02 0.  0.
        -12    1    1    2    0    0 -0.12070270799E+02 -0.95398947108E+01 -0.10676032378E+02  0.18726417051E+02  0.00000000000E+00 0.  1.
         11    1    3    3    0    0 -0.69424189196E+01  0.85091008352E+01  0.17720133121E+01  0.11123938552E+02  0.51100000000E-03 0. -1.
        -11    1    3    3    0    0  0.33344014958E+02  0.11843302968E+02 -0.84377904981E+01  0.36376963417E+02  0.51100000000E-03 0.  1.
        -12    1    3    3    0    0 -0.14331325239E+02 -0.10812509093E+02  0.17341809564E+02  0.24960680979E+02  0.00000000000E+00 0.  1.
</event>
<event>
 7    1  0.1874105E-013  0.7246163E+02  0.7816164E-02  0.1226708E+00
        -11   -1    0    0    0    0  0.00000000000E+00  0.00000000000E+00  0.45593999997E+02  0.45594000000E+02  0.51100000000E-03 0.  1.
         11   -1    0    0    0    0 -0.00000000000E+00 -0.00000000000E+00 -0.45593999997E+02  0.45594000000E+02  0.51100000000E-03 0. -1.
    9900012    2    1    2    0    0  0.13972772468E+02 -0.46690976938E+01  0.11560187197E+02  0.72461634316E+02  0.70000083400E+02 0.  0.
        -12    1    1    2    0    0 -0.13972772468E+02  0.46690976938E+01 -0.11560187197E+02  0.18726365684E+02  0.00000000000E+00 0.  1.
         11    1    3    3    0    0 -0.66545684075E+01 -0.84693456345E+01 -0.85215767973E+01  0.13734277103E+02  0.51100000000E-03 0. -1.
        -11    1    3    3    0    0  0.37257338232E+02 -0.15388215407E+01  0.17041627114E+02  0.40998710697E+02  0.51100000000E-03 0.  1.
        -12    1    3    3    0    0 -0.16629997357E+02  0.53390694814E+01  0.30401368801E+01  0.17728646516E+02  0.00000000000E+00 0.  1.
</event>
<event>
 7    1  0.1874105E-013  0.7246152E+02  0.7816164E-02  0.1226708E+00
        -11   -1    0    0    0    0  0.00000000000E+00  0.00000000000E+00  0.45593999997E+02  0.45594000000E+02  0.51100000000E-03 0. -1.
         11   -1    0    0    0    0 -0.00000000000E+00 -0.00000000000E+00 -0.45593999997E+02  0.45594000000E+02  0.51100000000E-03 0.  1.
    9900012    2    1    2    0    0 -0.24964409580E+01 -0.43249388378E+01  0.18048369610E+02  0.72461522515E+02  0.69999937759E+02 0.  0.
        -12    1    1    2    0    0  0.24964409580E+01  0.43249388378E+01 -0.18048369610E+02  0.18726477485E+02  0.00000000000E+00 0.  1.
         11    1    3    3    0    0  0.78460275795E+00  0.12851096241E+02  0.27949324212E+02  0.30772243991E+02  0.51100000000E-03 0. -1.
        -11    1    3    3    0    0  0.14765392915E+01 -0.28262387427E+02 -0.84665652130E+01  0.29540234225E+02  0.51100000000E-03 0.  1.
        -12    1    3    3    0    0 -0.47575830074E+01  0.11086352347E+02 -0.14343893892E+01  0.12149044298E+02  0.00000000000E+00 0.  1.
</event>
<event>
 7    1  0.1874105E-013  0.7246155E+02  0.7816164E-02  0.1226708E+00
        -11   -1    0    0    0    0  0.00000000000E+00  0.00000000000E+00  0.45593999997E+02  0.45594000000E+02  0.51100000000E-03 0.  1.
         11   -1    0    0    0    0 -0.00000000000E+00 -0.00000000000E+00 -0.45593999997E+02  0.45594000000E+02  0.51100000000E-03 0. -1.
    9900012    2    1    2    0    0 -0.98006005946E+01 -0.11045116989E+02 -0.11516656888E+02  0.72461554337E+02  0.69999979212E+02 0.  0.
        -12    1    1    2    0    0  0.98006005946E+01  0.11045116989E+02  0.11516656888E+02  0.18726445663E+02  0.00000000000E+00 0.  1.
         11    1    3    3    0    0  0.39412987240E+01  0.23028753058E+02 -0.37388363532E+01  0.23660857985E+02  0.51100000000E-03 0. -1.
        -11    1    3    3    0    0 -0.16420745044E+02 -0.17718532307E+02 -0.17275400233E+02  0.29698934466E+02  0.51100000000E-03 0.  1.
         12    1    3    3    0    0  0.26788457259E+01 -0.16355337740E+02  0.94975796985E+01  0.19101761886E+02  0.00000000000E+00 0. -1.
</event>
<event>
 7    1  0.1874105E-013  0.7246159E+02  0.7816164E-02  0.1226708E+00
        -11   -1    0    0    0    0  0.00000000000E+00  0.00000000000E+00  0.45593999997E+02  0.45594000000E+02  0.51100000000E-03 0. -1.
         11   -1    0    0    0    0 -0.00000000000E+00 -0.00000000000E+00 -0.45593999997E+02  0.45594000000E+02  0.51100000000E-03 0.  1.
    9900012    2    1    2    0    0  0.84153713362E+01 -0.16578142026E+02  0.22416685013E+01  0.72461592298E+02  0.70000028664E+02 0.  0.
        -12    1    1    2    0    0 -0.84153713362E+01  0.16578142026E+02 -0.22416685013E+01  0.18726407702E+02  0.00000000000E+00 0.  1.
         11    1    3    3    0    0  0.27524513177E+02  0.10669919791E+01  0.37507296255E+01  0.27799375362E+02  0.51100000000E-03 0. -1.
        -11    1    3    3    0    0 -0.18695326559E+02  0.44610404644E+01 -0.91262328916E+01  0.21276847610E+02  0.51100000000E-03 0.  1.
        -12    1    3    3    0    0 -0.41381528236E+00 -0.22106174470E+02  0.76171717673E+01  0.23385369326E+02  0.00000000000E+00 0.  1.
</event>
<event>
 7    1  0.1874105E-013  0.7246164E+02  0.7816164E-02  0.1226708E+00
        -11   -1    0    0    0    0  0.00000000000E+00  0.00000000000E+00  0.45593999997E+02  0.45594000000E+02  0.51100000000E-03 0. -1.
         11   -1    0    0    0    0 -0.00000000000E+00 -0.00000000000E+00 -0.45593999997E+02  0.45594000000E+02  0.51100000000E-03 0.  1.
    9900012    2    1    2    0    0  0.12627481209E+02 -0.13500989100E+02 -0.29910521747E+01  0.72461644736E+02  0.70000096974E+02 0.  0.
        -12    1    1    2    0    0 -0.12627481209E+02  0.13500989100E+02  0.29910521747E+01  0.18726355264E+02  0.00000000000E+00 0.  1.
         11    1    3    3    0    0 -0.93925859158E+01  0.73621249298E+01 -0.13927778599E+02  0.18341335028E+02  0.51100000000E-03 0. -1.
        -11    1    3    3    0    0  0.30344953952E+02 -0.15205025351E+00  0.93017029859E+01  0.31738951280E+02  0.51100000000E-03 0.  1.
        -12    1    3    3    0    0 -0.83248868278E+01 -0.20711063776E+02  0.16350234381E+01  0.22381358428E+02  0.00000000000E+00 0.  1.
</event>
<event>
 7    1  0.1874105E-013  0.7246152E+02  0.7816164E-02  0.1226708E+00
        -11   -1    0    0    0    0  0.00000000000E+00  0.00000000000E+00  0.45593999997E+02  0.45594000000E+02  0.51100000000E-03 0.  1.
         11   -1    0    0    0    0 -0.00000000000E+00 -0.00000000000E+00 -0.45593999997E+02  0.45594000000E+02  0.51100000000E-03 0. -1.
    9900012    2    1    2    0    0  0.18329504680E+02 -0.38128689993E+01 -0.41521076122E+00  0.72461518435E+02  0.69999932444E+02 0.  0.
        -12    1    1    2    0    0 -0.18329504680E+02  0.38128689993E+01  0.41521076122E+00  0.18726481565E+02  0.00000000000E+00 0.  1.
         11    1    3    3    0    0  0.37474969971E+02  0.66053143120E+01 -0.16868474438E+02  0.41623899164E+02  0.51100000000E-03 0. -1.
        -11    1    3    3    0    0 -0.71932561208E+01  0.32757216866E+01  0.48471674092E+01  0.92719101776E+01  0.51100000000E-03 0.  1.
         12    1    3    3    0    0 -0.11952209171E+02 -0.13693904998E+02  0.11606096268E+02  0.21565709094E+02  0.00000000000E+00 0. -1.
</event>
<event>
 7    1  0.1874105E-013  0.7246156E+02  0.7816164E-02  0.1226708E+00
        -11   -1    0    0    0    0  0.00000000000E+00  0.00000000000E+00  0.45593999997E+02  0.45594000000E+02  0.51100000000E-03 0.  1.
         11   -1    0    0    0    0 -0.00000000000E+00 -0.00000000000E+00 -0.45593999997E+02  0.45594000000E+02  0.51100000000E-03 0. -1.
    9900012    2    1    2    0    0 -0.94308558107E+01  0.37814374735E+01 -0.15730199287E+02  0.72461561997E+02  0.69999989191E+02 0.  0.
        -12    1    1    2    0    0  0.94308558107E+01 -0.37814374735E+01  0.15730199287E+02  0.18726438003E+02  0.00000000000E+00 0.  1.
         11    1    3    3    0    0  0.12345034451E+02  0.20016483892E+02 -0.18371942038E+02  0.29842716993E+02  0.51100000000E-03 0. -1.
        -11    1    3    3    0    0 -0.16935337266E+02 -0.25263847847E+02  0.74318791754E+01  0.31309750633E+02  0.51100000000E-03 0.  1.
         12    1    3    3    0    0 -0.48405529960E+01  0.90288014284E+01 -0.47901364236E+01  0.11309094371E+02  0.00000000000E+00 0. -1.
</event>
<event>
 7    1  0.1874105E-013  0.7246159E+02  0.7816164E-02  0.1226708E+00
        -11   -1    0    0    0    0  0.00000000000E+00  0.00000000000E+00  0.45593999997E+02  0.45594000000E+02  0.51100000000E-03 0. -1.
         11   -1    0    0    0    0 -0.00000000000E+00 -0.00000000000E+00 -0.45593999997E+02  0.45594000000E+02  0.51100000000E-03 0.  1.
    9900012    2    1    2    0    0  0.11952537894E+02  0.13552540631E+02  0.49136444053E+01  0.72461590280E+02  0.70000026035E+02 0.  0.
        -12    1    1    2    0    0 -0.11952537894E+02 -0.13552540631E+02 -0.49136444053E+01  0.18726409720E+02  0.00000000000E+00 0.  1.
         11    1    3    3    0    0 -0.89889789245E+01  0.11004904422E+02  0.28876160724E+02  0.32182950795E+02  0.51100000000E-03 0. -1.
        -11    1    3    3    0    0  0.14385671578E+02  0.27884926783E+01 -0.28674368346E+02  0.32201593726E+02  0.51100000000E-03 0.  1.
        -12    1    3    3    0    0  0.65558452405E+01 -0.24085646911E+00  0.47118520278E+01  0.80770457587E+01  0.00000000000E+00 0.  1.
</event>
<event>
 7    1  0.1874105E-013  0.7246160E+02  0.7816164E-02  0.1226708E+00
        -11   -1    0    0    0    0  0.00000000000E+00  0.00000000000E+00  0.45593999997E+02  0.45594000000E+02  0.51100000000E-03 0.  1.
         11   -1    0    0    0    0 -0.00000000000E+00 -0.00000000000E+00 -0.45593999997E+02  0.45594000000E+02  0.51100000000E-03 0. -1.
    9900012    2    1    2    0    0  0.13788271383E+02 -0.38660699922E+00 -0.12665392166E+02  0.72461600148E+02  0.70000038890E+02 0.  0.
        -12    1    1    2    0    0 -0.13788271383E+02  0.38660699922E+00  0.12665392166E+02  0.18726399852E+02  0.00000000000E+00 0.  1.
         11    1    3    3    0    0  0.64235456165E+01 -0.18731340777E+00 -0.26470409451E+02  0.27239302512E+02  0.51100000000E-03 0. -1.
        -11    1    3    3    0    0  0.12595387394E+02  0.67242314207E+01  0.26349437663E+02  0.29969183125E+02  0.51100000000E-03 0.  1.
         12    1    3    3    0    0 -0.52306616277E+01 -0.69235250121E+01 -0.12544420378E+02  0.15253114511E+02  0.00000000000E+00 0. -1.
</event>
<event>
 7    1  0.1874105E-013  0.7246152E+02  0.7816164E-02  0.1226708E+00
        -11   -1    0    0    0    0  0.00000000000E+00  0.00000000000E+00  0.45593999997E+02  0.45594000000E+02  0.51100000000E-03 0. -1.
         11   -1    0    0    0    0 -0.00000000000E+00 -0.00000000000E+00 -0.45593999997E+02  0.45594000000E+02  0.51100000000E-03 0.  1.
    9900012    2    1    2    0    0 -0.13966274604E+02 -0.42111538573E+01  0.11742668620E+02  0.72461523838E+02  0.69999939482E+02 0.  0.
        -12    1    1    2    0    0  0.13966274604E+02  0.42111538573E+01 -0.11742668620E+02  0.18726476162E+02  0.00000000000E+00 0.  1.
         11    1    3    3    0    0 -0.20302335972E+02 -0.51029218591E+01  0.35586302993E+02  0.41286918247E+02  0.51100000000E-03 0. -1.
        -11    1    3    3    0    0  0.21769249691E+01  0.98118680044E+01 -0.99014466412E+01  0.14108522315E+02  0.51100000000E-03 0.  1.
         12    1    3    3    0    0  0.41591363984E+01 -0.89201000027E+01 -0.13942187732E+02  0.17066083276E+02  0.00000000000E+00 0. -1.
</event>
<event>
 7    1  0.1874105E-013  0.7246162E+02  0.7816164E-02  0.1226708E+00
        -11   -1    0    0    0    0  0.00000000000E+00  0.00000000000E+00  0.45593999997E+02  0.45594000000E+02  0.51100000000E-03 0. -1.
         11   -1    0    0    0    0 -0.00000000000E+00 -0.00000000000E+00 -0.45593999997E+02  0.45594000000E+02  0.51100000000E-03 0.  1.
    9900012    2    1    2    0    0 -0.18493645541E+02 -0.29158695659E+01 -0.40010604469E+00  0.72461620062E+02  0.70000064832E+02 0.  0.
        -12    1    1    2    0    0  0.18493645541E+02  0.29158695659E+01  0.40010604469E+00  0.18726379938E+02  0.00000000000E+00 0.  1.
         11    1    3    3    0    0 -0.50721891244E+01  0.11593396910E+02  0.17534511225E+02  0.21623899708E+02  0.51100000000E-03 0. -1.
        -11    1    3    3    0    0 -0.29016869821E+02 -0.11208118384E+02 -0.15353794778E+02  0.34689186590E+02  0.51100000000E-03 0.  1.
        -12    1    3    3    0    0  0.15595413405E+02 -0.33011480922E+01 -0.25808224922E+01  0.16148533764E+02  0.00000000000E+00 0.  1.
</event>
<event>
 7    1  0.1874105E-013  0.7246185E+02  0.7816164E-02  0.1226707E+00
        -11   -1    0    0    0    0  0.00000000000E+00  0.00000000000E+00  0.45593999997E+02  0.45594000000E+02  0.51100000000E-03 0.  1.
         11   -1    0    0    0    0 -0.00000000000E+00 -0.00000000000E+00 -0.45593999997E+02  0.45594000000E+02  0.51100000000E-03 0. -1.
    9900012    2    1    2    0    0 -0.43717011157E+01 -0.10330951584E+02 -0.14994280543E+02  0.72461847692E+02  0.70000361361E+02 0.  0.
        -12    1    1    2    0    0  0.43717011157E+01  0.10330951584E+02  0.14994280543E+02  0.18726152308E+02  0.00000000000E+00 0.  1.
         11    1    3    3    0    0 -0.32374052967E+02 -0.15010069037E+02 -0.11997545035E+02  0.37647344729E+02  0.51100000000E-03 0.  1.
        -11    1    3    3    0    0  0.19701688948E+02 -0.62501856745E+01 -0.40036753674E+01  0.21053521916E+02  0.51100000000E-03 0. -1.
         12    1    3    3    0    0  0.83006629028E+01  0.10929303128E+02  0.10069398602E+01  0.13760981046E+02  0.00000000000E+00 0. -1.
</event>
<event>
 7    1  0.1874105E-013  0.7246155E+02  0.7816164E-02  0.1226708E+00
        -11   -1    0    0    0    0  0.00000000000E+00  0.00000000000E+00  0.45593999997E+02  0.45594000000E+02  0.51100000000E-03 0.  1.
         11   -1    0    0    0    0 -0.00000000000E+00 -0.00000000000E+00 -0.45593999997E+02  0.45594000000E+02  0.51100000000E-03 0. -1.
    9900012    2    1    2    0    0  0.10516638708E+02  0.12608633378E+02 -0.90056914687E+01  0.72461553348E+02  0.69999977925E+02 0.  0.
        -12    1    1    2    0    0 -0.10516638708E+02 -0.12608633378E+02  0.90056914687E+01  0.18726446652E+02  0.00000000000E+00 0.  1.
         11    1    3    3    0    0  0.74559035763E+01 -0.20498601411E+02 -0.24245688268E+02  0.32613441367E+02  0.51100000000E-03 0. -1.
        -11    1    3    3    0    0  0.88358867115E+01  0.23601903813E+02  0.74866637126E+01  0.26290167199E+02  0.51100000000E-03 0.  1.
         12    1    3    3    0    0 -0.57751515800E+01  0.95053309763E+01  0.77533330869E+01  0.13557944782E+02  0.00000000000E+00 0. -1.
</event>
<event>
 7    1  0.1874105E-013  0.7246152E+02  0.7816164E-02  0.1226708E+00
        -11   -1    0    0    0    0  0.00000000000E+00  0.00000000000E+00  0.45593999997E+02  0.45594000000E+02  0.51100000000E-03 0.  1.
         11   -1    0    0    0    0 -0.00000000000E+00 -0.00000000000E+00 -0.45593999997E+02  0.45594000000E+02  0.51100000000E-03 0. -1.
    9900012    2    1    2    0    0  0.76832274025E+01  0.16711689925E+02  0.35168659810E+01  0.72461523829E+02  0.69999939470E+02 0.  0.
        -12    1    1    2    0    0 -0.76832274025E+01 -0.16711689925E+02 -0.35168659810E+01  0.18726476171E+02  0.00000000000E+00 0.  1.
         11    1    3    3    0    0  0.25617082870E+02  0.78503767340E+01  0.13418732352E+01  0.26826553519E+02  0.51100000000E-03 0. -1.
        -11    1    3    3    0    0 -0.87733963450E+01 -0.16358948297E+02  0.29251198181E+01  0.18792125985E+02  0.51100000000E-03 0.  1.
        -12    1    3    3    0    0 -0.91604591227E+01  0.25220261488E+02 -0.75012707230E+00  0.26842844326E+02  0.00000000000E+00 0.  1.
</event>
<event>
 7    1  0.1874105E-013  0.7246156E+02  0.7816164E-02  0.1226708E+00
        -11   -1    0    0    0    0  0.00000000000E+00  0.00000000000E+00  0.45593999997E+02  0.45594000000E+02  0.51100000000E-03 0. -1.
         11   -1    0    0    0    0 -0.00000000000E+00 -0.00000000000E+00 -0.45593999997E+02  0.45594000000E+02  0.51100000000E-03 0.  1.
    9900012    2    1    2    0    0  0.15793815796E+02 -0.94607954997E+01 -0.34246525416E+01  0.72461561099E+02  0.69999988021E+02 0.  0.
        -12    1    1    2    0    0 -0.15793815796E+02  0.94607954997E+01  0.34246525416E+01  0.18726438901E+02  0.00000000000E+00 0.  1.
         11    1    3    3    0    0  0.12714146065E+02  0.19828256199E+02 -0.11932249050E+02  0.26404314453E+02  0.51100000000E-03 0. -1.
        -11    1    3    3    0    0  0.14673389322E+02 -0.13695937143E+02 -0.69359569971E+01  0.21236632222E+02  0.51100000000E-03 0.  1.
         12    1    3    3    0    0 -0.11593719591E+02 -0.15593114556E+02  0.15443553505E+02  0.24820614424E+02  0.00000000000E+00 0. -1.
</event>
<event>
 7    1  0.1874105E-013  0.7246155E+02  0.7816164E-02  0.1226708E+00
        -11   -1    0    0    0    0  0.00000000000E+00  0.00000000000E+00  0.45593999997E+02  0.45594000000E+02  0.51100000000E-03 0.  1.
         11   -1    0    0    0    0 -0.00000000000E+00 -0.00000000000E+00 -0.45593999997E+02  0.45594000000E+02  0.51100000000E-03 0. -1.
    9900012    2    1    2    0    0  0.64007519600E+01  0.98764870255E+01 -0.14565901671E+02  0.72461545100E+02  0.69999967180E+02 0.  0.
        -12    1    1    2    0    0 -0.64007519600E+01 -0.98764870255E+01  0.14565901671E+02  0.18726454900E+02  0.00000000000E+00 0.  1.
         11    1    3    3    0    0  0.24566382094E+02  0.26953475721E+02 -0.14846614031E+02  0.39375359440E+02  0.51100000000E-03 0. -1.
        -11    1    3    3    0    0 -0.21102956515E+02 -0.10879382566E+02 -0.52021617925E+01  0.24305518432E+02  0.51100000000E-03 0.  1.
        -12    1    3    3    0    0  0.29373263807E+01 -0.61976061292E+01  0.54828741516E+01  0.87806672275E+01  0.00000000000E+00 0.  1.
</event>
<event>
 7    1  0.1874105E-013  0.7246157E+02  0.7816164E-02  0.1226708E+00
        -11   -1    0    0    0    0  0.00000000000E+00  0.00000000000E+00  0.45593999997E+02  0.45594000000E+02  0.51100000000E-03 0. -1.
         11   -1    0    0    0    0 -0.00000000000E+00 -0.00000000000E+00 -0.45593999997E+02  0.45594000000E+02  0.51100000000E-03 0.  1.
    9900012    2    1    2    0    0 -0.48445537504E+01 -0.99944202187E+00  0.18061300015E+02  0.72461570986E+02  0.70000000901E+02 0.  0.
        -12    1    1    2    0    0  0.48445537504E+01  0.99944202187E+00 -0.18061300015E+02  0.18726429014E+02  0.00000000000E+00 0.  1.
         11    1    3    3    0    0 -0.78256393647E+00 -0.15388950690E+02 -0.73031532386E+01  0.17051928253E+02  0.51100000000E-03 0. -1.
        -11    1    3    3    0    0  0.14646072512E+02  0.56607975396E+01  0.30350660506E+02  0.34171840193E+02  0.51100000000E-03 0.  1.
        -12    1    3    3    0    0 -0.18708062326E+02  0.87287111288E+01 -0.49862072520E+01  0.21237802539E+02  0.00000000000E+00 0.  1.
</event>
<event>
 7    1  0.1874105E-013  0.7246158E+02  0.7816164E-02  0.1226708E+00
        -11   -1    0    0    0    0  0.00000000000E+00  0.00000000000E+00  0.45593999997E+02  0.45594000000E+02  0.51100000000E-03 0. -1.
         11   -1    0    0    0    0 -0.00000000000E+00 -0.00000000000E+00 -0.45593999997E+02  0.45594000000E+02  0.51100000000E-03 0.  1.
    9900012    2    1    2    0    0  0.24703403532E+01  0.17715033524E+02  0.55455965783E+01  0.72461584550E+02  0.70000018570E+02 0.  0.
        -12    1    1    2    0    0 -0.24703403532E+01 -0.17715033524E+02 -0.55455965783E+01  0.18726415450E+02  0.00000000000E+00 0.  1.
         11    1    3    3    0    0 -0.94580982566E+01  0.25797075725E+02 -0.19552972519E+02  0.33723337219E+02  0.51100000000E-03 0.  1.
        -11    1    3    3    0    0  0.12991578554E+02  0.60532639461E+01  0.17613674517E+02  0.22708250659E+02  0.51100000000E-03 0. -1.
        -12    1    3    3    0    0 -0.10631399443E+01 -0.14135306148E+02  0.74848945803E+01  0.16029996672E+02  0.00000000000E+00 0.  1.
</event>
<event>
 7    1  0.1874105E-013  0.7246153E+02  0.7816164E-02  0.1226708E+00
        -11   -1    0    0    0    0  0.00000000000E+00  0.00000000000E+00  0.45593999997E+02  0.45594000000E+02  0.51100000000E-03 0.  1.
         11   -1    0    0    0    0 -0.00000000000E+00 -0.00000000000E+00 -0.45593999997E+02  0.45594000000E+02  0.51100000000E-03 0. -1.
    9900012    2    1    2    0    0  0.14237634512E+02 -0.11279907775E+02 -0.45534702669E+01  0.72461530835E+02  0.69999948597E+02 0.  0.
        -12    1    1    2    0    0 -0.14237634512E+02  0.11279907775E+02  0.45534702669E+01  0.18726469165E+02  0.00000000000E+00 0.  1.
         11    1    3    3    0    0  0.27948641336E+02  0.29612157282E+01 -0.83273103544E+01  0.29312786444E+02  0.51100000000E-03 0. -1.
        -11    1    3    3    0    0 -0.23303023425E+02 -0.20838752426E+02  0.39162925376E+01  0.31505901843E+02  0.51100000000E-03 0.  1.
        -12    1    3    3    0    0  0.95920166013E+01  0.65976289236E+01 -0.14245245014E+00  0.11642842548E+02  0.00000000000E+00 0.  1.
</event>
<event>
 7    1  0.1874105E-013  0.7246154E+02  0.7816164E-02  0.1226708E+00
        -11   -1    0    0    0    0  0.00000000000E+00  0.00000000000E+00  0.45593999997E+02  0.45594000000E+02  0.51100000000E-03 0.  1.
         11   -1    0    0    0    0 -0.00000000000E+00 -0.00000000000E+00 -0.45593999997E+02  0.45594000000E+02  0.51100000000E-03 0. -1.
    9900012    2    1    2    0    0 -0.87712173429E+01 -0.14072709420E+02 -0.87008621915E+01  0.72461537255E+02  0.69999956960E+02 0.  0.
        -12    1    1    2    0    0  0.87712173429E+01  0.14072709420E+02  0.87008621915E+01  0.18726462745E+02  0.00000000000E+00 0.  1.
         11    1    3    3    0    0  0.89463406959E+01  0.78148356199E+01 -0.62546171609E+01  0.13424935892E+02  0.51100000000E-03 0. -1.
        -11    1    3    3    0    0 -0.23461365505E+02 -0.91144733946E+01  0.20292435036E+02  0.32330979209E+02  0.51100000000E-03 0.  1.
        -12    1    3    3    0    0  0.57438074665E+01 -0.12773071645E+02 -0.22738680067E+02  0.26705622154E+02  0.00000000000E+00 0.  1.
</event>
<event>
 7    1  0.1874105E-013  0.7246131E+02  0.7816164E-02  0.1226709E+00
        -11   -1    0    0    0    0  0.00000000000E+00  0.00000000000E+00  0.45593999997E+02  0.45594000000E+02  0.51100000000E-03 0. -1.
         11   -1    0    0    0    0 -0.00000000000E+00 -0.00000000000E+00 -0.45593999997E+02  0.45594000000E+02  0.51100000000E-03 0.  1.
    9900012    2    1    2    0    0 -0.17432533360E+02  0.20365900999E+01  0.65305308894E+01  0.72461314434E+02  0.69999666694E+02 0.  0.
        -12    1    1    2    0    0  0.17432533360E+02 -0.20365900999E+01 -0.65305308894E+01  0.18726685566E+02  0.00000000000E+00 0.  1.
         11    1    3    3    0    0  0.23935370380E+01 -0.57273364077E+01  0.20864154008E+02  0.21767965560E+02  0.51100000000E-03 0. -1.
        -11    1    3    3    0    0  0.19033700800E+01 -0.80642749346E+01 -0.21356952028E+02  0.22907962547E+02  0.51100000000E-03 0.  1.
         12    1    3    3    0    0 -0.21729440478E+02  0.15828201442E+02  0.70233289092E+01  0.27785386327E+02  0.00000000000E+00 0. -1.
</event>
<event>
 7    1  0.1874105E-013  0.7246146E+02  0.7816164E-02  0.1226708E+00
        -11   -1    0    0    0    0  0.00000000000E+00  0.00000000000E+00  0.45593999997E+02  0.45594000000E+02  0.51100000000E-03 0. -1.
         11   -1    0    0    0    0 -0.00000000000E+00 -0.00000000000E+00 -0.45593999997E+02  0.45594000000E+02  0.51100000000E-03 0.  1.
    9900012    2    1    2    0    0 -0.11387917722E+01  0.14677826126E+02  0.11573591161E+02  0.72461456303E+02  0.69999851505E+02 0.  0.
        -12    1    1    2    0    0  0.11387917722E+01 -0.14677826126E+02 -0.11573591161E+02  0.18726543697E+02  0.00000000000E+00 0.  1.
         11    1    3    3    0    0 -0.12376858180E+02  0.39612369582E+02  0.74129291713E+01  0.42157774627E+02  0.51100000000E-03 0. -1.
        -11    1    3    3    0    0  0.11326542971E+02 -0.12779551442E+02 -0.98315717842E+00  0.17104797837E+02  0.51100000000E-03 0.  1.
         12    1    3    3    0    0 -0.88476564176E-01 -0.12154992015E+02  0.51438191677E+01  0.13198883839E+02  0.00000000000E+00 0. -1.
</event>
<event>
 7    1  0.1874105E-013  0.7246153E+02  0.7816164E-02  0.1226708E+00
        -11   -1    0    0    0    0  0.00000000000E+00  0.00000000000E+00  0.45593999997E+02  0.45594000000E+02  0.51100000000E-03 0. -1.
         11   -1    0    0    0    0 -0.00000000000E+00 -0.00000000000E+00 -0.45593999997E+02  0.45594000000E+02  0.51100000000E-03 0.  1.
    9900012    2    1    2    0    0  0.63197220531E+01  0.16202766738E+02  0.69434968652E+01  0.72461529817E+02  0.69999947270E+02 0.  0.
        -12    1    1    2    0    0 -0.63197220531E+01 -0.16202766738E+02 -0.69434968652E+01  0.18726470183E+02  0.00000000000E+00 0.  1.
         11    1    3    3    0    0  0.34120125267E+02  0.18876977408E+02  0.17787447055E+01  0.39034435532E+02  0.51100000000E-03 0. -1.
        -11    1    3    3    0    0 -0.24829199224E+02  0.38595419750E+01  0.10403878590E+01  0.25148908635E+02  0.51100000000E-03 0.  1.
        -12    1    3    3    0    0 -0.29712039904E+01 -0.65337526446E+01  0.41243643006E+01  0.82781856501E+01  0.00000000000E+00 0.  1.
</event>
<event>
 7    1  0.1874105E-013  0.7246127E+02  0.7816164E-02  0.1226709E+00
        -11   -1    0    0    0    0  0.00000000000E+00  0.00000000000E+00  0.45593999997E+02  0.45594000000E+02  0.51100000000E-03 0. -1.
         11   -1    0    0    0    0 -0.00000000000E+00 -0.00000000000E+00 -0.45593999997E+02  0.45594000000E+02  0.51100000000E-03 0.  1.
    9900012    2    1    2    0    0  0.17616626995E+02  0.38616416380E+01  0.50430818943E+01  0.72461267829E+02  0.69999605982E+02 0.  0.
        -12    1    1    2    0    0 -0.17616626995E+02 -0.38616416380E+01 -0.50430818943E+01  0.18726732171E+02  0.00000000000E+00 0.  1.
         11    1    3    3    0    0  0.57303660579E+00  0.55667292845E+01  0.94325101495E+01  0.10967638481E+02  0.51100000000E-03 0. -1.
        -11    1    3    3    0    0  0.81320342889E+01 -0.37062291928E+01 -0.31574711502E+02  0.32815065492E+02  0.51100000000E-03 0.  1.
        -12    1    3    3    0    0  0.89115561000E+01  0.20011415463E+01  0.27185283247E+02  0.28678563856E+02  0.00000000000E+00 0.  1.
</event>
<event>
 7    1  0.1874105E-013  0.7246168E+02  0.7816164E-02  0.1226708E+00
        -11   -1    0    0    0    0  0.00000000000E+00  0.00000000000E+00  0.45593999997E+02  0.45594000000E+02  0.51100000000E-03 0. -1.
         11   -1    0    0    0    0 -0.00000000000E+00 -0.00000000000E+00 -0.45593999997E+02  0.45594000000E+02  0.51100000000E-03 0.  1.
    9900012    2    1    2    0    0 -0.53536284850E+01 -0.13197741917E+02  0.12158670339E+02  0.72461681780E+02  0.70000145231E+02 0.  0.
        -12    1    1    2    0    0  0.53536284850E+01  0.13197741917E+02 -0.12158670339E+02  0.18726318220E+02  0.00000000000E+00 0.  1.
         11    1    3    3    0    0 -0.69603949913E+01 -0.17310957499E+02  0.23914333022E+01  0.18810510399E+02  0.51100000000E-03 0.  1.
        -11    1    3    3    0    0 -0.16315428627E+02  0.13864183227E+02  0.21311054072E+02  0.30208770477E+02  0.51100000000E-03 0. -1.
        -12    1    3    3    0    0  0.17922195133E+02 -0.97509676451E+01 -0.11543817035E+02  0.23442400904E+02  0.00000000000E+00 0.  1.
</event>
<event>
 7    1  0.1874105E-013  0.7246159E+02  0.7816164E-02  0.1226708E+00
        -11   -1    0    0    0    0  0.00000000000E+00  0.00000000000E+00  0.45593999997E+02  0.45594000000E+02  0.51100000000E-03 0.  1.
         11   -1    0    0    0    0 -0.00000000000E+00 -0.00000000000E+00 -0.45593999997E+02  0.45594000000E+02  0.51100000000E-03 0. -1.
    9900012    2    1    2    0    0  0.60135626984E+01 -0.74908312646E+01 -0.16074914976E+02  0.72461591352E+02  0.70000027432E+02 0.  0.
        -12    1    1    2    0    0 -0.60135626984E+01  0.74908312646E+01  0.16074914976E+02  0.18726408648E+02  0.00000000000E+00 0.  1.
         11    1    3    3    0    0 -0.41474395537E+01  0.14508738168E+02 -0.20536453997E+02  0.25484322261E+02  0.51100000000E-03 0. -1.
        -11    1    3    3    0    0  0.10046296353E+02 -0.73037446246E+01  0.21281789728E+02  0.24641171446E+02  0.51100000000E-03 0.  1.
        -12    1    3    3    0    0  0.11470589908E+00 -0.14695824808E+02 -0.16820250706E+02  0.22336097646E+02  0.00000000000E+00 0.  1.
</event>
<event>
 7    1  0.1874105E-013  0.7246148E+02  0.7816164E-02  0.1226708E+00
        -11   -1    0    0    0    0  0.00000000000E+00  0.00000000000E+00  0.45593999997E+02  0.45594000000E+02  0.51100000000E-03 0.  1.
         11   -1    0    0    0    0 -0.00000000000E+00 -0.00000000000E+00 -0.45593999997E+02  0.45594000000E+02  0.51100000000E-03 0. -1.
    9900012    2    1    2    0    0 -0.67763962137E+01  0.16573683826E+02 -0.54841463058E+01  0.72461483989E+02  0.69999887572E+02 0.  0.
        -12    1    1    2    0    0  0.67763962137E+01 -0.16573683826E+02  0.54841463058E+01  0.18726516011E+02  0.00000000000E+00 0.  1.
         11    1    3    3    0    0  0.14053270474E+02  0.15687440400E+02 -0.15660509199E+02  0.26245794825E+02  0.51100000000E-03 0. -1.
        -11    1    3    3    0    0 -0.53994357399E+01 -0.16966166305E+02  0.13556513141E+02  0.22378198190E+02  0.51100000000E-03 0.  1.
         12    1    3    3    0    0 -0.15430230948E+02  0.17852409731E+02 -0.33801502473E+01  0.23837490975E+02  0.00000000000E+00 0. -1.
</event>
<event>
 7    1  0.1874105E-013  0.7246109E+02  0.7816164E-02  0.1226709E+00
        -11   -1    0    0    0    0  0.00000000000E+00  0.00000000000E+00  0.45593999997E+02  0.45594000000E+02  0.51100000000E-03 0.  1.
         11   -1    0    0    0    0 -0.00000000000E+00 -0.00000000000E+00 -0.45593999997E+02  0.45594000000E+02  0.51100000000E-03 0. -1.
    9900012    2    1    2    0    0  0.33766673012E+01  0.10477335190E+02 -0.15149944410E+02  0.72461087538E+02  0.69999371118E+02 0.  0.
        -12    1    1    2    0    0 -0.33766673012E+01 -0.10477335190E+02  0.15149944410E+02  0.18726912462E+02  0.00000000000E+00 0.  1.
         11    1    3    3    0    0  0.14201394392E+02 -0.72182313015E+01 -0.99807596867E+01  0.18798883743E+02  0.51100000000E-03 0. -1.
        -11    1    3    3    0    0 -0.96574456326E+01  0.30270250302E+02 -0.17276978618E+02  0.36166950382E+02  0.51100000000E-03 0.  1.
        -12    1    3    3    0    0 -0.11672814586E+01 -0.12574683811E+02  0.12107793895E+02  0.17495253412E+02  0.00000000000E+00 0.  1.
</event>
<event>
 7    1  0.1874105E-013  0.7246155E+02  0.7816164E-02  0.1226708E+00
        -11   -1    0    0    0    0  0.00000000000E+00  0.00000000000E+00  0.45593999997E+02  0.45594000000E+02  0.51100000000E-03 0. -1.
         11   -1    0    0    0    0 -0.00000000000E+00 -0.00000000000E+00 -0.45593999997E+02  0.45594000000E+02  0.51100000000E-03 0.  1.
    9900012    2    1    2    0    0  0.30723609618E+01  0.11553448998E+02  0.14413818282E+02  0.72461554980E+02  0.69999980050E+02 0.  0.
        -12    1    1    2    0    0 -0.30723609618E+01 -0.11553448998E+02 -0.14413818282E+02  0.18726445020E+02  0.00000000000E+00 0.  1.
         11    1    3    3    0    0 -0.24387748585E+02  0.58363745748E+01  0.24755417836E+01  0.25198290748E+02  0.51100000000E-03 0.  1.
        -11    1    3    3    0    0  0.11914534438E+02 -0.13441168380E+02  0.13608782814E+02  0.22534864282E+02  0.51100000000E-03 0. -1.
         12    1    3    3    0    0  0.15545575109E+02  0.19158242802E+02 -0.16705063148E+01  0.24728399950E+02  0.00000000000E+00 0. -1.
</event>
<event>
 7    1  0.1874105E-013  0.7246156E+02  0.7816164E-02  0.1226708E+00
        -11   -1    0    0    0    0  0.00000000000E+00  0.00000000000E+00  0.45593999997E+02  0.45594000000E+02  0.51100000000E-03 0. -1.
         11   -1    0    0    0    0 -0.00000000000E+00 -0.00000000000E+00 -0.45593999997E+02  0.45594000000E+02  0.51100000000E-03 0.  1.
    9900012    2    1    2    0    0 -0.16486967400E+02 -0.53752771135E+01 -0.70686611491E+01  0.72461556970E+02  0.69999982643E+02 0.  0.
        -12    1    1    2    0    0  0.16486967400E+02  0.53752771135E+01  0.70686611491E+01  0.18726443030E+02  0.00000000000E+00 0.  1.
         11    1    3    3    0    0 -0.76696638190E+01  0.69535791539E+01  0.10701628773E+02  0.14889622722E+02  0.51100000000E-03 0. -1.
        -11    1    3    3    0    0 -0.20797024993E+02 -0.15092741262E+01 -0.30546791428E+02  0.36985140580E+02  0.51100000000E-03 0.  1.
        -12    1    3    3    0    0  0.11979721411E+02 -0.10819582141E+02  0.12776501506E+02  0.20586793668E+02  0.00000000000E+00 0.  1.
</event>
<event>
 7    1  0.1874105E-013  0.7246156E+02  0.7816164E-02  0.1226708E+00
        -11   -1    0    0    0    0  0.00000000000E+00  0.00000000000E+00  0.45593999997E+02  0.45594000000E+02  0.51100000000E-03 0. -1.
         11   -1    0    0    0    0 -0.00000000000E+00 -0.00000000000E+00 -0.45593999997E+02  0.45594000000E+02  0.51100000000E-03 0.  1.
    9900012    2    1    2    0    0 -0.26336519718E+01 -0.85687102409E+01  0.16441431192E+02  0.72461559400E+02  0.69999985808E+02 0.  0.
        -12    1    1    2    0    0  0.26336519718E+01  0.85687102409E+01 -0.16441431192E+02  0.18726440600E+02  0.00000000000E+00 0.  1.
         11    1    3    3    0    0  0.22061209845E+02 -0.35034608588E+01  0.22854225520E+02  0.31957578791E+02  0.51100000000E-03 0. -1.
        -11    1    3    3    0    0 -0.14399938412E+02  0.12288230752E+02 -0.73441700400E+01  0.20305065257E+02  0.51100000000E-03 0.  1.
         12    1    3    3    0    0 -0.10294923405E+02 -0.17353480134E+02  0.93137571243E+00  0.20198915352E+02  0.00000000000E+00 0. -1.
</event>
<event>
 7    1  0.1874105E-013  0.7246152E+02  0.7816164E-02  0.1226708E+00
        -11   -1    0    0    0    0  0.00000000000E+00  0.00000000000E+00  0.45593999997E+02  0.45594000000E+02  0.51100000000E-03 0.  1.
         11   -1    0    0    0    0 -0.00000000000E+00 -0.00000000000E+00 -0.45593999997E+02  0.45594000000E+02  0.51100000000E-03 0. -1.
    9900012    2    1    2    0    0  0.15150259169E+02  0.64166043748E+01 -0.89430293039E+01  0.72461523083E+02  0.69999938498E+02 0.  0.
        -12    1    1    2    0    0 -0.15150259169E+02 -0.64166043748E+01  0.89430293039E+01  0.18726476917E+02  0.00000000000E+00 0.  1.
         11    1    3    3    0    0  0.91661995674E+01 -0.12432788412E+02 -0.81969532208E+01  0.17486665908E+02  0.51100000000E-03 0. -1.
        -11    1    3    3    0    0 -0.17331244565E+02  0.25136043921E+02 -0.32166861422E+01  0.30700811263E+02  0.51100000000E-03 0.  1.
        -12    1    3    3    0    0  0.23315304167E+02 -0.62866511344E+01  0.24706100591E+01  0.24274045912E+02  0.00000000000E+00 0.  1.
</event>
<event>
 7    1  0.1874105E-013  0.7246142E+02  0.7816164E-02  0.1226708E+00
        -11   -1    0    0    0    0  0.00000000000E+00  0.00000000000E+00  0.45593999997E+02  0.45594000000E+02  0.51100000000E-03 0.  1.
         11   -1    0    0    0    0 -0.00000000000E+00 -0.00000000000E+00 -0.45593999997E+02  0.45594000000E+02  0.51100000000E-03 0. -1.
    9900012    2    1    2    0    0  0.18502088281E+02 -0.10186395123E+01 -0.27055131106E+01  0.72461422673E+02  0.69999807695E+02 0.  0.
        -12    1    1    2    0    0 -0.18502088281E+02  0.10186395123E+01  0.27055131106E+01  0.18726577327E+02  0.00000000000E+00 0.  1.
         11    1    3    3    0    0  0.10429991145E+02 -0.15424750010E+01  0.27943815223E+01  0.10907452166E+02  0.51100000000E-03 0. -1.
        -11    1    3    3    0    0 -0.97045580643E+01 -0.26694812820E+02 -0.60438733916E+01  0.29039970464E+02  0.51100000000E-03 0.  1.
        -12    1    3    3    0    0  0.17776655200E+02  0.27218648309E+02  0.54397875871E+00  0.32514000042E+02  0.00000000000E+00 0.  1.
</event>
<event>
 7    1  0.1874105E-013  0.7246156E+02  0.7816164E-02  0.1226708E+00
        -11   -1    0    0    0    0  0.00000000000E+00  0.00000000000E+00  0.45593999997E+02  0.45594000000E+02  0.51100000000E-03 0.  1.
         11   -1    0    0    0    0 -0.00000000000E+00 -0.00000000000E+00 -0.45593999997E+02  0.45594000000E+02  0.51100000000E-03 0. -1.
    9900012    2    1    2    0    0  0.37798382833E+01 -0.15672824812E+02 -0.95265368047E+01  0.72461560976E+02  0.69999987861E+02 0.  0.
        -12    1    1    2    0    0 -0.37798382833E+01  0.15672824812E+02  0.95265368047E+01  0.18726439024E+02  0.00000000000E+00 0.  1.
         11    1    3    3    0    0  0.11886736591E+01 -0.19055189459E+02  0.47844119508E+01  0.19682575755E+02  0.51100000000E-03 0. -1.
        -11    1    3    3    0    0  0.18714432499E+02 -0.10145186598E+01 -0.26240240268E+02  0.32246076373E+02  0.51100000000E-03 0.  1.
        -12    1    3    3    0    0 -0.16123267875E+02  0.43968833061E+01  0.11929291512E+02  0.20532908848E+02  0.00000000000E+00 0.  1.
</event>
<event>
 7    1  0.1874105E-013  0.7246155E+02  0.7816164E-02  0.1226708E+00
        -11   -1    0    0    0    0  0.00000000000E+00  0.00000000000E+00  0.45593999997E+02  0.45594000000E+02  0.51100000000E-03 0.  1.
         11   -1    0    0    0    0 -0.00000000000E+00 -0.00000000000E+00 -0.45593999997E+02  0.45594000000E+02  0.51100000000E-03 0. -1.
    9900012    2    1    2    0    0 -0.14014480401E+02  0.12418491048E+02 -0.23558950916E+00  0.72461545898E+02  0.69999968219E+02 0.  0.
        -12    1    1    2    0    0  0.14014480401E+02 -0.12418491048E+02  0.23558950916E+00  0.18726454102E+02  0.00000000000E+00 0.  1.
         11    1    3    3    0    0 -0.11526414290E+01  0.12464582539E+02  0.29387022179E+00  0.12521212405E+02  0.51100000000E-03 0. -1.
        -11    1    3    3    0    0  0.96219739943E+01 -0.22710602311E+02 -0.10038365699E+02  0.26629356489E+02  0.51100000000E-03 0.  1.
        -12    1    3    3    0    0 -0.22483812966E+02  0.22664510820E+02  0.95089059681E+01  0.33310977003E+02  0.00000000000E+00 0.  1.
</event>
<event>
 7    1  0.1874105E-013  0.7246157E+02  0.7816164E-02  0.1226708E+00
        -11   -1    0    0    0    0  0.00000000000E+00  0.00000000000E+00  0.45593999997E+02  0.45594000000E+02  0.51100000000E-03 0. -1.
         11   -1    0    0    0    0 -0.00000000000E+00 -0.00000000000E+00 -0.45593999997E+02  0.45594000000E+02  0.51100000000E-03 0.  1.
    9900012    2    1    2    0    0  0.14203114566E+02 -0.91515264291E+00  0.12170182208E+02  0.72461566738E+02  0.69999995368E+02 0.  0.
        -12    1    1    2    0    0 -0.14203114566E+02  0.91515264291E+00 -0.12170182208E+02  0.18726433262E+02  0.00000000000E+00 0.  1.
         11    1    3    3    0    0 -0.78691008943E+01  0.52933985668E+01  0.29530809754E+02  0.31016310907E+02  0.51100000000E-03 0. -1.
        -11    1    3    3    0    0  0.11327538074E+02  0.11891915360E+02 -0.57166691421E+01  0.17389970560E+02  0.51100000000E-03 0.  1.
         12    1    3    3    0    0  0.10744677386E+02 -0.18100466570E+02 -0.11643958404E+02  0.24055285271E+02  0.00000000000E+00 0. -1.
</event>
<event>
 7    1  0.1874105E-013  0.7246156E+02  0.7816164E-02  0.1226708E+00
        -11   -1    0    0    0    0  0.00000000000E+00  0.00000000000E+00  0.45593999997E+02  0.45594000000E+02  0.51100000000E-03 0.  1.
         11   -1    0    0    0    0 -0.00000000000E+00 -0.00000000000E+00 -0.45593999997E+02  0.45594000000E+02  0.51100000000E-03 0. -1.
    9900012    2    1    2    0    0  0.10479677387E+02  0.13527504078E+02 -0.76067319533E+01  0.72461564789E+02  0.69999992828E+02 0.  0.
        -12    1    1    2    0    0 -0.10479677387E+02 -0.13527504078E+02  0.76067319533E+01  0.18726435211E+02  0.00000000000E+00 0.  1.
         11    1    3    3    0    0 -0.11340604460E+02 -0.11733230555E+02 -0.14672742638E+02  0.21944643664E+02  0.51100000000E-03 0. -1.
        -11    1    3    3    0    0  0.30899469201E+02  0.25544983310E+02  0.93142705473E+01  0.41159191019E+02  0.51100000000E-03 0.  1.
        -12    1    3    3    0    0 -0.90791873546E+01 -0.28424867677E+00 -0.22482598630E+01  0.93577301063E+01  0.00000000000E+00 0.  1.
</event>
<event>
 7    1  0.1874105E-013  0.7246159E+02  0.7816164E-02  0.1226708E+00
        -11   -1    0    0    0    0  0.00000000000E+00  0.00000000000E+00  0.45593999997E+02  0.45594000000E+02  0.51100000000E-03 0. -1.
         11   -1    0    0    0    0 -0.00000000000E+00 -0.00000000000E+00 -0.45593999997E+02  0.45594000000E+02  0.51100000000E-03 0.  1.
    9900012    2    1    2    0    0 -0.15343413370E+02  0.10722903799E+02  0.52688540830E+00  0.72461585288E+02  0.70000019532E+02 0.  0.
        -12    1    1    2    0    0  0.15343413370E+02 -0.10722903799E+02 -0.52688540830E+00  0.18726414712E+02  0.00000000000E+00 0.  1.
         11    1    3    3    0    0 -0.41275377063E+02  0.13812000011E+02  0.29358823172E+00  0.43526018544E+02  0.51100000000E-03 0. -1.
        -11    1    3    3    0    0  0.11622612591E+02 -0.51402952994E+01  0.50840618016E+01  0.13687784476E+02  0.51100000000E-03 0.  1.
         12    1    3    3    0    0  0.14309351102E+02  0.20511990870E+01 -0.48507646250E+01  0.15247782268E+02  0.00000000000E+00 0. -1.
</event>
<event>
 7    1  0.1874105E-013  0.7246122E+02  0.7816164E-02  0.1226709E+00
        -11   -1    0    0    0    0  0.00000000000E+00  0.00000000000E+00  0.45593999997E+02  0.45594000000E+02  0.51100000000E-03 0.  1.
         11   -1    0    0    0    0 -0.00000000000E+00 -0.00000000000E+00 -0.45593999997E+02  0.45594000000E+02  0.51100000000E-03 0. -1.
    9900012    2    1    2    0    0 -0.77987345050E+01 -0.16965330204E+02 -0.14316859427E+01  0.72461216681E+02  0.69999539352E+02 0.  0.
        -12    1    1    2    0    0  0.77987345050E+01  0.16965330204E+02  0.14316859427E+01  0.18726783319E+02  0.00000000000E+00 0.  1.
         11    1    3    3    0    0 -0.26546949731E+02  0.13260374991E+02 -0.39237163624E+01  0.29932818699E+02  0.51100000000E-03 0. -1.
        -11    1    3    3    0    0  0.14728726455E+02 -0.24921446066E+02 -0.80630218664E+01  0.30050393989E+02  0.51100000000E-03 0.  1.
         12    1    3    3    0    0  0.40194887715E+01 -0.53042591293E+01  0.10555052286E+02  0.12478003993E+02  0.00000000000E+00 0. -1.
</event>
<event>
 7    1  0.1874105E-013  0.7246154E+02  0.7816164E-02  0.1226708E+00
        -11   -1    0    0    0    0  0.00000000000E+00  0.00000000000E+00  0.45593999997E+02  0.45594000000E+02  0.51100000000E-03 0.  1.
         11   -1    0    0    0    0 -0.00000000000E+00 -0.00000000000E+00 -0.45593999997E+02  0.45594000000E+02  0.51100000000E-03 0. -1.
    9900012    2    1    2    0    0 -0.36577135242E+01 -0.16701325749E+02 -0.76398283368E+01  0.72461544729E+02  0.69999966696E+02 0.  0.
        -12    1    1    2    0    0  0.36577135242E+01  0.16701325749E+02  0.76398283368E+01  0.18726455271E+02  0.00000000000E+00 0.  1.
         11    1    3    3    0    0  0.60889165446E+01 -0.14214665698E+02  0.27664291263E+02  0.31692974568E+02  0.51100000000E-03 0.  1.
        -11    1    3    3    0    0 -0.13528925598E+01 -0.27840602043E+01 -0.31319888398E+02  0.31472475578E+02  0.51100000000E-03 0. -1.
         12    1    3    3    0    0 -0.83937375090E+01  0.29740015304E+00 -0.39842312023E+01  0.92960945830E+01  0.00000000000E+00 0. -1.
</event>
<event>
 7    1  0.1874105E-013  0.7246153E+02  0.7816164E-02  0.1226708E+00
        -11   -1    0    0    0    0  0.00000000000E+00  0.00000000000E+00  0.45593999997E+02  0.45594000000E+02  0.51100000000E-03 0.  1.
         11   -1    0    0    0    0 -0.00000000000E+00 -0.00000000000E+00 -0.45593999997E+02  0.45594000000E+02  0.51100000000E-03 0. -1.
    9900012    2    1    2    0    0  0.94060760558E+01  0.28747327151E+01 -0.15935563152E+02  0.72461534025E+02  0.69999952752E+02 0.  0.
        -12    1    1    2    0    0 -0.94060760558E+01 -0.28747327151E+01  0.15935563152E+02  0.18726465975E+02  0.00000000000E+00 0.  1.
         11    1    3    3    0    0  0.39368818118E+01 -0.32984598451E-01 -0.99670287058E+01  0.10716426077E+02  0.51100000000E-03 0. -1.
        -11    1    3    3    0    0  0.10573694146E+02 -0.28044764846E+02 -0.10411230314E+01  0.29989927986E+02  0.51100000000E-03 0.  1.
        -12    1    3    3    0    0 -0.51044999023E+01  0.30952482160E+02 -0.49274114151E+01  0.31755179961E+02  0.00000000000E+00 0.  1.
</event>
<event>
 7    1  0.1874105E-013  0.7246155E+02  0.7816164E-02  0.1226708E+00
        -11   -1    0    0    0    0  0.00000000000E+00  0.00000000000E+00  0.45593999997E+02  0.45594000000E+02  0.51100000000E-03 0.  1.
         11   -1    0    0    0    0 -0.00000000000E+00 -0.00000000000E+00 -0.45593999997E+02  0.45594000000E+02  0.51100000000E-03 0. -1.
    9900012    2    1    2    0    0 -0.17438409893E+02  0.25197208329E+01 -0.63429279953E+01  0.72461551638E+02  0.69999975697E+02 0.  0.
        -12    1    1    2    0    0  0.17438409893E+02 -0.25197208329E+01  0.63429279953E+01  0.18726448362E+02  0.00000000000E+00 0.  1.
         11    1    3    3    0    0  0.11171569664E+02 -0.23633305846E+02 -0.13795508296E+02  0.29557624454E+02  0.51100000000E-03 0. -1.
        -11    1    3    3    0    0 -0.30835987593E+01  0.25995861634E+01  0.71045035443E+01  0.81694798122E+01  0.51100000000E-03 0.  1.
         12    1    3    3    0    0 -0.25526380798E+02  0.23553440516E+02  0.34807675595E+00  0.34734447372E+02  0.00000000000E+00 0. -1.
</event>
<event>
 7    1  0.1874105E-013  0.7246185E+02  0.7816164E-02  0.1226707E+00
        -11   -1    0    0    0    0  0.00000000000E+00  0.00000000000E+00  0.45593999997E+02  0.45594000000E+02  0.51100000000E-03 0.  1.
         11   -1    0    0    0    0 -0.00000000000E+00 -0.00000000000E+00 -0.45593999997E+02  0.45594000000E+02  0.51100000000E-03 0. -1.
    9900012    2    1    2    0    0  0.11528831442E+02  0.93635655724E+01 -0.11405189280E+02  0.72461850979E+02  0.70000365643E+02 0.  0.
        -12    1    1    2    0    0 -0.11528831442E+02 -0.93635655724E+01  0.11405189280E+02  0.18726149021E+02  0.00000000000E+00 0.  1.
         11    1    3    3    0    0  0.23750163381E+02  0.19000558726E+02 -0.28138693250E+02  0.41435221136E+02  0.51100000000E-03 0. -1.
        -11    1    3    3    0    0  0.41935554511E+01 -0.32468716609E+01  0.11478696078E+02  0.12644704299E+02  0.51100000000E-03 0.  1.
         12    1    3    3    0    0 -0.16414887390E+02 -0.63901214931E+01  0.52548078916E+01  0.18381925544E+02  0.00000000000E+00 0. -1.
</event>
<event>
 8    1  0.1874105E-013  0.7246094E+02  0.7816164E-02  0.1226710E+00
        -11   -1    0    0    0    0  0.00000000000E+00  0.00000000000E+00  0.45593999997E+02  0.45594000000E+02  0.51100000000E-03 0. -1.
         11   -1    0    0    0    0 -0.00000000000E+00 -0.00000000000E+00 -0.45593999997E+02  0.45594000000E+02  0.51100000000E-03 0.  1.
    9900012    2    1    2    0    0 -0.56919987898E+01  0.14410163458E+01  0.17782779764E+02  0.72460943785E+02  0.69999183851E+02 0.  0.
        -24    2    3    3    0    0 -0.90229805413E+01 -0.55150649042E+01  0.29581100616E+02  0.58365452273E+02  0.49189982585E+02 0.  0.
        -12    1    1    2    0    0  0.56919987898E+01 -0.14410163458E+01 -0.17782779764E+02  0.18727056215E+02  0.00000000000E+00 0.  1.
         11    1    4    4    0    0  0.67507431502E+01 -0.15811816696E+02  0.34803051123E+02  0.38818017054E+02  0.51100000000E-03 0.  1.
        -11    1    3    3    0    0  0.33309817515E+01  0.69560812500E+01 -0.11798320852E+02  0.14095491512E+02  0.51100000000E-03 0. -1.
        -12    1    4    4    0    0 -0.15773723692E+02  0.10296751792E+02 -0.52219505070E+01  0.19547435219E+02  0.00000000000E+00 0.  1.
</event>
<event>
 7    1  0.1874105E-013  0.7246149E+02  0.7816164E-02  0.1226708E+00
        -11   -1    0    0    0    0  0.00000000000E+00  0.00000000000E+00  0.45593999997E+02  0.45594000000E+02  0.51100000000E-03 0.  1.
         11   -1    0    0    0    0 -0.00000000000E+00 -0.00000000000E+00 -0.45593999997E+02  0.45594000000E+02  0.51100000000E-03 0. -1.
    9900012    2    1    2    0    0  0.81855531845E+01 -0.59519766709E+01  0.15756043437E+02  0.72461489060E+02  0.69999894177E+02 0.  0.
        -12    1    1    2    0    0 -0.81855531845E+01  0.59519766709E+01 -0.15756043437E+02  0.18726510940E+02  0.00000000000E+00 0.  1.
         11    1    3    3    0    0  0.32639868009E+02  0.10979165799E+02  0.79825047671E+00  0.34446193830E+02  0.51100000000E-03 0. -1.
        -11    1    3    3    0    0 -0.10879922513E+02 -0.16820992773E+02  0.36826338264E+01  0.20368610751E+02  0.51100000000E-03 0.  1.
         12    1    3    3    0    0 -0.13574392312E+02 -0.11014969652E+00  0.11275159133E+02  0.17646684478E+02  0.00000000000E+00 0. -1.
</event>
<event>
 7    1  0.1874105E-013  0.7246145E+02  0.7816164E-02  0.1226708E+00
        -11   -1    0    0    0    0  0.00000000000E+00  0.00000000000E+00  0.45593999997E+02  0.45594000000E+02  0.51100000000E-03 0.  1.
         11   -1    0    0    0    0 -0.00000000000E+00 -0.00000000000E+00 -0.45593999997E+02  0.45594000000E+02  0.51100000000E-03 0. -1.
    9900012    2    1    2    0    0 -0.15936695537E+02  0.26394980692E-01 -0.98338615452E+01  0.72461446814E+02  0.69999839143E+02 0.  0.
        -12    1    1    2    0    0  0.15936695537E+02 -0.26394980692E-01  0.98338615452E+01  0.18726553186E+02  0.00000000000E+00 0.  1.
         11    1    3    3    0    0 -0.25782255169E+01  0.24262437650E+02 -0.86867924324E+01  0.25899295175E+02  0.51100000000E-03 0. -1.
        -11    1    3    3    0    0 -0.11397954864E+02 -0.17619572921E+02  0.17089787633E+02  0.27063325121E+02  0.51100000000E-03 0.  1.
        -12    1    3    3    0    0 -0.19605151566E+01 -0.66164697478E+01 -0.18236856746E+02  0.19498826518E+02  0.00000000000E+00 0.  1.
</event>
<event>
 7    1  0.1874105E-013  0.7246151E+02  0.7816164E-02  0.1226708E+00
        -11   -1    0    0    0    0  0.00000000000E+00  0.00000000000E+00  0.45593999997E+02  0.45594000000E+02  0.51100000000E-03 0. -1.
         11   -1    0    0    0    0 -0.00000000000E+00 -0.00000000000E+00 -0.45593999997E+02  0.45594000000E+02  0.51100000000E-03 0.  1.
    9900012    2    1    2    0    0  0.15734203449E+02 -0.90444557628E+01  0.46167188363E+01  0.72461509912E+02  0.69999921340E+02 0.  0.
        -12    1    1    2    0    0 -0.15734203449E+02  0.90444557628E+01 -0.46167188363E+01  0.18726490088E+02  0.00000000000E+00 0.  1.
         11    1    3    3    0    0 -0.17833419895E+01 -0.45108625718E+01  0.10631849764E+02  0.11686078019E+02  0.51100000000E-03 0. -1.
        -11    1    3    3    0    0  0.97011864125E+01  0.26335320508E+02 -0.69704269755E+01  0.28917969786E+02  0.51100000000E-03 0.  1.
        -12    1    3    3    0    0  0.78163590259E+01 -0.30868913699E+02  0.95529604742E+00  0.31857462107E+02  0.00000000000E+00 0.  1.
</event>
<event>
 7    1  0.1874105E-013  0.7246141E+02  0.7816164E-02  0.1226708E+00
        -11   -1    0    0    0    0  0.00000000000E+00  0.00000000000E+00  0.45593999997E+02  0.45594000000E+02  0.51100000000E-03 0.  1.
         11   -1    0    0    0    0 -0.00000000000E+00 -0.00000000000E+00 -0.45593999997E+02  0.45594000000E+02  0.51100000000E-03 0. -1.
    9900012    2    1    2    0    0 -0.65243084044E-01  0.38286393726E+01 -0.18330914323E+02  0.72461410454E+02  0.69999791778E+02 0.  0.
        -12    1    1    2    0    0  0.65243084044E-01 -0.38286393726E+01  0.18330914323E+02  0.18726589546E+02  0.00000000000E+00 0.  1.
         11    1    3    3    0    0  0.30952216215E+01 -0.82637609160E+01 -0.54263839839E+01  0.10359333220E+02  0.51100000000E-03 0. -1.
        -11    1    3    3    0    0 -0.18870609349E+02  0.29443399512E+02  0.79601287749E+00  0.34980670502E+02  0.51100000000E-03 0.  1.
        -12    1    3    3    0    0  0.15710144643E+02 -0.17350999223E+02 -0.13700543216E+02  0.27121406733E+02  0.00000000000E+00 0.  1.
</event>
<event>
 7    1  0.1874105E-013  0.7246167E+02  0.7816164E-02  0.1226708E+00
        -11   -1    0    0    0    0  0.00000000000E+00  0.00000000000E+00  0.45593999997E+02  0.45594000000E+02  0.51100000000E-03 0. -1.
         11   -1    0    0    0    0 -0.00000000000E+00 -0.00000000000E+00 -0.45593999997E+02  0.45594000000E+02  0.51100000000E-03 0.  1.
    9900012    2    1    2    0    0 -0.16322795212E+02  0.10035901052E+01  0.91233061008E+01  0.72461666914E+02  0.70000125865E+02 0.  0.
        -12    1    1    2    0    0  0.16322795212E+02 -0.10035901052E+01 -0.91233061008E+01  0.18726333086E+02  0.00000000000E+00 0.  1.
         11    1    3    3    0    0 -0.30210910027E+02 -0.11241025871E+02  0.30166150659E+02  0.44148118795E+02  0.51100000000E-03 0. -1.
        -11    1    3    3    0    0  0.58012976334E+01  0.71907643808E+01 -0.12239929956E+02  0.15335515388E+02  0.51100000000E-03 0.  1.
         12    1    3    3    0    0  0.80868171820E+01  0.50538515950E+01 -0.88029146022E+01  0.12978032731E+02  0.00000000000E+00 0. -1.
</event>
<event>
 7    1  0.1874105E-013  0.7246156E+02  0.7816164E-02  0.1226708E+00
        -11   -1    0    0    0    0  0.00000000000E+00  0.00000000000E+00  0.45593999997E+02  0.45594000000E+02  0.51100000000E-03 0.  1.
         11   -1    0    0    0    0 -0.00000000000E+00 -0.00000000000E+00 -0.45593999997E+02  0.45594000000E+02  0.51100000000E-03 0. -1.
    9900012    2    1    2    0    0 -0.13063861257E+02 -0.12657625313E+02 -0.44496795934E+01  0.72461558854E+02  0.69999985097E+02 0.  0.
        -12    1    1    2    0    0  0.13063861257E+02  0.12657625313E+02  0.44496795934E+01  0.18726441146E+02  0.00000000000E+00 0.  1.
         11    1    3    3    0    0 -0.15896035840E+02  0.68892024444E+01 -0.62018540348E+01  0.18401305918E+02  0.51100000000E-03 0. -1.
        -11    1    3    3    0    0  0.16791132993E+02 -0.28382642131E+02  0.11444025137E+02  0.34906764861E+02  0.51100000000E-03 0.  1.
        -12    1    3    3    0    0 -0.13958958409E+02  0.88358143733E+01 -0.96918506961E+01  0.19153488075E+02  0.00000000000E+00 0.  1.
</event>
<event>
 7    1  0.1874105E-013  0.7246143E+02  0.7816164E-02  0.1226708E+00
        -11   -1    0    0    0    0  0.00000000000E+00  0.00000000000E+00  0.45593999997E+02  0.45594000000E+02  0.51100000000E-03 0.  1.
         11   -1    0    0    0    0 -0.00000000000E+00 -0.00000000000E+00 -0.45593999997E+02  0.45594000000E+02  0.51100000000E-03 0. -1.
    9900012    2    1    2    0    0  0.67650842593E+01  0.14890377954E+02 -0.91211061449E+01  0.72461433364E+02  0.69999821623E+02 0.  0.
        -12    1    1    2    0    0 -0.67650842593E+01 -0.14890377954E+02  0.91211061449E+01  0.18726566636E+02  0.00000000000E+00 0.  1.
         11    1    3    3    0    0 -0.10333064037E+02 -0.46254129441E+01 -0.11246956976E+02  0.15958091953E+02  0.51100000000E-03 0. -1.
        -11    1    3    3    0    0  0.27605604881E+02 -0.52038424355E+01 -0.54058722805E+01  0.28607216787E+02  0.51100000000E-03 0.  1.
        -12    1    3    3    0    0 -0.10507456585E+02  0.24719633334E+02  0.75317231111E+01  0.27896124624E+02  0.00000000000E+00 0.  1.
</event>
<event>
 7    1  0.1874105E-013  0.7246159E+02  0.7816164E-02  0.1226708E+00
        -11   -1    0    0    0    0  0.00000000000E+00  0.00000000000E+00  0.45593999997E+02  0.45594000000E+02  0.51100000000E-03 0. -1.
         11   -1    0    0    0    0 -0.00000000000E+00 -0.00000000000E+00 -0.45593999997E+02  0.45594000000E+02  0.51100000000E-03 0.  1.
    9900012    2    1    2    0    0 -0.53817561913E+01  0.73077054023E+01  0.16380253875E+02  0.72461586169E+02  0.70000020679E+02 0.  0.
        -12    1    1    2    0    0  0.53817561913E+01 -0.73077054023E+01 -0.16380253875E+02  0.18726413831E+02  0.00000000000E+00 0.  1.
         11    1    3    3    0    0  0.51201698168E+01 -0.16492014146E+02  0.18115904968E+02  0.25027758242E+02  0.51100000000E-03 0. -1.
        -11    1    3    3    0    0  0.12591326948E+01  0.32634827992E+02 -0.37681206704E+00  0.32661282902E+02  0.51100000000E-03 0.  1.
        -12    1    3    3    0    0 -0.11761058703E+02 -0.88351084430E+01 -0.13588390257E+01  0.14772545025E+02  0.00000000000E+00 0.  1.
</event>
<event>
 7    1  0.1874105E-013  0.7246158E+02  0.7816164E-02  0.1226708E+00
        -11   -1    0    0    0    0  0.00000000000E+00  0.00000000000E+00  0.45593999997E+02  0.45594000000E+02  0.51100000000E-03 0.  1.
         11   -1    0    0    0    0 -0.00000000000E+00 -0.00000000000E+00 -0.45593999997E+02  0.45594000000E+02  0.51100000000E-03 0. -1.
    9900012    2    1    2    0    0  0.15109540290E+02  0.11026053346E+02  0.89815472183E+00  0.72461581707E+02  0.70000014867E+02 0.  0.
        -12    1    1    2    0    0 -0.15109540290E+02 -0.11026053346E+02 -0.89815472183E+00  0.18726418293E+02  0.00000000000E+00 0.  1.
         11    1    3    3    0    0  0.10062007552E+02 -0.20348100649E+02  0.12045954243E+02  0.25698136311E+02  0.51100000000E-03 0.  1.
        -11    1    3    3    0    0  0.15425648378E+02  0.30494110805E+02 -0.12220470041E+02  0.36292992574E+02  0.51100000000E-03 0. -1.
         12    1    3    3    0    0 -0.10378115640E+02  0.88004318923E+00  0.10726705197E+01  0.10470452822E+02  0.00000000000E+00 0. -1.
</event>
<event>
 7    1  0.1874105E-013  0.7246159E+02  0.7816164E-02  0.1226708E+00
        -11   -1    0    0    0    0  0.00000000000E+00  0.00000000000E+00  0.45593999997E+02  0.45594000000E+02  0.51100000000E-03 0. -1.
         11   -1    0    0    0    0 -0.00000000000E+00 -0.00000000000E+00 -0.45593999997E+02  0.45594000000E+02  0.51100000000E-03 0.  1.
    9900012    2    1    2    0    0  0.18109371789E+02 -0.45809708792E+01 -0.13204877948E+01  0.72461592742E+02  0.70000029242E+02 0.  0.
        -12    1    1    2    0    0 -0.18109371789E+02  0.45809708792E+01  0.13204877948E+01  0.18726407258E+02  0.00000000000E+00 0.  1.
         11    1    3    3    0    0 -0.12371593649E+02 -0.28990013566E+02 -0.76728274930E+01  0.32439936776E+02  0.51100000000E-03 0. -1.
        -11    1    3    3    0    0  0.12344146520E+02  0.12631504260E+02  0.49921697129E+01  0.18353599426E+02  0.51100000000E-03 0.  1.
         12    1    3    3    0    0  0.18136818917E+02  0.11777538427E+02  0.13601699853E+01  0.21668056540E+02  0.00000000000E+00 0. -1.
</event>
<event>
 7    1  0.1874105E-013  0.7246148E+02  0.7816164E-02  0.1226708E+00
        -11   -1    0    0    0    0  0.00000000000E+00  0.00000000000E+00  0.45593999997E+02  0.45594000000E+02  0.51100000000E-03 0.  1.
         11   -1    0    0    0    0 -0.00000000000E+00 -0.00000000000E+00 -0.45593999997E+02  0.45594000000E+02  0.51100000000E-03 0. -1.
    9900012    2    1    2    0    0 -0.12976393640E+02  0.54526436586E+01 -0.12351704537E+02  0.72461475503E+02  0.69999876517E+02 0.  0.
        -12    1    1    2    0    0  0.12976393640E+02 -0.54526436586E+01  0.12351704537E+02  0.18726524497E+02  0.00000000000E+00 0.  1.
         11    1    3    3    0    0 -0.93250052902E+01  0.14312778764E+02 -0.19957682649E+02  0.26270143825E+02  0.51100000000E-03 0. -1.
        -11    1    3    3    0    0 -0.60552182693E+01 -0.26310807930E+02 -0.13505086740E-01  0.26998601165E+02  0.51100000000E-03 0.  1.
         12    1    3    3    0    0  0.24038299197E+01  0.17450672825E+02  0.76194831988E+01  0.19192730513E+02  0.00000000000E+00 0. -1.
</event>
<event>
 7    1  0.1874105E-013  0.7246156E+02  0.7816164E-02  0.1226708E+00
        -11   -1    0    0    0    0  0.00000000000E+00  0.00000000000E+00  0.45593999997E+02  0.45594000000E+02  0.51100000000E-03 0. -1.
         11   -1    0    0    0    0 -0.00000000000E+00 -0.00000000000E+00 -0.45593999997E+02  0.45594000000E+02  0.51100000000E-03 0.  1.
    9900012    2    1    2    0    0  0.34264863912E+01  0.58359673063E+01  0.17460821404E+02  0.72461558600E+02  0.69999984766E+02 0.  0.
        -12    1    1    2    0    0 -0.34264863912E+01 -0.58359673063E+01 -0.17460821404E+02  0.18726441400E+02  0.00000000000E+00 0.  1.
         11    1    3    3    0    0  0.10090314878E+02 -0.71283339082E+01  0.15256220763E+01  0.12448097109E+02  0.51100000000E-03 0. -1.
        -11    1    3    3    0    0 -0.16315230555E+02  0.66136127348E+01 -0.17388114621E+02  0.24744153892E+02  0.51100000000E-03 0.  1.
        -12    1    3    3    0    0  0.96514020686E+01  0.63506884798E+01  0.33323313949E+02  0.35269307600E+02  0.00000000000E+00 0.  1.
</event>
<event>
 7    1  0.1874105E-013  0.7246156E+02  0.7816164E-02  0.1226708E+00
        -11   -1    0    0    0    0  0.00000000000E+00  0.00000000000E+00  0.45593999997E+02  0.45594000000E+02  0.51100000000E-03 0. -1.
         11   -1    0    0    0    0 -0.00000000000E+00 -0.00000000000E+00 -0.45593999997E+02  0.45594000000E+02  0.51100000000E-03 0.  1.
    9900012    2    1    2    0    0  0.15721170125E+02  0.17824022684E+01  0.10017355639E+02  0.72461559816E+02  0.69999986350E+02 0.  0.
        -12    1    1    2    0    0 -0.15721170125E+02 -0.17824022684E+01 -0.10017355639E+02  0.18726440184E+02  0.00000000000E+00 0.  1.
         11    1    3    3    0    0  0.11809409003E+02 -0.24763498272E+02  0.18938835738E+02  0.33337253742E+02  0.51100000000E-03 0. -1.
        -11    1    3    3    0    0 -0.96527667430E+01  0.11951707546E+02 -0.11281904721E+02  0.19060445783E+02  0.51100000000E-03 0.  1.
         12    1    3    3    0    0  0.13564527865E+02  0.14594192995E+02  0.23604246226E+01  0.20063860291E+02  0.00000000000E+00 0. -1.
</event>
<event>
 7    1  0.1874105E-013  0.7246157E+02  0.7816164E-02  0.1226708E+00
        -11   -1    0    0    0    0  0.00000000000E+00  0.00000000000E+00  0.45593999997E+02  0.45594000000E+02  0.51100000000E-03 0. -1.
         11   -1    0    0    0    0 -0.00000000000E+00 -0.00000000000E+00 -0.45593999997E+02  0.45594000000E+02  0.51100000000E-03 0.  1.
    9900012    2    1    2    0    0  0.18597027343E+02 -0.17073425077E+01  0.13837228042E+01  0.72461571263E+02  0.70000001262E+02 0.  0.
        -12    1    1    2    0    0 -0.18597027343E+02  0.17073425077E+01 -0.13837228042E+01  0.18726428737E+02  0.00000000000E+00 0.  1.
         11    1    3    3    0    0  0.21175884301E+02  0.12035175313E+02  0.10361132540E+02  0.26469162974E+02  0.51100000000E-03 0. -1.
        -11    1    3    3    0    0 -0.17277083066E+02 -0.11285016246E+02 -0.18985805989E+02  0.28041220021E+02  0.51100000000E-03 0.  1.
        -12    1    3    3    0    0  0.14698226108E+02 -0.24575015749E+01  0.10008396253E+02  0.17951188269E+02  0.00000000000E+00 0.  1.
</event>
<event>
 7    1  0.1874105E-013  0.7246154E+02  0.7816164E-02  0.1226708E+00
        -11   -1    0    0    0    0  0.00000000000E+00  0.00000000000E+00  0.45593999997E+02  0.45594000000E+02  0.51100000000E-03 0. -1.
         11   -1    0    0    0    0 -0.00000000000E+00 -0.00000000000E+00 -0.45593999997E+02  0.45594000000E+02  0.51100000000E-03 0.  1.
    9900012    2    1    2    0    0  0.59638048396E+01  0.11746135067E+02  0.13309461695E+02  0.72461536698E+02  0.69999956235E+02 0.  0.
        -12    1    1    2    0    0 -0.59638048396E+01 -0.11746135067E+02 -0.13309461695E+02  0.18726463302E+02  0.00000000000E+00 0.  1.
         11    1    3    3    0    0 -0.11758265965E+02 -0.88014474815E+01 -0.16384595833E-02  0.14687487846E+02  0.51100000000E-03 0. -1.
        -11    1    3    3    0    0  0.30496192168E+02 -0.89682582340E+00  0.11982025999E+02  0.32777903847E+02  0.51100000000E-03 0.  1.
        -12    1    3    3    0    0 -0.12774121363E+02  0.21444408372E+02  0.13290741562E+01  0.24996145005E+02  0.00000000000E+00 0.  1.
</event>
<event>
 7    1  0.1874105E-013  0.7246172E+02  0.7816164E-02  0.1226708E+00
        -11   -1    0    0    0    0  0.00000000000E+00  0.00000000000E+00  0.45593999997E+02  0.45594000000E+02  0.51100000000E-03 0. -1.
         11   -1    0    0    0    0 -0.00000000000E+00 -0.00000000000E+00 -0.45593999997E+02  0.45594000000E+02  0.51100000000E-03 0.  1.
    9900012    2    1    2    0    0 -0.14618549614E+02 -0.75914311713E+01  0.89073996212E+01  0.72461719321E+02  0.70000194135E+02 0.  0.
        -12    1    1    2    0    0  0.14618549614E+02  0.75914311713E+01 -0.89073996212E+01  0.18726280679E+02  0.00000000000E+00 0.  1.
         11    1    3    3    0    0 -0.19234265150E+02 -0.16680570033E+02  0.35108880905E+02  0.43368558785E+02  0.51100000000E-03 0. -1.
        -11    1    3    3    0    0  0.33016269549E+01  0.65949352216E+00 -0.35708752464E+01  0.49078327744E+01  0.51100000000E-03 0.  1.
         12    1    3    3    0    0  0.13140885809E+01  0.84296453393E+01 -0.22630606037E+02  0.24185327762E+02  0.00000000000E+00 0. -1.
</event>
<event>
 7    1  0.1874105E-013  0.7246163E+02  0.7816164E-02  0.1226708E+00
        -11   -1    0    0    0    0  0.00000000000E+00  0.00000000000E+00  0.45593999997E+02  0.45594000000E+02  0.51100000000E-03 0. -1.
         11   -1    0    0    0    0 -0.00000000000E+00 -0.00000000000E+00 -0.45593999997E+02  0.45594000000E+02  0.51100000000E-03 0.  1.
    9900012    2    1    2    0    0 -0.57518375416E+01 -0.16235470599E+02  0.73486687412E+01  0.72461626274E+02  0.70000072924E+02 0.  0.
        -12    1    1    2    0    0  0.57518375416E+01  0.16235470599E+02 -0.73486687412E+01  0.18726373726E+02  0.00000000000E+00 0.  1.
         11    1    3    3    0    0 -0.18984849866E+02  0.16819891646E+02 -0.11969252793E+02  0.28046324039E+02  0.51100000000E-03 0.  1.
        -11    1    3    3    0    0  0.34754440652E+01 -0.27584383124E+02  0.18071147331E+02  0.33159361724E+02  0.51100000000E-03 0. -1.
        -12    1    3    3    0    0  0.97575682591E+01 -0.54709791207E+01  0.12467742033E+01  0.11255940511E+02  0.00000000000E+00 0.  1.
</event>
<event>
 7    1  0.1874105E-013  0.7246161E+02  0.7816164E-02  0.1226708E+00
        -11   -1    0    0    0    0  0.00000000000E+00  0.00000000000E+00  0.45593999997E+02  0.45594000000E+02  0.51100000000E-03 0.  1.
         11   -1    0    0    0    0 -0.00000000000E+00 -0.00000000000E+00 -0.45593999997E+02  0.45594000000E+02  0.51100000000E-03 0. -1.
    9900012    2    1    2    0    0 -0.24491287809E+01  0.89781146427E+01 -0.16250318259E+02  0.72461611725E+02  0.70000053971E+02 0.  0.
        -12    1    1    2    0    0  0.24491287809E+01 -0.89781146427E+01  0.16250318259E+02  0.18726388275E+02  0.00000000000E+00 0.  1.
         11    1    3    3    0    0 -0.16174994704E+02 -0.51461361597E+00 -0.32020068240E+02  0.35877291581E+02  0.51100000000E-03 0. -1.
        -11    1    3    3    0    0 -0.27448183714E+01  0.73494251695E+01  0.18180267931E+02  0.19800763130E+02  0.51100000000E-03 0.  1.
        -12    1    3    3    0    0  0.16470684294E+02  0.21433030891E+01 -0.24105179499E+01  0.16783557014E+02  0.00000000000E+00 0.  1.
</event>
<event>
 7    1  0.1874105E-013  0.7246158E+02  0.7816164E-02  0.1226708E+00
        -11   -1    0    0    0    0  0.00000000000E+00  0.00000000000E+00  0.45593999997E+02  0.45594000000E+02  0.51100000000E-03 0. -1.
         11   -1    0    0    0    0 -0.00000000000E+00 -0.00000000000E+00 -0.45593999997E+02  0.45594000000E+02  0.51100000000E-03 0.  1.
    9900012    2    1    2    0    0  0.52282658081E+01  0.13509918258E+01  0.17930942750E+02  0.72461584161E+02  0.70000018063E+02 0.  0.
        -12    1    1    2    0    0 -0.52282658081E+01 -0.13509918258E+01 -0.17930942750E+02  0.18726415839E+02  0.00000000000E+00 0.  1.
         11    1    3    3    0    0  0.14689152344E+02  0.88108963438E+00 -0.16682035482E+02  0.22244950520E+02  0.51100000000E-03 0. -1.
        -11    1    3    3    0    0  0.13010936430E+01 -0.98226261445E+01  0.33888729357E+02  0.35307546031E+02  0.51100000000E-03 0.  1.
        -12    1    3    3    0    0 -0.10761980179E+02  0.10292528336E+02  0.72424887543E+00  0.14909087610E+02  0.00000000000E+00 0.  1.
</event>
<event>
 7    1  0.1874105E-013  0.7246163E+02  0.7816164E-02  0.1226708E+00
        -11   -1    0    0    0    0  0.00000000000E+00  0.00000000000E+00  0.45593999997E+02  0.45594000000E+02  0.51100000000E-03 0.  1.
         11   -1    0    0    0    0 -0.00000000000E+00 -0.00000000000E+00 -0.45593999997E+02  0.45594000000E+02  0.51100000000E-03 0. -1.
    9900012    2    1    2    0    0 -0.11960203118E+02  0.13851096239E+02  0.39721130235E+01  0.72461628020E+02  0.70000075199E+02 0.  0.
        -12    1    1    2    0    0  0.11960203118E+02 -0.13851096239E+02 -0.39721130235E+01  0.18726371980E+02  0.00000000000E+00 0.  1.
         11    1    3    3    0    0  0.74296367463E+01 -0.13695382780E+02 -0.14666280487E+02  0.21397728741E+02  0.51100000000E-03 0. -1.
        -11    1    3    3    0    0 -0.39364998680E+01  0.30724917911E+02  0.78629683095E+01  0.31958455576E+02  0.51100000000E-03 0.  1.
        -12    1    3    3    0    0 -0.15453339997E+02 -0.31784388927E+01  0.10775425201E+02  0.19105443704E+02  0.00000000000E+00 0.  1.
</event>
<event>
 7    1  0.1874105E-013  0.7246150E+02  0.7816164E-02  0.1226708E+00
        -11   -1    0    0    0    0  0.00000000000E+00  0.00000000000E+00  0.45593999997E+02  0.45594000000E+02  0.51100000000E-03 0. -1.
         11   -1    0    0    0    0 -0.00000000000E+00 -0.00000000000E+00 -0.45593999997E+02  0.45594000000E+02  0.51100000000E-03 0.  1.
    9900012    2    1    2    0    0  0.17937196161E+02 -0.24025861957E+01  0.48131303374E+01  0.72461504060E+02  0.69999913717E+02 0.  0.
        -12    1    1    2    0    0 -0.17937196161E+02  0.24025861957E+01 -0.48131303374E+01  0.18726495940E+02  0.00000000000E+00 0.  1.
         11    1    3    3    0    0 -0.11067006306E+02 -0.15483719942E+02  0.14329109869E+02  0.23823257580E+02  0.51100000000E-03 0. -1.
        -11    1    3    3    0    0  0.35744806115E+02  0.36365275323E+01 -0.89181078137E+01  0.37019564340E+02  0.51100000000E-03 0.  1.
        -12    1    3    3    0    0 -0.67406036475E+01  0.94446062138E+01 -0.59787171790E+00  0.11618682139E+02  0.00000000000E+00 0.  1.
</event>
<event>
 7    1  0.1874105E-013  0.7246155E+02  0.7816164E-02  0.1226708E+00
        -11   -1    0    0    0    0  0.00000000000E+00  0.00000000000E+00  0.45593999997E+02  0.45594000000E+02  0.51100000000E-03 0. -1.
         11   -1    0    0    0    0 -0.00000000000E+00 -0.00000000000E+00 -0.45593999997E+02  0.45594000000E+02  0.51100000000E-03 0.  1.
    9900012    2    1    2    0    0  0.47182484576E+01  0.24437848884E+01  0.17956785052E+02  0.72461545918E+02  0.69999968245E+02 0.  0.
        -12    1    1    2    0    0 -0.47182484576E+01 -0.24437848884E+01 -0.17956785052E+02  0.18726454082E+02  0.00000000000E+00 0.  1.
         11    1    3    3    0    0  0.25852612876E+01  0.10732853953E+02  0.35120505908E+02  0.36814775096E+02  0.51100000000E-03 0. -1.
        -11    1    3    3    0    0 -0.11966115062E+02 -0.41831836566E+01 -0.16685050075E+02  0.20954184104E+02  0.51100000000E-03 0.  1.
        -12    1    3    3    0    0  0.14099102232E+02 -0.41058854084E+01 -0.47867078005E+00  0.14692586718E+02  0.00000000000E+00 0.  1.
</event>
<event>
 7    1  0.1874105E-013  0.7246162E+02  0.7816164E-02  0.1226708E+00
        -11   -1    0    0    0    0  0.00000000000E+00  0.00000000000E+00  0.45593999997E+02  0.45594000000E+02  0.51100000000E-03 0.  1.
         11   -1    0    0    0    0 -0.00000000000E+00 -0.00000000000E+00 -0.45593999997E+02  0.45594000000E+02  0.51100000000E-03 0. -1.
    9900012    2    1    2    0    0 -0.13665538088E+02  0.22230465617E+01 -0.12609062592E+02  0.72461619498E+02  0.70000064097E+02 0.  0.
        -12    1    1    2    0    0  0.13665538088E+02 -0.22230465617E+01  0.12609062592E+02  0.18726380502E+02  0.00000000000E+00 0.  1.
         11    1    3    3    0    0 -0.10045575706E+02  0.11765511029E+02  0.10919820403E+02  0.18936296336E+02  0.51100000000E-03 0. -1.
        -11    1    3    3    0    0 -0.12177764414E+02 -0.16200299501E+02 -0.33265191264E+02  0.38952799644E+02  0.51100000000E-03 0.  1.
        -12    1    3    3    0    0  0.85578020321E+01  0.66578350334E+01  0.97363082689E+01  0.14572523517E+02  0.00000000000E+00 0.  1.
</event>
<event>
 7    1  0.1874105E-013  0.7246157E+02  0.7816164E-02  0.1226708E+00
        -11   -1    0    0    0    0  0.00000000000E+00  0.00000000000E+00  0.45593999997E+02  0.45594000000E+02  0.51100000000E-03 0. -1.
         11   -1    0    0    0    0 -0.00000000000E+00 -0.00000000000E+00 -0.45593999997E+02  0.45594000000E+02  0.51100000000E-03 0.  1.
    9900012    2    1    2    0    0  0.53488351224E+01 -0.66348510702E+01  0.16674772934E+02  0.72461565789E+02  0.69999994130E+02 0.  0.
        -12    1    1    2    0    0 -0.53488351224E+01  0.66348510702E+01 -0.16674772934E+02  0.18726434211E+02  0.00000000000E+00 0.  1.
         11    1    3    3    0    0  0.60155721079E+01 -0.21518488238E+02  0.19918219282E+02  0.29932722955E+02  0.51100000000E-03 0. -1.
        -11    1    3    3    0    0  0.19275421673E+02  0.89110960591E+01  0.10968069180E+01  0.21263877805E+02  0.51100000000E-03 0.  1.
        -12    1    3    3    0    0 -0.19942158658E+02  0.59725411090E+01 -0.43402532669E+01  0.21264965029E+02  0.00000000000E+00 0.  1.
</event>
<event>
 7    1  0.1874105E-013  0.7246159E+02  0.7816164E-02  0.1226708E+00
        -11   -1    0    0    0    0  0.00000000000E+00  0.00000000000E+00  0.45593999997E+02  0.45594000000E+02  0.51100000000E-03 0. -1.
         11   -1    0    0    0    0 -0.00000000000E+00 -0.00000000000E+00 -0.45593999997E+02  0.45594000000E+02  0.51100000000E-03 0.  1.
    9900012    2    1    2    0    0  0.18294844609E+02  0.12728093325E+01  0.37890622401E+01  0.72461591494E+02  0.70000027617E+02 0.  0.
        -12    1    1    2    0    0 -0.18294844609E+02 -0.12728093325E+01 -0.37890622401E+01  0.18726408506E+02  0.00000000000E+00 0.  1.
         11    1    3    3    0    0  0.19723532421E+02 -0.24400628506E+02  0.16002523952E+02  0.35220578868E+02  0.51100000000E-03 0. -1.
        -11    1    3    3    0    0 -0.79716455143E+01  0.12481856463E+01 -0.84368144543E+01  0.11674114014E+02  0.51100000000E-03 0.  1.
         12    1    3    3    0    0  0.65429577020E+01  0.24425252192E+02 -0.37766472577E+01  0.25566898613E+02  0.00000000000E+00 0. -1.
</event>
<event>
 7    1  0.1874105E-013  0.7246159E+02  0.7816164E-02  0.1226708E+00
        -11   -1    0    0    0    0  0.00000000000E+00  0.00000000000E+00  0.45593999997E+02  0.45594000000E+02  0.51100000000E-03 0. -1.
         11   -1    0    0    0    0 -0.00000000000E+00 -0.00000000000E+00 -0.45593999997E+02  0.45594000000E+02  0.51100000000E-03 0.  1.
    9900012    2    1    2    0    0 -0.65658498176E+01 -0.24652082710E+01  0.17363494773E+02  0.72461585864E+02  0.70000020283E+02 0.  0.
        -12    1    1    2    0    0  0.65658498176E+01  0.24652082710E+01 -0.17363494773E+02  0.18726414136E+02  0.00000000000E+00 0.  1.
         11    1    3    3    0    0 -0.11297439600E+02 -0.32454342568E+01  0.16193835589E+02  0.20010129844E+02  0.51100000000E-03 0. -1.
        -11    1    3    3    0    0  0.15569531447E+02  0.44748012769E+01 -0.21579290722E+02  0.26983327154E+02  0.51100000000E-03 0.  1.
        -12    1    3    3    0    0 -0.10837941665E+02 -0.36945752910E+01  0.22748949906E+02  0.25468128866E+02  0.00000000000E+00 0.  1.
</event>
<event>
 7    1  0.1874105E-013  0.7246171E+02  0.7816164E-02  0.1226708E+00
        -11   -1    0    0    0    0  0.00000000000E+00  0.00000000000E+00  0.45593999997E+02  0.45594000000E+02  0.51100000000E-03 0.  1.
         11   -1    0    0    0    0 -0.00000000000E+00 -0.00000000000E+00 -0.45593999997E+02  0.45594000000E+02  0.51100000000E-03 0. -1.
    9900012    2    1    2    0    0 -0.64270949882E+01 -0.15668484704E+02 -0.79915635777E+01  0.72461706952E+02  0.70000178022E+02 0.  0.
        -12    1    1    2    0    0  0.64270949882E+01  0.15668484704E+02  0.79915635777E+01  0.18726293048E+02  0.00000000000E+00 0.  1.
         11    1    3    3    0    0 -0.21205768730E+02  0.16631034930E+02 -0.11845983520E+02  0.29438126232E+02  0.51100000000E-03 0. -1.
        -11    1    3    3    0    0  0.92649785511E+01 -0.25462742019E+02 -0.80162578879E+01  0.28256883223E+02  0.51100000000E-03 0.  1.
        -12    1    3    3    0    0  0.55136951905E+01 -0.68367776138E+01  0.11870677831E+02  0.14766697496E+02  0.00000000000E+00 0.  1.
</event>
<event>
 7    1  0.1874105E-013  0.7246169E+02  0.7816164E-02  0.1226708E+00
        -11   -1    0    0    0    0  0.00000000000E+00  0.00000000000E+00  0.45593999997E+02  0.45594000000E+02  0.51100000000E-03 0.  1.
         11   -1    0    0    0    0 -0.00000000000E+00 -0.00000000000E+00 -0.45593999997E+02  0.45594000000E+02  0.51100000000E-03 0. -1.
    9900012    2    1    2    0    0 -0.39876459334E+01 -0.13027000308E+02 -0.12847986333E+02  0.72461686697E+02  0.70000151636E+02 0.  0.
        -12    1    1    2    0    0  0.39876459334E+01  0.13027000308E+02  0.12847986333E+02  0.18726313303E+02  0.00000000000E+00 0.  1.
         11    1    3    3    0    0 -0.15375974865E+02  0.21198739107E+02 -0.45777757815E+01  0.26585017852E+02  0.51100000000E-03 0. -1.
        -11    1    3    3    0    0  0.18651867257E+02 -0.23394318408E+02  0.90118444759E+00  0.29933232696E+02  0.51100000000E-03 0.  1.
        -12    1    3    3    0    0 -0.72635383247E+01 -0.10831421007E+02 -0.91713949995E+01  0.15943436150E+02  0.00000000000E+00 0.  1.
</event>
<event>
 7    1  0.1874105E-013  0.7246158E+02  0.7816164E-02  0.1226708E+00
        -11   -1    0    0    0    0  0.00000000000E+00  0.00000000000E+00  0.45593999997E+02  0.45594000000E+02  0.51100000000E-03 0.  1.
         11   -1    0    0    0    0 -0.00000000000E+00 -0.00000000000E+00 -0.45593999997E+02  0.45594000000E+02  0.51100000000E-03 0. -1.
    9900012    2    1    2    0    0 -0.10020986729E+02  0.51900575825E+01 -0.14943965133E+02  0.72461575712E+02  0.70000007058E+02 0.  0.
        -12    1    1    2    0    0  0.10020986729E+02 -0.51900575825E+01  0.14943965133E+02  0.18726424288E+02  0.00000000000E+00 0.  1.
         11    1    3    3    0    0  0.39844418400E+01  0.10890185789E+01 -0.38580677326E+02  0.38801164949E+02  0.51100000000E-03 0.  1.
        -11    1    3    3    0    0 -0.64870522424E+01  0.11502354245E+02  0.10909583837E+02  0.17129069435E+02  0.51100000000E-03 0. -1.
        -12    1    3    3    0    0 -0.75183763262E+01 -0.74013152412E+01  0.12727128356E+02  0.16531341327E+02  0.00000000000E+00 0.  1.
</event>
<event>
 7    1  0.1874105E-013  0.7246158E+02  0.7816164E-02  0.1226708E+00
        -11   -1    0    0    0    0  0.00000000000E+00  0.00000000000E+00  0.45593999997E+02  0.45594000000E+02  0.51100000000E-03 0.  1.
         11   -1    0    0    0    0 -0.00000000000E+00 -0.00000000000E+00 -0.45593999997E+02  0.45594000000E+02  0.51100000000E-03 0. -1.
    9900012    2    1    2    0    0  0.17776434357E+02 -0.44890464413E+01 -0.38112772557E+01  0.72461575068E+02  0.70000006219E+02 0.  0.
        -12    1    1    2    0    0 -0.17776434357E+02  0.44890464413E+01  0.38112772557E+01  0.18726424932E+02  0.00000000000E+00 0.  1.
         11    1    3    3    0    0  0.78823639371E+01 -0.36999901636E+02 -0.36099636253E+01  0.38002055470E+02  0.51100000000E-03 0. -1.
        -11    1    3    3    0    0  0.57557396034E+01  0.17254392105E+02 -0.29129855772E+01  0.18420859657E+02  0.51100000000E-03 0.  1.
         12    1    3    3    0    0  0.41383308168E+01  0.15256463090E+02  0.27116719469E+01  0.16038659941E+02  0.00000000000E+00 0. -1.
</event>
<event>
 7    1  0.1874105E-013  0.7246155E+02  0.7816164E-02  0.1226708E+00
        -11   -1    0    0    0    0  0.00000000000E+00  0.00000000000E+00  0.45593999997E+02  0.45594000000E+02  0.51100000000E-03 0. -1.
         11   -1    0    0    0    0 -0.00000000000E+00 -0.00000000000E+00 -0.45593999997E+02  0.45594000000E+02  0.51100000000E-03 0.  1.
    9900012    2    1    2    0    0 -0.81101994116E+01  0.90904259999E+01  0.14222116365E+02  0.72461554174E+02  0.69999979001E+02 0.  0.
        -12    1    1    2    0    0  0.81101994116E+01 -0.90904259999E+01 -0.14222116365E+02  0.18726445826E+02  0.00000000000E+00 0.  1.
         11    1    3    3    0    0  0.20223539292E+02  0.23506971327E+01 -0.37890079485E+01  0.20709270870E+02  0.51100000000E-03 0. -1.
        -11    1    3    3    0    0 -0.26259191048E+02 -0.10692480294E+02  0.27405948304E+01  0.28484822443E+02  0.51100000000E-03 0.  1.
        -12    1    3    3    0    0 -0.20745476548E+01  0.17432209161E+02  0.15270529483E+02  0.23267460861E+02  0.00000000000E+00 0.  1.
</event>
<event>
 7    1  0.1924996E-013  0.7246157E+02  0.7816164E-02  0.1226708E+00
        -11   -1    0    0    0    0  0.00000000000E+00  0.00000000000E+00  0.45593999997E+02  0.45594000000E+02  0.51100000000E-03 0.  1.
         11   -1    0    0    0    0 -0.00000000000E+00 -0.00000000000E+00 -0.45593999997E+02  0.45594000000E+02  0.51100000000E-03 0. -1.
    9900012    2    1    2    0    0  0.17872339430E+02  0.17649711780E+01 -0.53050377462E+01  0.72461573074E+02  0.70000003620E+02 0.  0.
        -12    1    1    2    0    0 -0.17872339430E+02 -0.17649711780E+01  0.53050377462E+01  0.18726426926E+02  0.00000000000E+00 0.  1.
         11    1    3    3    0    0  0.27080937670E+02  0.65376112708E+01 -0.96112178384E+01  0.29470206222E+02  0.51100000000E-03 0. -1.
        -11    1    3    3    0    0 -0.51511697891E+01  0.38614581629E+00  0.22794591616E+02  0.23372570804E+02  0.51100000000E-03 0.  1.
         12    1    3    3    0    0 -0.40574284510E+01 -0.51587859091E+01 -0.18488411524E+02  0.19618796047E+02  0.00000000000E+00 0. -1.
</event>
<event>
 7    1  0.1874105E-013  0.7246161E+02  0.7816164E-02  0.1226708E+00
        -11   -1    0    0    0    0  0.00000000000E+00  0.00000000000E+00  0.45593999997E+02  0.45594000000E+02  0.51100000000E-03 0.  1.
         11   -1    0    0    0    0 -0.00000000000E+00 -0.00000000000E+00 -0.45593999997E+02  0.45594000000E+02  0.51100000000E-03 0. -1.
    9900012    2    1    2    0    0  0.19382376763E+01  0.16810185673E+02 -0.80211394708E+01  0.72461607233E+02  0.70000048119E+02 0.  0.
        -12    1    1    2    0    0 -0.19382376763E+01 -0.16810185673E+02  0.80211394708E+01  0.18726392767E+02  0.00000000000E+00 0.  1.
         11    1    3    3    0    0  0.39275977780E+01 -0.12058553684E+02 -0.57792627297E+01  0.13936808072E+02  0.51100000000E-03 0. -1.
        -11    1    3    3    0    0  0.53951538705E+01  0.36830332887E+02 -0.16404854214E+02  0.40678008160E+02  0.51100000000E-03 0.  1.
        -12    1    3    3    0    0 -0.73845139721E+01 -0.79615935290E+01  0.14162977473E+02  0.17846791001E+02  0.00000000000E+00 0.  1.
</event>
<event>
 7    1  0.1874105E-013  0.7246159E+02  0.7816164E-02  0.1226708E+00
        -11   -1    0    0    0    0  0.00000000000E+00  0.00000000000E+00  0.45593999997E+02  0.45594000000E+02  0.51100000000E-03 0.  1.
         11   -1    0    0    0    0 -0.00000000000E+00 -0.00000000000E+00 -0.45593999997E+02  0.45594000000E+02  0.51100000000E-03 0. -1.
    9900012    2    1    2    0    0 -0.39158002780E+01 -0.17810704402E+02 -0.42572085656E+01  0.72461587960E+02  0.70000023013E+02 0.  0.
        -12    1    1    2    0    0  0.39158002780E+01  0.17810704402E+02  0.42572085656E+01  0.18726412040E+02  0.00000000000E+00 0.  1.
         11    1    3    3    0    0 -0.42933029777E+00  0.17733203760E+01 -0.33816061482E+01  0.38424276263E+01  0.51100000000E-03 0. -1.
        -11    1    3    3    0    0  0.50345339340E+00 -0.28483518079E+01  0.31672155750E+02  0.31803962386E+02  0.51100000000E-03 0.  1.
        -12    1    3    3    0    0 -0.39899233737E+01 -0.16735672970E+02 -0.32547758167E+02  0.36815197948E+02  0.00000000000E+00 0.  1.
</event>
<event>
 7    1  0.1874105E-013  0.7246146E+02  0.7816164E-02  0.1226708E+00
        -11   -1    0    0    0    0  0.00000000000E+00  0.00000000000E+00  0.45593999997E+02  0.45594000000E+02  0.51100000000E-03 0.  1.
         11   -1    0    0    0    0 -0.00000000000E+00 -0.00000000000E+00 -0.45593999997E+02  0.45594000000E+02  0.51100000000E-03 0. -1.
    9900012    2    1    2    0    0  0.13647556137E+01  0.13718471562E+02 -0.12673759497E+02  0.72461462689E+02  0.69999859824E+02 0.  0.
        -12    1    1    2    0    0 -0.13647556137E+01 -0.13718471562E+02  0.12673759497E+02  0.18726537311E+02  0.00000000000E+00 0.  1.
         11    1    3    3    0    0 -0.24000730836E+02  0.13695331662E+02  0.74752620405E+01  0.28626504027E+02  0.51100000000E-03 0. -1.
        -11    1    3    3    0    0  0.25710589049E+02 -0.13957885850E+01 -0.22171547082E+01  0.25843730193E+02  0.51100000000E-03 0.  1.
         12    1    3    3    0    0 -0.34510259924E+00  0.14189284850E+01 -0.17931866829E+02  0.17991228469E+02  0.00000000000E+00 0. -1.
</event>
<event>
 7    1  0.1874105E-013  0.7246139E+02  0.7816164E-02  0.1226708E+00
        -11   -1    0    0    0    0  0.00000000000E+00  0.00000000000E+00  0.45593999997E+02  0.45594000000E+02  0.51100000000E-03 0.  1.
         11   -1    0    0    0    0 -0.00000000000E+00 -0.00000000000E+00 -0.45593999997E+02  0.45594000000E+02  0.51100000000E-03 0. -1.
    9900012    2    1    2    0    0 -0.25866495961E+01 -0.71113902925E+01 -0.17129598691E+02  0.72461393812E+02  0.69999770099E+02 0.  0.
        -12    1    1    2    0    0  0.25866495961E+01  0.71113902925E+01  0.17129598691E+02  0.18726606188E+02  0.00000000000E+00 0.  1.
         11    1    3    3    0    0  0.14388891344E+02 -0.16868784533E+02 -0.11262145910E+01  0.22200550563E+02  0.51100000000E-03 0. -1.
        -11    1    3    3    0    0 -0.27142507090E+02 -0.61470917185E+01 -0.14351069580E+02  0.31312228060E+02  0.51100000000E-03 0.  1.
        -12    1    3    3    0    0  0.10166966150E+02  0.15904485959E+02 -0.16523145198E+01  0.18948615189E+02  0.00000000000E+00 0.  1.
</event>
<event>
 7    1  0.1874105E-013  0.7246150E+02  0.7816164E-02  0.1226708E+00
        -11   -1    0    0    0    0  0.00000000000E+00  0.00000000000E+00  0.45593999997E+02  0.45594000000E+02  0.51100000000E-03 0.  1.
         11   -1    0    0    0    0 -0.00000000000E+00 -0.00000000000E+00 -0.45593999997E+02  0.45594000000E+02  0.51100000000E-03 0. -1.
    9900012    2    1    2    0    0  0.17294346951E+02  0.20125619306E+01  0.68947128693E+01  0.72461497189E+02  0.69999904767E+02 0.  0.
        -12    1    1    2    0    0 -0.17294346951E+02 -0.20125619306E+01 -0.68947128693E+01  0.18726502811E+02  0.00000000000E+00 0.  1.
         11    1    3    3    0    0  0.13697690172E+02  0.74631105864E+01 -0.20948446111E+02  0.26118233677E+02  0.51100000000E-03 0. -1.
        -11    1    3    3    0    0 -0.82016916046E+01  0.95912048610E+01  0.23598296862E+02  0.26760765514E+02  0.51100000000E-03 0.  1.
        -12    1    3    3    0    0  0.11798348383E+02 -0.15041753517E+02  0.42448621178E+01  0.19582497998E+02  0.00000000000E+00 0.  1.
</event>
<event>
 7    1  0.1874105E-013  0.7246158E+02  0.7816164E-02  0.1226708E+00
        -11   -1    0    0    0    0  0.00000000000E+00  0.00000000000E+00  0.45593999997E+02  0.45594000000E+02  0.51100000000E-03 0.  1.
         11   -1    0    0    0    0 -0.00000000000E+00 -0.00000000000E+00 -0.45593999997E+02  0.45594000000E+02  0.51100000000E-03 0. -1.
    9900012    2    1    2    0    0  0.16416329209E+02  0.70100636070E+01  0.56605452989E+01  0.72461584712E+02  0.70000018782E+02 0.  0.
        -12    1    1    2    0    0 -0.16416329209E+02 -0.70100636070E+01 -0.56605452989E+01  0.18726415288E+02  0.00000000000E+00 0.  1.
         11    1    3    3    0    0  0.23252135335E+02  0.11025527942E+02 -0.37562467592E+01  0.26006411786E+02  0.51100000000E-03 0. -1.
        -11    1    3    3    0    0 -0.23688308979E+02  0.77067589761E+01  0.62648691454E+01  0.25686157787E+02  0.51100000000E-03 0.  1.
        -12    1    3    3    0    0  0.16852502853E+02 -0.11722223311E+02  0.31519229127E+01  0.20769015138E+02  0.00000000000E+00 0.  1.
</event>
<event>
 7    1  0.1874105E-013  0.7246139E+02  0.7816164E-02  0.1226709E+00
        -11   -1    0    0    0    0  0.00000000000E+00  0.00000000000E+00  0.45593999997E+02  0.45594000000E+02  0.51100000000E-03 0. -1.
         11   -1    0    0    0    0 -0.00000000000E+00 -0.00000000000E+00 -0.45593999997E+02  0.45594000000E+02  0.51100000000E-03 0.  1.
    9900012    2    1    2    0    0  0.17271723748E+02  0.24217702287E+01  0.68197240757E+01  0.72461386619E+02  0.69999760728E+02 0.  0.
        -12    1    1    2    0    0 -0.17271723748E+02 -0.24217702287E+01 -0.68197240757E+01  0.18726613381E+02  0.00000000000E+00 0.  1.
         11    1    3    3    0    0  0.50297139808E+01 -0.31040511377E+02  0.10582344003E+02  0.33178266593E+02  0.51100000000E-03 0. -1.
        -11    1    3    3    0    0  0.10345876777E+02  0.94059406645E+01 -0.56447873577E+01  0.15078876306E+02  0.51100000000E-03 0.  1.
         12    1    3    3    0    0  0.18961329897E+01  0.24056340941E+02  0.18821674307E+01  0.24204243719E+02  0.00000000000E+00 0. -1.
</event>
<event>
 7    1  0.1874105E-013  0.7246153E+02  0.7816164E-02  0.1226708E+00
        -11   -1    0    0    0    0  0.00000000000E+00  0.00000000000E+00  0.45593999997E+02  0.45594000000E+02  0.51100000000E-03 0.  1.
         11   -1    0    0    0    0 -0.00000000000E+00 -0.00000000000E+00 -0.45593999997E+02  0.45594000000E+02  0.51100000000E-03 0. -1.
    9900012    2    1    2    0    0 -0.10492232665E+02  0.15279391063E+01 -0.15435645495E+02  0.72461529536E+02  0.69999946904E+02 0.  0.
        -12    1    1    2    0    0  0.10492232665E+02 -0.15279391063E+01  0.15435645495E+02  0.18726470464E+02  0.00000000000E+00 0.  1.
         11    1    3    3    0    0 -0.33003776824E+01 -0.11447460834E+02 -0.27508167620E+02  0.29977260356E+02  0.51100000000E-03 0. -1.
        -11    1    3    3    0    0 -0.32732433490E+01  0.26224932043E+02  0.47668879647E+01  0.26854876723E+02  0.51100000000E-03 0.  1.
        -12    1    3    3    0    0 -0.39186116338E+01 -0.13249532102E+02  0.73056341609E+01  0.15629392457E+02  0.00000000000E+00 0.  1.
</event>
<event>
 7    1  0.1874105E-013  0.7246159E+02  0.7816164E-02  0.1226708E+00
        -11   -1    0    0    0    0  0.00000000000E+00  0.00000000000E+00  0.45593999997E+02  0.45594000000E+02  0.51100000000E-03 0.  1.
         11   -1    0    0    0    0 -0.00000000000E+00 -0.00000000000E+00 -0.45593999997E+02  0.45594000000E+02  0.51100000000E-03 0. -1.
    9900012    2    1    2    0    0  0.60036316784E+01 -0.16131351574E+02 -0.73766029605E+01  0.72461591691E+02  0.70000027873E+02 0.  0.
        -12    1    1    2    0    0 -0.60036316784E+01  0.16131351574E+02  0.73766029605E+01  0.18726408309E+02  0.00000000000E+00 0.  1.
         11    1    3    3    0    0  0.29863608589E+02 -0.19382832714E+02 -0.18020207692E+02  0.39903097719E+02  0.51100000000E-03 0. -1.
        -11    1    3    3    0    0 -0.50857109845E+01  0.87552269473E+00  0.12519847811E+02  0.13541698035E+02  0.51100000000E-03 0.  1.
         12    1    3    3    0    0 -0.18774265926E+02  0.23759584455E+01 -0.18762430792E+01  0.19016795937E+02  0.00000000000E+00 0. -1.
</event>
<event>
 7    1  0.1874105E-013  0.7246157E+02  0.7816164E-02  0.1226708E+00
        -11   -1    0    0    0    0  0.00000000000E+00  0.00000000000E+00  0.45593999997E+02  0.45594000000E+02  0.51100000000E-03 0.  1.
         11   -1    0    0    0    0 -0.00000000000E+00 -0.00000000000E+00 -0.45593999997E+02  0.45594000000E+02  0.51100000000E-03 0. -1.
    9900012    2    1    2    0    0 -0.91544979609E+01  0.14691043341E+02 -0.71447588466E+01  0.72461570379E+02  0.70000000110E+02 0.  0.
        -12    1    1    2    0    0  0.91544979609E+01 -0.14691043341E+02  0.71447588466E+01  0.18726429621E+02  0.00000000000E+00 0.  1.
         11    1    3    3    0    0 -0.12913151074E+02  0.81764609991E+01  0.14663884988E+02  0.21180970429E+02  0.51100000000E-03 0.  1.
        -11    1    3    3    0    0  0.17569355567E+02 -0.11792616117E+02 -0.18507701692E+02  0.28111973821E+02  0.51100000000E-03 0. -1.
        -12    1    3    3    0    0 -0.13810702453E+02  0.18307198459E+02 -0.33009421419E+01  0.23168626129E+02  0.00000000000E+00 0.  1.
</event>
<event>
 7    1  0.1874105E-013  0.7246153E+02  0.7816164E-02  0.1226708E+00
        -11   -1    0    0    0    0  0.00000000000E+00  0.00000000000E+00  0.45593999997E+02  0.45594000000E+02  0.51100000000E-03 0.  1.
         11   -1    0    0    0    0 -0.00000000000E+00 -0.00000000000E+00 -0.45593999997E+02  0.45594000000E+02  0.51100000000E-03 0. -1.
    9900012    2    1    2    0    0  0.15040433288E+02  0.10963745496E+02 -0.20645648107E+01  0.72461527384E+02  0.69999944101E+02 0.  0.
        -12    1    1    2    0    0 -0.15040433288E+02 -0.10963745496E+02  0.20645648107E+01  0.18726472616E+02  0.00000000000E+00 0.  1.
         11    1    3    3    0    0  0.17337277993E+02  0.16307774638E+02  0.98334038805E+01  0.25753068827E+02  0.51100000000E-03 0.  1.
        -11    1    3    3    0    0 -0.14937962421E+02 -0.66986722433E+01  0.11550150224E+02  0.20035491049E+02  0.51100000000E-03 0. -1.
         12    1    3    3    0    0  0.12641117715E+02  0.13546431018E+01 -0.23448118915E+02  0.26672967508E+02  0.00000000000E+00 0. -1.
</event>
<event>
 7    1  0.1874105E-013  0.7246154E+02  0.7816164E-02  0.1226708E+00
        -11   -1    0    0    0    0  0.00000000000E+00  0.00000000000E+00  0.45593999997E+02  0.45594000000E+02  0.51100000000E-03 0.  1.
         11   -1    0    0    0    0 -0.00000000000E+00 -0.00000000000E+00 -0.45593999997E+02  0.45594000000E+02  0.51100000000E-03 0. -1.
    9900012    2    1    2    0    0 -0.11329307955E+00 -0.40985984393E+01 -0.18272076519E+02  0.72461544788E+02  0.69999966773E+02 0.  0.
        -12    1    1    2    0    0  0.11329307955E+00  0.40985984393E+01  0.18272076519E+02  0.18726455212E+02  0.00000000000E+00 0.  1.
         11    1    3    3    0    0  0.28421868222E+02 -0.13410788176E+02 -0.54033340817E+01  0.31888051872E+02  0.51100000000E-03 0.  1.
        -11    1    3    3    0    0 -0.29779553874E+02  0.92127606951E+01 -0.37811288231E+01  0.31400537002E+02  0.51100000000E-03 0. -1.
         12    1    3    3    0    0  0.12443925727E+01  0.99429041422E-01 -0.90876136142E+01  0.91729559145E+01  0.00000000000E+00 0. -1.
</event>
<event>
 7    1  0.1874105E-013  0.7246159E+02  0.7816164E-02  0.1226708E+00
        -11   -1    0    0    0    0  0.00000000000E+00  0.00000000000E+00  0.45593999997E+02  0.45594000000E+02  0.51100000000E-03 0.  1.
         11   -1    0    0    0    0 -0.00000000000E+00 -0.00000000000E+00 -0.45593999997E+02  0.45594000000E+02  0.51100000000E-03 0. -1.
    9900012    2    1    2    0    0  0.66373030586E+00  0.18596245693E+01 -0.18622023536E+02  0.72461588117E+02  0.70000023217E+02 0.  0.
        -12    1    1    2    0    0 -0.66373030586E+00 -0.18596245693E+01  0.18622023536E+02  0.18726411883E+02  0.00000000000E+00 0.  1.
         11    1    3    3    0    0 -0.16178853256E+02  0.75085084178E+01 -0.43552390853E+01  0.18360313153E+02  0.51100000000E-03 0. -1.
        -11    1    3    3    0    0  0.34327522215E+02 -0.37262902735E+01 -0.10739704969E+02  0.36160825263E+02  0.51100000000E-03 0.  1.
        -12    1    3    3    0    0 -0.17484938654E+02 -0.19225935750E+01 -0.35270794815E+01  0.17940449700E+02  0.00000000000E+00 0.  1.
</event>
<event>
 7    1  0.1874105E-013  0.7246159E+02  0.7816164E-02  0.1226708E+00
        -11   -1    0    0    0    0  0.00000000000E+00  0.00000000000E+00  0.45593999997E+02  0.45594000000E+02  0.51100000000E-03 0.  1.
         11   -1    0    0    0    0 -0.00000000000E+00 -0.00000000000E+00 -0.45593999997E+02  0.45594000000E+02  0.51100000000E-03 0. -1.
    9900012    2    1    2    0    0  0.15137496742E+02  0.10983578859E+02 -0.94633169096E+00  0.72461592020E+02  0.70000028301E+02 0.  0.
        -12    1    1    2    0    0 -0.15137496742E+02 -0.10983578859E+02  0.94633169096E+00  0.18726407980E+02  0.00000000000E+00 0.  1.
         11    1    3    3    0    0  0.26333682480E+02 -0.67544019751E+01  0.14593425122E+02  0.30855353442E+02  0.51100000000E-03 0. -1.
        -11    1    3    3    0    0 -0.12173300438E+02  0.24809968467E+02 -0.38410325746E+01  0.27901206253E+02  0.51100000000E-03 0.  1.
        -12    1    3    3    0    0  0.97711470049E+00 -0.70719876324E+01 -0.11698724239E+02  0.13705032325E+02  0.00000000000E+00 0.  1.
</event>
<event>
 7    1  0.1874105E-013  0.7246155E+02  0.7816164E-02  0.1226708E+00
        -11   -1    0    0    0    0  0.00000000000E+00  0.00000000000E+00  0.45593999997E+02  0.45594000000E+02  0.51100000000E-03 0. -1.
         11   -1    0    0    0    0 -0.00000000000E+00 -0.00000000000E+00 -0.45593999997E+02  0.45594000000E+02  0.51100000000E-03 0.  1.
    9900012    2    1    2    0    0 -0.26524903203E+00 -0.93314106288E+01  0.16233740015E+02  0.72461550891E+02  0.69999974723E+02 0.  0.
        -12    1    1    2    0    0  0.26524903203E+00  0.93314106288E+01 -0.16233740015E+02  0.18726449109E+02  0.00000000000E+00 0.  1.
         11    1    3    3    0    0  0.15630859704E+02 -0.59044840016E+01  0.28274032190E+02  0.32842161971E+02  0.51100000000E-03 0. -1.
        -11    1    3    3    0    0 -0.11477721229E+02  0.12735942866E+02 -0.14786048681E+02  0.22639999142E+02  0.51100000000E-03 0.  1.
         12    1    3    3    0    0 -0.44183875068E+01 -0.16162869493E+02  0.27457565062E+01  0.16979389777E+02  0.00000000000E+00 0. -1.
</event>
<event>
 7    1  0.1874105E-013  0.7246155E+02  0.7816164E-02  0.1226708E+00
        -11   -1    0    0    0    0  0.00000000000E+00  0.00000000000E+00  0.45593999997E+02  0.45594000000E+02  0.51100000000E-03 0.  1.
         11   -1    0    0    0    0 -0.00000000000E+00 -0.00000000000E+00 -0.45593999997E+02  0.45594000000E+02  0.51100000000E-03 0. -1.
    9900012    2    1    2    0    0  0.12149487331E+02 -0.13544752028E+02 -0.44282908003E+01  0.72461545202E+02  0.69999967312E+02 0.  0.
        -12    1    1    2    0    0 -0.12149487331E+02  0.13544752028E+02  0.44282908003E+01  0.18726454798E+02  0.00000000000E+00 0.  1.
         11    1    3    3    0    0  0.12164712148E+02 -0.14828430271E+02 -0.16931142124E+02  0.25583708484E+02  0.51100000000E-03 0. -1.
        -11    1    3    3    0    0 -0.14048200018E+02  0.35240579981E+01  0.24379777283E+02  0.28357440807E+02  0.51100000000E-03 0.  1.
        -12    1    3    3    0    0  0.14032975200E+02 -0.22403797552E+01 -0.11876925960E+02  0.18520395910E+02  0.00000000000E+00 0.  1.
</event>
<event>
 7    1  0.1874105E-013  0.7246155E+02  0.7816164E-02  0.1226708E+00
        -11   -1    0    0    0    0  0.00000000000E+00  0.00000000000E+00  0.45593999997E+02  0.45594000000E+02  0.51100000000E-03 0.  1.
         11   -1    0    0    0    0 -0.00000000000E+00 -0.00000000000E+00 -0.45593999997E+02  0.45594000000E+02  0.51100000000E-03 0. -1.
    9900012    2    1    2    0    0  0.21880717713E+01  0.16859467670E+02 -0.78517898389E+01  0.72461550473E+02  0.69999974179E+02 0.  0.
        -12    1    1    2    0    0 -0.21880717713E+01 -0.16859467670E+02  0.78517898389E+01  0.18726449527E+02  0.00000000000E+00 0.  1.
         11    1    3    3    0    0 -0.15440382706E+01 -0.12168195622E+02 -0.24486468776E+02  0.27386788644E+02  0.51100000000E-03 0. -1.
        -11    1    3    3    0    0  0.16778774820E+02  0.14716913439E+02  0.11144849986E+02  0.24946392667E+02  0.51100000000E-03 0.  1.
        -12    1    3    3    0    0 -0.13046664779E+02  0.14310749853E+02  0.54898289513E+01  0.20128369162E+02  0.00000000000E+00 0.  1.
</event>
<event>
 7    1  0.1874105E-013  0.7246139E+02  0.7816164E-02  0.1226708E+00
        -11   -1    0    0    0    0  0.00000000000E+00  0.00000000000E+00  0.45593999997E+02  0.45594000000E+02  0.51100000000E-03 0.  1.
         11   -1    0    0    0    0 -0.00000000000E+00 -0.00000000000E+00 -0.45593999997E+02  0.45594000000E+02  0.51100000000E-03 0. -1.
    9900012    2    1    2    0    0 -0.16697888106E+02 -0.71680919964E+01 -0.45260339970E+01  0.72461388085E+02  0.69999762639E+02 0.  0.
        -12    1    1    2    0    0  0.16697888106E+02  0.71680919964E+01  0.45260339970E+01  0.18726611915E+02  0.00000000000E+00 0.  1.
         11    1    3    3    0    0 -0.23466155760E+02  0.56315494970E+01  0.53984142831E+01  0.24728883778E+02  0.51100000000E-03 0. -1.
        -11    1    3    3    0    0  0.21402631099E+02  0.43271337507E+01 -0.12330796151E+02  0.25076786844E+02  0.51100000000E-03 0.  1.
        -12    1    3    3    0    0 -0.14634363444E+02 -0.17126775244E+02  0.24063478710E+01  0.22655717463E+02  0.00000000000E+00 0.  1.
</event>
<event>
 7    1  0.1874105E-013  0.7246159E+02  0.7816164E-02  0.1226708E+00
        -11   -1    0    0    0    0  0.00000000000E+00  0.00000000000E+00  0.45593999997E+02  0.45594000000E+02  0.51100000000E-03 0. -1.
         11   -1    0    0    0    0 -0.00000000000E+00 -0.00000000000E+00 -0.45593999997E+02  0.45594000000E+02  0.51100000000E-03 0.  1.
    9900012    2    1    2    0    0  0.72335294457E+01 -0.12379873280E+01  0.17228519190E+02  0.72461589923E+02  0.70000025570E+02 0.  0.
        -12    1    1    2    0    0 -0.72335294457E+01  0.12379873280E+01 -0.17228519190E+02  0.18726410077E+02  0.00000000000E+00 0.  1.
         11    1    3    3    0    0 -0.59406596559E+01  0.91038685278E+01  0.27974509728E+02  0.30012415000E+02  0.51100000000E-03 0. -1.
        -11    1    3    3    0    0  0.24574359688E+02 -0.29592161352E+01 -0.14063238951E+02  0.28468066395E+02  0.51100000000E-03 0.  1.
         12    1    3    3    0    0 -0.11400170587E+02 -0.73826397206E+01  0.33172484137E+01  0.13981108529E+02  0.00000000000E+00 0. -1.
</event>
<event>
 7    1  0.1874105E-013  0.7246158E+02  0.7816164E-02  0.1226708E+00
        -11   -1    0    0    0    0  0.00000000000E+00  0.00000000000E+00  0.45593999997E+02  0.45594000000E+02  0.51100000000E-03 0. -1.
         11   -1    0    0    0    0 -0.00000000000E+00 -0.00000000000E+00 -0.45593999997E+02  0.45594000000E+02  0.51100000000E-03 0.  1.
    9900012    2    1    2    0    0  0.12211060792E+02  0.86461189076E+01 -0.11261153699E+02  0.72461575876E+02  0.70000007271E+02 0.  0.
        -12    1    1    2    0    0 -0.12211060792E+02 -0.86461189076E+01  0.11261153699E+02  0.18726424124E+02  0.00000000000E+00 0.  1.
         11    1    3    3    0    0 -0.10806925681E+02  0.15227819950E+02 -0.10649868550E+02  0.21496414667E+02  0.51100000000E-03 0. -1.
        -11    1    3    3    0    0  0.17239288391E+02 -0.10755407245E+02 -0.21087262145E+02  0.29283860303E+02  0.51100000000E-03 0.  1.
        -12    1    3    3    0    0  0.57786980826E+01  0.41737062021E+01  0.20475976997E+02  0.21681300906E+02  0.00000000000E+00 0.  1.
</event>
<event>
 7    1  0.2209590E-013  0.7246158E+02  0.7816164E-02  0.1226708E+00
        -11   -1    0    0    0    0  0.00000000000E+00  0.00000000000E+00  0.45593999997E+02  0.45594000000E+02  0.51100000000E-03 0. -1.
         11   -1    0    0    0    0 -0.00000000000E+00 -0.00000000000E+00 -0.45593999997E+02  0.45594000000E+02  0.51100000000E-03 0.  1.
    9900012    2    1    2    0    0  0.75037045422E+01 -0.98265771438E+01  0.14064557432E+02  0.72461575462E+02  0.70000006732E+02 0.  0.
        -12    1    1    2    0    0 -0.75037045422E+01  0.98265771438E+01 -0.14064557432E+02  0.18726424538E+02  0.00000000000E+00 0.  1.
         11    1    3    3    0    0  0.11610076929E+02 -0.27972856973E+02  0.30321574195E+01  0.30437946587E+02  0.51100000000E-03 0. -1.
        -11    1    3    3    0    0  0.41020364909E+01  0.16969689481E+02 -0.95029712393E+01  0.19877211250E+02  0.51100000000E-03 0.  1.
         12    1    3    3    0    0 -0.82084088774E+01  0.11765903485E+01  0.20535371252E+02  0.22146417625E+02  0.00000000000E+00 0. -1.
</event>
<event>
 7    1  0.1874105E-013  0.7246167E+02  0.7816164E-02  0.1226708E+00
        -11   -1    0    0    0    0  0.00000000000E+00  0.00000000000E+00  0.45593999997E+02  0.45594000000E+02  0.51100000000E-03 0. -1.
         11   -1    0    0    0    0 -0.00000000000E+00 -0.00000000000E+00 -0.45593999997E+02  0.45594000000E+02  0.51100000000E-03 0.  1.
    9900012    2    1    2    0    0 -0.13725955540E+02 -0.68945556892E+01  0.10711614936E+02  0.72461669656E+02  0.70000129437E+02 0.  0.
        -12    1    1    2    0    0  0.13725955540E+02  0.68945556892E+01 -0.10711614936E+02  0.18726330344E+02  0.00000000000E+00 0.  1.
         11    1    3    3    0    0 -0.25664904773E+02  0.85745331478E+01  0.83651904803E+01  0.28322894763E+02  0.51100000000E-03 0. -1.
        -11    1    3    3    0    0  0.80340434022E+01 -0.23635261519E+01 -0.17868083970E+02  0.19733234258E+02  0.51100000000E-03 0.  1.
        -12    1    3    3    0    0  0.39049058308E+01 -0.13105562685E+02  0.20214508425E+02  0.24405540636E+02  0.00000000000E+00 0.  1.
</event>
<event>
 7    1  0.1874105E-013  0.7246157E+02  0.7816164E-02  0.1226708E+00
        -11   -1    0    0    0    0  0.00000000000E+00  0.00000000000E+00  0.45593999997E+02  0.45594000000E+02  0.51100000000E-03 0.  1.
         11   -1    0    0    0    0 -0.00000000000E+00 -0.00000000000E+00 -0.45593999997E+02  0.45594000000E+02  0.51100000000E-03 0. -1.
    9900012    2    1    2    0    0  0.10530990183E+02 -0.23960889739E+01  0.15298239246E+02  0.72461571600E+02  0.70000001700E+02 0.  0.
        -12    1    1    2    0    0 -0.10530990183E+02  0.23960889739E+01 -0.15298239246E+02  0.18726428400E+02  0.00000000000E+00 0.  1.
         11    1    3    3    0    0  0.27399929167E+02  0.22216426802E+01  0.61054404143E+01  0.28159691360E+02  0.51100000000E-03 0.  1.
        -11    1    3    3    0    0 -0.19142887145E+02 -0.55326146950E+00  0.22884046713E+02  0.29840171258E+02  0.51100000000E-03 0. -1.
         12    1    3    3    0    0  0.22739481607E+01 -0.40644701846E+01 -0.13691247882E+02  0.14461708982E+02  0.00000000000E+00 0. -1.
</event>
<event>
 7    1  0.1874105E-013  0.7246157E+02  0.7816164E-02  0.1226708E+00
        -11   -1    0    0    0    0  0.00000000000E+00  0.00000000000E+00  0.45593999997E+02  0.45594000000E+02  0.51100000000E-03 0.  1.
         11   -1    0    0    0    0 -0.00000000000E+00 -0.00000000000E+00 -0.45593999997E+02  0.45594000000E+02  0.51100000000E-03 0. -1.
    9900012    2    1    2    0    0 -0.77742392829E+00 -0.89405996601E+01 -0.16435949418E+02  0.72461570988E+02  0.70000000904E+02 0.  0.
        -12    1    1    2    0    0  0.77742392829E+00  0.89405996601E+01  0.16435949418E+02  0.18726429012E+02  0.00000000000E+00 0.  1.
         11    1    3    3    0    0  0.10347229021E+02  0.90954456759E+01 -0.36584211191E+01  0.14253993329E+02  0.51100000000E-03 0. -1.
        -11    1    3    3    0    0 -0.19093833127E+02 -0.12660016576E+02 -0.30440442124E+02  0.38098175811E+02  0.51100000000E-03 0.  1.
        -12    1    3    3    0    0  0.79691801775E+01 -0.53760287603E+01  0.17662913825E+02  0.20109401849E+02  0.00000000000E+00 0.  1.
</event>
<event>
 7    1  0.1874105E-013  0.7246163E+02  0.7816164E-02  0.1226708E+00
        -11   -1    0    0    0    0  0.00000000000E+00  0.00000000000E+00  0.45593999997E+02  0.45594000000E+02  0.51100000000E-03 0. -1.
         11   -1    0    0    0    0 -0.00000000000E+00 -0.00000000000E+00 -0.45593999997E+02  0.45594000000E+02  0.51100000000E-03 0.  1.
    9900012    2    1    2    0    0 -0.11701959267E+02 -0.13899697042E+02 -0.45320595513E+01  0.72461628426E+02  0.70000075727E+02 0.  0.
        -12    1    1    2    0    0  0.11701959267E+02  0.13899697042E+02  0.45320595513E+01  0.18726371574E+02  0.00000000000E+00 0.  1.
         11    1    3    3    0    0  0.10990904932E+02 -0.28351102721E+02 -0.15605382772E+02  0.34177667978E+02  0.51100000000E-03 0. -1.
        -11    1    3    3    0    0  0.86819175816E+00  0.84064411372E+01 -0.43269985433E+01  0.94944681882E+01  0.51100000000E-03 0.  1.
         12    1    3    3    0    0 -0.23561055958E+02  0.60449645415E+01  0.15400321764E+02  0.28789492260E+02  0.00000000000E+00 0. -1.
</event>
<event>
 7    1  0.1874105E-013  0.7246157E+02  0.7816164E-02  0.1226708E+00
        -11   -1    0    0    0    0  0.00000000000E+00  0.00000000000E+00  0.45593999997E+02  0.45594000000E+02  0.51100000000E-03 0.  1.
         11   -1    0    0    0    0 -0.00000000000E+00 -0.00000000000E+00 -0.45593999997E+02  0.45594000000E+02  0.51100000000E-03 0. -1.
    9900012    2    1    2    0    0 -0.14069075582E+02 -0.12183658120E+02 -0.20733891450E+01  0.72461565330E+02  0.69999993532E+02 0.  0.
        -12    1    1    2    0    0  0.14069075582E+02  0.12183658120E+02  0.20733891450E+01  0.18726434670E+02  0.00000000000E+00 0.  1.
         11    1    3    3    0    0 -0.28487527061E+02 -0.16292497545E+02 -0.53119535527E+01  0.33244571363E+02  0.51100000000E-03 0. -1.
        -11    1    3    3    0    0  0.14939180864E+02  0.10803572069E+02  0.16249628594E+02  0.24575327547E+02  0.51100000000E-03 0.  1.
        -12    1    3    3    0    0 -0.52072938412E+00 -0.66947326438E+01 -0.13011064187E+02  0.14641666419E+02  0.00000000000E+00 0.  1.
</event>
<event>
 7    1  0.1874105E-013  0.7246158E+02  0.7816164E-02  0.1226708E+00
        -11   -1    0    0    0    0  0.00000000000E+00  0.00000000000E+00  0.45593999997E+02  0.45594000000E+02  0.51100000000E-03 0. -1.
         11   -1    0    0    0    0 -0.00000000000E+00 -0.00000000000E+00 -0.45593999997E+02  0.45594000000E+02  0.51100000000E-03 0.  1.
    9900012    2    1    2    0    0  0.91375681385E+01  0.54278371109E+01  0.15418244488E+02  0.72461579352E+02  0.70000011800E+02 0.  0.
        -12    1    1    2    0    0 -0.91375681385E+01 -0.54278371109E+01 -0.15418244488E+02  0.18726420648E+02  0.00000000000E+00 0.  1.
         11    1    3    3    0    0 -0.69030960541E+01 -0.28618385084E+02  0.14775237112E+02  0.32938918196E+02  0.51100000000E-03 0. -1.
        -11    1    3    3    0    0  0.62015858969E+01  0.20732308448E+02 -0.46658679517E+01  0.22137267338E+02  0.51100000000E-03 0.  1.
         12    1    3    3    0    0  0.98390782958E+01  0.13313913747E+02  0.53088753273E+01  0.17385393818E+02  0.00000000000E+00 0. -1.
</event>
<event>
 7    1  0.1874105E-013  0.7246158E+02  0.7816164E-02  0.1226708E+00
        -11   -1    0    0    0    0  0.00000000000E+00  0.00000000000E+00  0.45593999997E+02  0.45594000000E+02  0.51100000000E-03 0.  1.
         11   -1    0    0    0    0 -0.00000000000E+00 -0.00000000000E+00 -0.45593999997E+02  0.45594000000E+02  0.51100000000E-03 0. -1.
    9900012    2    1    2    0    0  0.47849748396E+01 -0.82891828528E+01 -0.16095718848E+02  0.72461582782E+02  0.70000016267E+02 0.  0.
        -12    1    1    2    0    0 -0.47849748396E+01  0.82891828528E+01  0.16095718848E+02  0.18726417218E+02  0.00000000000E+00 0.  1.
         11    1    3    3    0    0  0.24421631773E+02 -0.45069277742E+01 -0.34008267516E+01  0.25065795804E+02  0.51100000000E-03 0. -1.
        -11    1    3    3    0    0 -0.24399781147E+02 -0.60792273974E+01  0.77224198150E+01  0.26304792222E+02  0.51100000000E-03 0.  1.
        -12    1    3    3    0    0  0.47631242132E+01  0.22969723188E+01 -0.20417311912E+02  0.21090994756E+02  0.00000000000E+00 0.  1.
</event>
<event>
 7    1  0.1874105E-013  0.7246162E+02  0.7816164E-02  0.1226708E+00
        -11   -1    0    0    0    0  0.00000000000E+00  0.00000000000E+00  0.45593999997E+02  0.45594000000E+02  0.51100000000E-03 0.  1.
         11   -1    0    0    0    0 -0.00000000000E+00 -0.00000000000E+00 -0.45593999997E+02  0.45594000000E+02  0.51100000000E-03 0. -1.
    9900012    2    1    2    0    0  0.54805952164E+01 -0.14278543307E+02 -0.10805725417E+02  0.72461616882E+02  0.70000060689E+02 0.  0.
        -12    1    1    2    0    0 -0.54805952164E+01  0.14278543307E+02  0.10805725417E+02  0.18726383118E+02  0.00000000000E+00 0.  1.
         11    1    3    3    0    0  0.27638665493E+02  0.37673006914E+01 -0.31649092381E+01  0.28073208500E+02  0.51100000000E-03 0. -1.
        -11    1    3    3    0    0 -0.14690446767E+02 -0.26858890571E+02 -0.13787831143E+00  0.30614183634E+02  0.51100000000E-03 0.  1.
         12    1    3    3    0    0 -0.74676235100E+01  0.88130465720E+01 -0.75029378672E+01  0.13774224748E+02  0.00000000000E+00 0. -1.
</event>
<event>
 7    1  0.1874105E-013  0.7246158E+02  0.7816164E-02  0.1226708E+00
        -11   -1    0    0    0    0  0.00000000000E+00  0.00000000000E+00  0.45593999997E+02  0.45594000000E+02  0.51100000000E-03 0.  1.
         11   -1    0    0    0    0 -0.00000000000E+00 -0.00000000000E+00 -0.45593999997E+02  0.45594000000E+02  0.51100000000E-03 0. -1.
    9900012    2    1    2    0    0 -0.65641844024E+00 -0.18452172629E+02 -0.31249273243E+01  0.72461582011E+02  0.70000015263E+02 0.  0.
        -12    1    1    2    0    0  0.65641844024E+00  0.18452172629E+02  0.31249273243E+01  0.18726417989E+02  0.00000000000E+00 0.  1.
         11    1    3    3    0    0 -0.10124091806E+01 -0.23565026131E+01  0.18335701208E+00  0.25713220275E+01  0.51100000000E-03 0. -1.
        -11    1    3    3    0    0 -0.47927333088E+01  0.19635531261E+02 -0.21463111083E+02  0.29482020251E+02  0.51100000000E-03 0.  1.
        -12    1    3    3    0    0  0.51487240491E+01 -0.35731201278E+02  0.18154826746E+02  0.40408239732E+02  0.00000000000E+00 0.  1.
</event>
<event>
 7    1  0.1874105E-013  0.7246158E+02  0.7816164E-02  0.1226708E+00
        -11   -1    0    0    0    0  0.00000000000E+00  0.00000000000E+00  0.45593999997E+02  0.45594000000E+02  0.51100000000E-03 0. -1.
         11   -1    0    0    0    0 -0.00000000000E+00 -0.00000000000E+00 -0.45593999997E+02  0.45594000000E+02  0.51100000000E-03 0.  1.
    9900012    2    1    2    0    0 -0.10158071803E+02  0.90520318151E+01 -0.12866746699E+02  0.72461578202E+02  0.70000010301E+02 0.  0.
        -12    1    1    2    0    0  0.10158071803E+02 -0.90520318151E+01  0.12866746699E+02  0.18726421798E+02  0.00000000000E+00 0.  1.
         11    1    3    3    0    0  0.90708781660E+01 -0.22880502645E+02  0.59778753043E+00  0.24620227094E+02  0.51100000000E-03 0. -1.
        -11    1    3    3    0    0 -0.52751680088E+01  0.22696738425E+02 -0.19157652199E+02  0.30165957148E+02  0.51100000000E-03 0.  1.
         12    1    3    3    0    0 -0.13953781960E+02  0.92357960351E+01  0.56931179691E+01  0.17675393959E+02  0.00000000000E+00 0. -1.
</event>
<event>
 7    1  0.1874105E-013  0.7246159E+02  0.7816164E-02  0.1226708E+00
        -11   -1    0    0    0    0  0.00000000000E+00  0.00000000000E+00  0.45593999997E+02  0.45594000000E+02  0.51100000000E-03 0.  1.
         11   -1    0    0    0    0 -0.00000000000E+00 -0.00000000000E+00 -0.45593999997E+02  0.45594000000E+02  0.51100000000E-03 0. -1.
    9900012    2    1    2    0    0  0.12072889790E+02  0.11245681793E+01 -0.14270918385E+02  0.72461589959E+02  0.70000025617E+02 0.  0.
        -12    1    1    2    0    0 -0.12072889790E+02 -0.11245681793E+01  0.14270918385E+02  0.18726410041E+02  0.00000000000E+00 0.  1.
         11    1    3    3    0    0  0.25184127840E+02 -0.10346693223E+02  0.28918700737E+01  0.27379869768E+02  0.51100000000E-03 0.  1.
        -11    1    3    3    0    0 -0.23185215505E+02  0.93557135010E+00 -0.19511120343E+02  0.30316881916E+02  0.51100000000E-03 0. -1.
         12    1    3    3    0    0  0.10073977455E+02  0.10535690052E+02  0.23483318844E+01  0.14764838275E+02  0.00000000000E+00 0. -1.
</event>
<event>
 7    1  0.1874105E-013  0.7246155E+02  0.7816164E-02  0.1226708E+00
        -11   -1    0    0    0    0  0.00000000000E+00  0.00000000000E+00  0.45593999997E+02  0.45594000000E+02  0.51100000000E-03 0.  1.
         11   -1    0    0    0    0 -0.00000000000E+00 -0.00000000000E+00 -0.45593999997E+02  0.45594000000E+02  0.51100000000E-03 0. -1.
    9900012    2    1    2    0    0  0.93899737832E+01  0.66149505053E+01 -0.14790224895E+02  0.72461549982E+02  0.69999973539E+02 0.  0.
        -12    1    1    2    0    0 -0.93899737832E+01 -0.66149505053E+01  0.14790224895E+02  0.18726450018E+02  0.00000000000E+00 0.  1.
         11    1    3    3    0    0  0.38902348617E+01  0.34070501266E+02 -0.16504052004E+02  0.38056756517E+02  0.51100000000E-03 0. -1.
        -11    1    3    3    0    0 -0.48621316457E+01 -0.31120225877E+01  0.51366644032E+01  0.77272459634E+01  0.51100000000E-03 0.  1.
         12    1    3    3    0    0  0.10361870567E+02 -0.24343528173E+02 -0.34228372939E+01  0.26677547501E+02  0.00000000000E+00 0. -1.
</event>
<event>
 7    1  0.1874105E-013  0.7246153E+02  0.7816164E-02  0.1226708E+00
        -11   -1    0    0    0    0  0.00000000000E+00  0.00000000000E+00  0.45593999997E+02  0.45594000000E+02  0.51100000000E-03 0.  1.
         11   -1    0    0    0    0 -0.00000000000E+00 -0.00000000000E+00 -0.45593999997E+02  0.45594000000E+02  0.51100000000E-03 0. -1.
    9900012    2    1    2    0    0  0.89159520182E+01 -0.84844016276E+01 -0.14113871274E+02  0.72461531200E+02  0.69999949072E+02 0.  0.
        -12    1    1    2    0    0 -0.89159520182E+01  0.84844016276E+01  0.14113871274E+02  0.18726468800E+02  0.00000000000E+00 0.  1.
         11    1    3    3    0    0  0.13397951658E+02 -0.19425408245E+01 -0.15095026171E+01  0.13621937156E+02  0.51100000000E-03 0. -1.
        -11    1    3    3    0    0 -0.26010211751E+02 -0.18571691074E+02 -0.20833270139E+01  0.32027786005E+02  0.51100000000E-03 0.  1.
        -12    1    3    3    0    0  0.21528212111E+02  0.12029830271E+02 -0.10521041643E+02  0.26811808039E+02  0.00000000000E+00 0.  1.
</event>
<event>
 7    1  0.1874105E-013  0.7246151E+02  0.7816164E-02  0.1226708E+00
        -11   -1    0    0    0    0  0.00000000000E+00  0.00000000000E+00  0.45593999997E+02  0.45594000000E+02  0.51100000000E-03 0.  1.
         11   -1    0    0    0    0 -0.00000000000E+00 -0.00000000000E+00 -0.45593999997E+02  0.45594000000E+02  0.51100000000E-03 0. -1.
    9900012    2    1    2    0    0 -0.17114770692E+02 -0.60505541199E+01 -0.45996667839E+01  0.72461507656E+02  0.69999918402E+02 0.  0.
        -12    1    1    2    0    0  0.17114770692E+02  0.60505541199E+01  0.45996667839E+01  0.18726492344E+02  0.00000000000E+00 0.  1.
         11    1    3    3    0    0 -0.25894009294E+02 -0.20468745173E+02 -0.27797207222E+02  0.43152682140E+02  0.51100000000E-03 0. -1.
        -11    1    3    3    0    0  0.38605535814E+01  0.55499856346E+01  0.47659552448E+01  0.82716711827E+01  0.51100000000E-03 0.  1.
         12    1    3    3    0    0  0.49186850210E+01  0.88682054185E+01  0.18431585193E+02  0.21037154333E+02  0.00000000000E+00 0. -1.
</event>
<event>
 7    1  0.1874105E-013  0.7246156E+02  0.7816164E-02  0.1226708E+00
        -11   -1    0    0    0    0  0.00000000000E+00  0.00000000000E+00  0.45593999997E+02  0.45594000000E+02  0.51100000000E-03 0. -1.
         11   -1    0    0    0    0 -0.00000000000E+00 -0.00000000000E+00 -0.45593999997E+02  0.45594000000E+02  0.51100000000E-03 0.  1.
    9900012    2    1    2    0    0 -0.17516062026E+02  0.63330342334E+01 -0.19390028114E+01  0.72461561914E+02  0.69999989083E+02 0.  0.
        -12    1    1    2    0    0  0.17516062026E+02 -0.63330342334E+01  0.19390028114E+01  0.18726438086E+02  0.00000000000E+00 0.  1.
         11    1    3    3    0    0 -0.31110831175E+02  0.14895023258E+02 -0.23205681193E+01  0.34570660551E+02  0.51100000000E-03 0. -1.
        -11    1    3    3    0    0  0.22987254145E+02 -0.11298176528E+01  0.71922253226E+01  0.24112620065E+02  0.51100000000E-03 0.  1.
         12    1    3    3    0    0 -0.93924849949E+01 -0.74321713720E+01 -0.68106600147E+01  0.13778281298E+02  0.00000000000E+00 0. -1.
</event>
<event>
 7    1  0.1874105E-013  0.7246163E+02  0.7816164E-02  0.1226708E+00
        -11   -1    0    0    0    0  0.00000000000E+00  0.00000000000E+00  0.45593999997E+02  0.45594000000E+02  0.51100000000E-03 0. -1.
         11   -1    0    0    0    0 -0.00000000000E+00 -0.00000000000E+00 -0.45593999997E+02  0.45594000000E+02  0.51100000000E-03 0.  1.
    9900012    2    1    2    0    0  0.10696758645E+00 -0.13809987840E+02  0.12647121699E+02  0.72461631066E+02  0.70000079166E+02 0.  0.
        -12    1    1    2    0    0 -0.10696758645E+00  0.13809987840E+02 -0.12647121699E+02  0.18726368934E+02  0.00000000000E+00 0.  1.
         11    1    3    3    0    0 -0.21179105658E+02 -0.47749563940E+01 -0.44716059289E+01  0.22166415698E+02  0.51100000000E-03 0. -1.
        -11    1    3    3    0    0  0.20858920482E+02 -0.24164543253E+02  0.13921453482E+02  0.34825659816E+02  0.51100000000E-03 0.  1.
        -12    1    3    3    0    0  0.42715276311E+00  0.15129511807E+02  0.31972741457E+01  0.15469555552E+02  0.00000000000E+00 0.  1.
</event>
<event>
 7    1  0.1874105E-013  0.7246158E+02  0.7816164E-02  0.1226708E+00
        -11   -1    0    0    0    0  0.00000000000E+00  0.00000000000E+00  0.45593999997E+02  0.45594000000E+02  0.51100000000E-03 0. -1.
         11   -1    0    0    0    0 -0.00000000000E+00 -0.00000000000E+00 -0.45593999997E+02  0.45594000000E+02  0.51100000000E-03 0.  1.
    9900012    2    1    2    0    0  0.16577831115E+00  0.69676180854E+00  0.18712723237E+02  0.72461575611E+02  0.70000006925E+02 0.  0.
        -12    1    1    2    0    0 -0.16577831115E+00 -0.69676180854E+00 -0.18712723237E+02  0.18726424389E+02  0.00000000000E+00 0.  1.
         11    1    3    3    0    0  0.37017034301E+01  0.19423756209E+02 -0.14466535081E+02  0.24500317366E+02  0.51100000000E-03 0.  1.
        -11    1    3    3    0    0 -0.14005879490E+02 -0.93285409204E+01  0.28566932095E+02  0.33155028963E+02  0.51100000000E-03 0. -1.
        -12    1    3    3    0    0  0.10469954371E+02 -0.93984534797E+01  0.46123262230E+01  0.14806229281E+02  0.00000000000E+00 0.  1.
</event>
<event>
 7    1  0.1874105E-013  0.7246166E+02  0.7816164E-02  0.1226708E+00
        -11   -1    0    0    0    0  0.00000000000E+00  0.00000000000E+00  0.45593999997E+02  0.45594000000E+02  0.51100000000E-03 0. -1.
         11   -1    0    0    0    0 -0.00000000000E+00 -0.00000000000E+00 -0.45593999997E+02  0.45594000000E+02  0.51100000000E-03 0.  1.
    9900012    2    1    2    0    0  0.13537517730E+02  0.12483950503E+02 -0.34003656918E+01  0.72461657770E+02  0.70000113954E+02 0.  0.
        -12    1    1    2    0    0 -0.13537517730E+02 -0.12483950503E+02  0.34003656918E+01  0.18726342230E+02  0.00000000000E+00 0.  1.
         11    1    3    3    0    0  0.41696951416E+01  0.33164528782E+02 -0.73112820141E+01  0.34215890634E+02  0.51100000000E-03 0. -1.
        -11    1    3    3    0    0 -0.47956409954E+01 -0.18965292525E+02  0.10862052125E+02  0.22375537307E+02  0.51100000000E-03 0.  1.
        -12    1    3    3    0    0  0.14163463584E+02 -0.17152857532E+01 -0.69511358031E+01  0.15870229830E+02  0.00000000000E+00 0.  1.
</event>
<event>
 7    1  0.1874105E-013  0.7246155E+02  0.7816164E-02  0.1226708E+00
        -11   -1    0    0    0    0  0.00000000000E+00  0.00000000000E+00  0.45593999997E+02  0.45594000000E+02  0.51100000000E-03 0. -1.
         11   -1    0    0    0    0 -0.00000000000E+00 -0.00000000000E+00 -0.45593999997E+02  0.45594000000E+02  0.51100000000E-03 0.  1.
    9900012    2    1    2    0    0  0.62313316198E+01  0.48373769756E+01  0.16983827769E+02  0.72461545038E+02  0.69999967099E+02 0.  0.
        -12    1    1    2    0    0 -0.62313316198E+01 -0.48373769756E+01 -0.16983827769E+02  0.18726454962E+02  0.00000000000E+00 0.  1.
         11    1    3    3    0    0 -0.11517190628E+02  0.88760887302E+01  0.13446855732E+02  0.19805265978E+02  0.51100000000E-03 0. -1.
        -11    1    3    3    0    0  0.22246810331E+02 -0.22469243005E+02 -0.47127119526E+01  0.31968689453E+02  0.51100000000E-03 0.  1.
        -12    1    3    3    0    0 -0.44982880832E+01  0.18430531250E+02  0.82496839900E+01  0.20687589608E+02  0.00000000000E+00 0.  1.
</event>
<event>
 7    1  0.1874105E-013  0.7246159E+02  0.7816164E-02  0.1226708E+00
        -11   -1    0    0    0    0  0.00000000000E+00  0.00000000000E+00  0.45593999997E+02  0.45594000000E+02  0.51100000000E-03 0.  1.
         11   -1    0    0    0    0 -0.00000000000E+00 -0.00000000000E+00 -0.45593999997E+02  0.45594000000E+02  0.51100000000E-03 0. -1.
    9900012    2    1    2    0    0  0.18557031630E+02 -0.95033160710E+00  0.23263467239E+01  0.72461589715E+02  0.70000025299E+02 0.  0.
        -12    1    1    2    0    0 -0.18557031630E+02  0.95033160710E+00 -0.23263467239E+01  0.18726410285E+02  0.00000000000E+00 0.  1.
         11    1    3    3    0    0 -0.38051630516E+01  0.26219506389E+00 -0.25047807102E+02  0.25336547771E+02  0.51100000000E-03 0. -1.
        -11    1    3    3    0    0  0.49241922774E+01  0.74492038633E+01  0.26131042565E+02  0.27614664466E+02  0.51100000000E-03 0.  1.
         12    1    3    3    0    0  0.17438002404E+02 -0.86617305342E+01  0.12431112606E+01  0.19510377477E+02  0.00000000000E+00 0. -1.
</event>
<event>
 7    1  0.1874105E-013  0.7246153E+02  0.7816164E-02  0.1226708E+00
        -11   -1    0    0    0    0  0.00000000000E+00  0.00000000000E+00  0.45593999997E+02  0.45594000000E+02  0.51100000000E-03 0.  1.
         11   -1    0    0    0    0 -0.00000000000E+00 -0.00000000000E+00 -0.45593999997E+02  0.45594000000E+02  0.51100000000E-03 0. -1.
    9900012    2    1    2    0    0  0.12889717399E+02 -0.68132298502E+01 -0.11752270366E+02  0.72461527445E+02  0.69999944180E+02 0.  0.
        -12    1    1    2    0    0 -0.12889717399E+02  0.68132298502E+01  0.11752270366E+02  0.18726472555E+02  0.00000000000E+00 0.  1.
         11    1    3    3    0    0  0.26992526398E+02  0.13511510615E+02 -0.22651982202E+02  0.37739497855E+02  0.51100000000E-03 0. -1.
        -11    1    3    3    0    0 -0.13909763644E+02 -0.14067929637E+01  0.57308669180E+01  0.15109713001E+02  0.51100000000E-03 0.  1.
        -12    1    3    3    0    0 -0.19304535463E+00 -0.18917947501E+02  0.51688449174E+01  0.19612316588E+02  0.00000000000E+00 0.  1.
</event>
<event>
 7    1  0.1874105E-013  0.7246148E+02  0.7816164E-02  0.1226708E+00
        -11   -1    0    0    0    0  0.00000000000E+00  0.00000000000E+00  0.45593999997E+02  0.45594000000E+02  0.51100000000E-03 0. -1.
         11   -1    0    0    0    0 -0.00000000000E+00 -0.00000000000E+00 -0.45593999997E+02  0.45594000000E+02  0.51100000000E-03 0.  1.
    9900012    2    1    2    0    0 -0.15199021646E+02 -0.60088431100E+01 -0.91414564678E+01  0.72461476541E+02  0.69999877869E+02 0.  0.
        -12    1    1    2    0    0  0.15199021646E+02  0.60088431100E+01  0.91414564678E+01  0.18726523459E+02  0.00000000000E+00 0.  1.
         11    1    3    3    0    0 -0.88561167715E+01 -0.35570728215E+02 -0.46784619058E+01  0.36953964822E+02  0.51100000000E-03 0. -1.
        -11    1    3    3    0    0  0.49463406255E+01  0.53401261440E+01 -0.49103400424E+01  0.87803571915E+01  0.51100000000E-03 0.  1.
         12    1    3    3    0    0 -0.11289245500E+02  0.24221758961E+02  0.44734548047E+00  0.26727154527E+02  0.00000000000E+00 0. -1.
</event>
<event>
 7    1  0.1874105E-013  0.7246157E+02  0.7816164E-02  0.1226708E+00
        -11   -1    0    0    0    0  0.00000000000E+00  0.00000000000E+00  0.45593999997E+02  0.45594000000E+02  0.51100000000E-03 0. -1.
         11   -1    0    0    0    0 -0.00000000000E+00 -0.00000000000E+00 -0.45593999997E+02  0.45594000000E+02  0.51100000000E-03 0.  1.
    9900012    2    1    2    0    0  0.41048210013E+01 -0.65920131674E+01  0.17040387808E+02  0.72461574562E+02  0.70000005559E+02 0.  0.
        -12    1    1    2    0    0 -0.41048210013E+01  0.65920131674E+01 -0.17040387808E+02  0.18726425438E+02  0.00000000000E+00 0.  1.
         11    1    3    3    0    0  0.21997451415E+02  0.15974375766E+02  0.44539983514E+01  0.27548260407E+02  0.51100000000E-03 0. -1.
        -11    1    3    3    0    0 -0.15489563186E+02 -0.10249254818E+00 -0.50068668389E+01  0.16278998379E+02  0.51100000000E-03 0.  1.
         12    1    3    3    0    0 -0.24030672283E+01 -0.22463896385E+02  0.17593256295E+02  0.28634315776E+02  0.00000000000E+00 0. -1.
</event>
<event>
 7    1  0.1874105E-013  0.7246155E+02  0.7816164E-02  0.1226708E+00
        -11   -1    0    0    0    0  0.00000000000E+00  0.00000000000E+00  0.45593999997E+02  0.45594000000E+02  0.51100000000E-03 0. -1.
         11   -1    0    0    0    0 -0.00000000000E+00 -0.00000000000E+00 -0.45593999997E+02  0.45594000000E+02  0.51100000000E-03 0.  1.
    9900012    2    1    2    0    0  0.48561736768E+01  0.92076498385E+01  0.15566528672E+02  0.72461546699E+02  0.69999969263E+02 0.  0.
        -12    1    1    2    0    0 -0.48561736768E+01 -0.92076498385E+01 -0.15566528672E+02  0.18726453301E+02  0.00000000000E+00 0.  1.
         11    1    3    3    0    0  0.60313456948E+01  0.26565033947E+02  0.26926716298E+02  0.38303083562E+02  0.51100000000E-03 0. -1.
        -11    1    3    3    0    0 -0.93732159400E+01 -0.93666661721E+01 -0.16871178907E+02  0.21452931972E+02  0.51100000000E-03 0.  1.
        -12    1    3    3    0    0  0.81980439220E+01 -0.79907179363E+01  0.55109912809E+01  0.12705531165E+02  0.00000000000E+00 0.  1.
</event>
<event>
 7    1  0.1874105E-013  0.7246155E+02  0.7816164E-02  0.1226708E+00
        -11   -1    0    0    0    0  0.00000000000E+00  0.00000000000E+00  0.45593999997E+02  0.45594000000E+02  0.51100000000E-03 0. -1.
         11   -1    0    0    0    0 -0.00000000000E+00 -0.00000000000E+00 -0.45593999997E+02  0.45594000000E+02  0.51100000000E-03 0.  1.
    9900012    2    1    2    0    0 -0.18444032545E+02 -0.26995124277E+01  0.17917355854E+01  0.72461547579E+02  0.69999970409E+02 0.  0.
        -12    1    1    2    0    0  0.18444032545E+02  0.26995124277E+01 -0.17917355854E+01  0.18726452421E+02  0.00000000000E+00 0.  1.
         11    1    3    3    0    0 -0.15336891187E+02 -0.54221489634E+00  0.31598325844E+02  0.35127886710E+02  0.51100000000E-03 0. -1.
        -11    1    3    3    0    0 -0.71067382612E+01  0.70385168814E+01 -0.64137107311E+01  0.11882008846E+02  0.51100000000E-03 0.  1.
         12    1    3    3    0    0  0.39995969025E+01 -0.91958144127E+01 -0.23392879528E+02  0.25451652023E+02  0.00000000000E+00 0. -1.
</event>
<event>
 7    1  0.1874105E-013  0.7246160E+02  0.7816164E-02  0.1226708E+00
        -11   -1    0    0    0    0  0.00000000000E+00  0.00000000000E+00  0.45593999997E+02  0.45594000000E+02  0.51100000000E-03 0. -1.
         11   -1    0    0    0    0 -0.00000000000E+00 -0.00000000000E+00 -0.45593999997E+02  0.45594000000E+02  0.51100000000E-03 0.  1.
    9900012    2    1    2    0    0  0.61014726463E+01  0.77388884139E+01  0.15923557707E+02  0.72461600123E+02  0.70000038857E+02 0.  0.
        -12    1    1    2    0    0 -0.61014726463E+01 -0.77388884139E+01 -0.15923557707E+02  0.18726399877E+02  0.00000000000E+00 0.  1.
         11    1    3    3    0    0 -0.29978142717E+02  0.41763941782E+01  0.17510029432E+02  0.34967591282E+02  0.51100000000E-03 0. -1.
        -11    1    3    3    0    0  0.11772797951E+02 -0.23222281124E+01 -0.32431058339E+01  0.12430175007E+02  0.51100000000E-03 0.  1.
         12    1    3    3    0    0  0.24306817413E+02  0.58847223481E+01  0.16566341081E+01  0.25063833833E+02  0.00000000000E+00 0. -1.
</event>
<event>
 8    1  0.1874105E-013  0.7246157E+02  0.7816164E-02  0.1226708E+00
        -11   -1    0    0    0    0  0.00000000000E+00  0.00000000000E+00  0.45593999997E+02  0.45594000000E+02  0.51100000000E-03 0. -1.
         11   -1    0    0    0    0 -0.00000000000E+00 -0.00000000000E+00 -0.45593999997E+02  0.45594000000E+02  0.51100000000E-03 0.  1.
    9900012    2    1    2    0    0  0.72321380299E+01  0.12055637201E+02  0.12370815823E+02  0.72461566999E+02  0.69999995707E+02 0.  0.
        -24    2    3    3    0    0  0.98018101389E+01  0.15878173892E+02 -0.66025357892E+01  0.52937144519E+02  0.49097412385E+02 0.  0.
        -12    1    1    2    0    0 -0.72321380299E+01 -0.12055637201E+02 -0.12370815823E+02  0.18726433001E+02  0.00000000000E+00 0.  1.
         11    1    4    4    0    0  0.24917890913E+01  0.31545585680E+02 -0.13394563651E+02  0.34362004080E+02  0.51100000000E-03 0. -1.
        -11    1    3    3    0    0 -0.25696721090E+01 -0.38225366910E+01  0.18973351612E+02  0.19524422480E+02  0.51100000000E-03 0.  1.
        -12    1    4    4    0    0  0.73100210476E+01 -0.15667411788E+02  0.67920278619E+01  0.18575140439E+02  0.00000000000E+00 0.  1.
</event>
<event>
 7    1  0.2341945E-013  0.7246108E+02  0.7816164E-02  0.1226709E+00
        -11   -1    0    0    0    0  0.00000000000E+00  0.00000000000E+00  0.45593999997E+02  0.45594000000E+02  0.51100000000E-03 0. -1.
         11   -1    0    0    0    0 -0.00000000000E+00 -0.00000000000E+00 -0.45593999997E+02  0.45594000000E+02  0.51100000000E-03 0.  1.
    9900012    2    1    2    0    0 -0.10508345231E+02  0.56075265745E+01  0.14450879314E+02  0.72461078557E+02  0.69999359418E+02 0.  0.
        -12    1    1    2    0    0  0.10508345231E+02 -0.56075265745E+01 -0.14450879314E+02  0.18726921443E+02  0.00000000000E+00 0.  1.
         11    1    3    3    0    0  0.20152518888E+02  0.26014507161E+01  0.20328891123E+02  0.28742918744E+02  0.51100000000E-03 0. -1.
        -11    1    3    3    0    0 -0.21320193974E+02 -0.12610639277E+02 -0.62603229634E+00  0.24778434388E+02  0.51100000000E-03 0.  1.
        -12    1    3    3    0    0 -0.93406701452E+01  0.15616715135E+02 -0.52519795129E+01  0.18939725425E+02  0.00000000000E+00 0.  1.
</event>
<event>
 7    1  0.1874105E-013  0.7246157E+02  0.7816164E-02  0.1226708E+00
        -11   -1    0    0    0    0  0.00000000000E+00  0.00000000000E+00  0.45593999997E+02  0.45594000000E+02  0.51100000000E-03 0. -1.
         11   -1    0    0    0    0 -0.00000000000E+00 -0.00000000000E+00 -0.45593999997E+02  0.45594000000E+02  0.51100000000E-03 0.  1.
    9900012    2    1    2    0    0 -0.35445156718E+01  0.12059655215E+02  0.13880932192E+02  0.72461570715E+02  0.70000000548E+02 0.  0.
        -12    1    1    2    0    0  0.35445156718E+01 -0.12059655215E+02 -0.13880932192E+02  0.18726429285E+02  0.00000000000E+00 0.  1.
         11    1    3    3    0    0  0.19508239779E+02  0.20502082264E+02  0.11163287850E+02  0.30422455396E+02  0.51100000000E-03 0. -1.
        -11    1    3    3    0    0 -0.30451532938E+02 -0.47559738361E+00 -0.12090030564E+01  0.30479234567E+02  0.51100000000E-03 0.  1.
        -12    1    3    3    0    0  0.73987774865E+01 -0.79668296658E+01  0.39266473977E+01  0.11559880752E+02  0.00000000000E+00 0.  1.
</event>
<event>
 7    1  0.1874105E-013  0.7246156E+02  0.7816164E-02  0.1226708E+00
        -11   -1    0    0    0    0  0.00000000000E+00  0.00000000000E+00  0.45593999997E+02  0.45594000000E+02  0.51100000000E-03 0.  1.
         11   -1    0    0    0    0 -0.00000000000E+00 -0.00000000000E+00 -0.45593999997E+02  0.45594000000E+02  0.51100000000E-03 0. -1.
    9900012    2    1    2    0    0 -0.11255414555E+02  0.13919693319E+02 -0.54988453580E+01  0.72461560958E+02  0.69999987838E+02 0.  0.
        -12    1    1    2    0    0  0.11255414555E+02 -0.13919693319E+02  0.54988453580E+01  0.18726439042E+02  0.00000000000E+00 0.  1.
         11    1    3    3    0    0 -0.25371321433E+02 -0.31281494957E+00 -0.14350495040E+02  0.29150274657E+02  0.51100000000E-03 0. -1.
        -11    1    3    3    0    0  0.12583926618E+02 -0.95156351967E+01  0.11273924995E+02  0.19390820183E+02  0.51100000000E-03 0.  1.
         12    1    3    3    0    0  0.15319802594E+01  0.23748143466E+02 -0.24222753132E+01  0.23920466117E+02  0.00000000000E+00 0. -1.
</event>
<event>
 7    1  0.1874105E-013  0.7246159E+02  0.7816164E-02  0.1226708E+00
        -11   -1    0    0    0    0  0.00000000000E+00  0.00000000000E+00  0.45593999997E+02  0.45594000000E+02  0.51100000000E-03 0.  1.
         11   -1    0    0    0    0 -0.00000000000E+00 -0.00000000000E+00 -0.45593999997E+02  0.45594000000E+02  0.51100000000E-03 0. -1.
    9900012    2    1    2    0    0 -0.56212497035E+01 -0.13287990312E+02  0.11937726483E+02  0.72461589550E+02  0.70000025085E+02 0.  0.
        -12    1    1    2    0    0  0.56212497035E+01  0.13287990312E+02 -0.11937726483E+02  0.18726410450E+02  0.00000000000E+00 0.  1.
         11    1    3    3    0    0  0.17388039068E+02  0.75118700787E+01  0.67264722557E+01  0.20100187162E+02  0.51100000000E-03 0. -1.
        -11    1    3    3    0    0 -0.25395918073E+02  0.48703814693E+01  0.60873872109E+01  0.26565570834E+02  0.51100000000E-03 0.  1.
         12    1    3    3    0    0  0.23866293015E+01 -0.25670241860E+02 -0.87613298415E+00  0.25795831554E+02  0.00000000000E+00 0. -1.
</event>
<event>
 7    1  0.1874105E-013  0.7246158E+02  0.7816164E-02  0.1226708E+00
        -11   -1    0    0    0    0  0.00000000000E+00  0.00000000000E+00  0.45593999997E+02  0.45594000000E+02  0.51100000000E-03 0.  1.
         11   -1    0    0    0    0 -0.00000000000E+00 -0.00000000000E+00 -0.45593999997E+02  0.45594000000E+02  0.51100000000E-03 0. -1.
    9900012    2    1    2    0    0 -0.57111656440E+01  0.13465858868E+02 -0.11693254662E+02  0.72461575550E+02  0.70000006847E+02 0.  0.
        -12    1    1    2    0    0  0.57111656440E+01 -0.13465858868E+02  0.11693254662E+02  0.18726424450E+02  0.00000000000E+00 0.  1.
         11    1    3    3    0    0  0.26564023131E+02 -0.88507472399E+01 -0.43188806610E+01  0.28330827416E+02  0.51100000000E-03 0. -1.
        -11    1    3    3    0    0 -0.23448976062E+02  0.15700658003E+02  0.37460879696E+01  0.28467495770E+02  0.51100000000E-03 0.  1.
         12    1    3    3    0    0 -0.88262127132E+01  0.66159481054E+01 -0.11120461971E+02  0.15663252365E+02  0.00000000000E+00 0. -1.
</event>
<event>
 7    1  0.1874105E-013  0.7246159E+02  0.7816164E-02  0.1226708E+00
        -11   -1    0    0    0    0  0.00000000000E+00  0.00000000000E+00  0.45593999997E+02  0.45594000000E+02  0.51100000000E-03 0.  1.
         11   -1    0    0    0    0 -0.00000000000E+00 -0.00000000000E+00 -0.45593999997E+02  0.45594000000E+02  0.51100000000E-03 0. -1.
    9900012    2    1    2    0    0 -0.12695402686E+02  0.89864187826E+01 -0.10428305527E+02  0.72461587422E+02  0.70000022312E+02 0.  0.
        -12    1    1    2    0    0  0.12695402686E+02 -0.89864187826E+01  0.10428305527E+02  0.18726412578E+02  0.00000000000E+00 0.  1.
         11    1    3    3    0    0  0.36678848507E+00 -0.57663484102E+01 -0.10244358040E+02  0.11761470133E+02  0.51100000000E-03 0. -1.
        -11    1    3    3    0    0 -0.18690565947E+02  0.31679518310E+02  0.12460183192E+02  0.38835361479E+02  0.51100000000E-03 0.  1.
        -12    1    3    3    0    0  0.56283747761E+01 -0.16926751117E+02 -0.12644130680E+02  0.21864755810E+02  0.00000000000E+00 0.  1.
</event>
<event>
 7    1  0.1874105E-013  0.7246152E+02  0.7816164E-02  0.1226708E+00
        -11   -1    0    0    0    0  0.00000000000E+00  0.00000000000E+00  0.45593999997E+02  0.45594000000E+02  0.51100000000E-03 0. -1.
         11   -1    0    0    0    0 -0.00000000000E+00 -0.00000000000E+00 -0.45593999997E+02  0.45594000000E+02  0.51100000000E-03 0.  1.
    9900012    2    1    2    0    0  0.13426184750E+02 -0.12892806101E+02  0.20479817328E+01  0.72461518342E+02  0.69999932323E+02 0.  0.
        -12    1    1    2    0    0 -0.13426184750E+02  0.12892806101E+02 -0.20479817328E+01  0.18726481658E+02  0.00000000000E+00 0.  1.
         11    1    3    3    0    0  0.21050522240E+02 -0.13762861478E+02 -0.96967877230E+01  0.26954935264E+02  0.51100000000E-03 0. -1.
        -11    1    3    3    0    0 -0.90401736791E+01 -0.60589860201E+01  0.26771412299E+02  0.28898867945E+02  0.51100000000E-03 0.  1.
        -12    1    3    3    0    0  0.14158361892E+01  0.69290413974E+01 -0.15026642844E+02  0.16607715133E+02  0.00000000000E+00 0.  1.
</event>
<event>
 7    1  0.1874105E-013  0.7246154E+02  0.7816164E-02  0.1226708E+00
        -11   -1    0    0    0    0  0.00000000000E+00  0.00000000000E+00  0.45593999997E+02  0.45594000000E+02  0.51100000000E-03 0.  1.
         11   -1    0    0    0    0 -0.00000000000E+00 -0.00000000000E+00 -0.45593999997E+02  0.45594000000E+02  0.51100000000E-03 0. -1.
    9900012    2    1    2    0    0  0.16676599266E+02 -0.10025763724E+01  0.84596788013E+01  0.72461540434E+02  0.69999961102E+02 0.  0.
        -12    1    1    2    0    0 -0.16676599266E+02  0.10025763724E+01 -0.84596788013E+01  0.18726459566E+02  0.00000000000E+00 0.  1.
         11    1    3    3    0    0  0.16010883607E+02  0.23750489374E+01  0.61706800255E+01  0.17322428917E+02  0.51100000000E-03 0. -1.
        -11    1    3    3    0    0 -0.19282242393E+02  0.14444369619E+02  0.11698891080E+02  0.26782620076E+02  0.51100000000E-03 0.  1.
        -12    1    3    3    0    0  0.19947958051E+02 -0.17821994929E+02 -0.94098923045E+01  0.28356491441E+02  0.00000000000E+00 0.  1.
</event>
<event>
 7    1  0.1874105E-013  0.7246158E+02  0.7816164E-02  0.1226708E+00
        -11   -1    0    0    0    0  0.00000000000E+00  0.00000000000E+00  0.45593999997E+02  0.45594000000E+02  0.51100000000E-03 0.  1.
         11   -1    0    0    0    0 -0.00000000000E+00 -0.00000000000E+00 -0.45593999997E+02  0.45594000000E+02  0.51100000000E-03 0. -1.
    9900012    2    1    2    0    0 -0.95442872341E+01 -0.59291315980E+00 -0.16100738654E+02  0.72461581495E+02  0.70000014590E+02 0.  0.
        -12    1    1    2    0    0  0.95442872341E+01  0.59291315980E+00  0.16100738654E+02  0.18726418505E+02  0.00000000000E+00 0.  1.
         11    1    3    3    0    0 -0.16256112148E+02  0.25287010709E+02 -0.93896349236E+01  0.31493798390E+02  0.51100000000E-03 0. -1.
        -11    1    3    3    0    0  0.18436099892E+02 -0.11413389268E+02 -0.51175028466E+01  0.22278780699E+02  0.51100000000E-03 0.  1.
         12    1    3    3    0    0 -0.11724274978E+02 -0.14466534601E+02 -0.15936008841E+01  0.18689002406E+02  0.00000000000E+00 0. -1.
</event>
<event>
 7    1  0.1874105E-013  0.7246145E+02  0.7816164E-02  0.1226708E+00
        -11   -1    0    0    0    0  0.00000000000E+00  0.00000000000E+00  0.45593999997E+02  0.45594000000E+02  0.51100000000E-03 0.  1.
         11   -1    0    0    0    0 -0.00000000000E+00 -0.00000000000E+00 -0.45593999997E+02  0.45594000000E+02  0.51100000000E-03 0. -1.
    9900012    2    1    2    0    0  0.59295184746E+00 -0.59200009325E+01 -0.17756287151E+02  0.72461448360E+02  0.69999841158E+02 0.  0.
        -12    1    1    2    0    0 -0.59295184746E+00  0.59200009325E+01  0.17756287151E+02  0.18726551640E+02  0.00000000000E+00 0.  1.
         11    1    3    3    0    0 -0.45847612949E+01 -0.22238601176E+02 -0.19915852407E+02  0.30202923629E+02  0.51100000000E-03 0. -1.
        -11    1    3    3    0    0  0.19184594584E+02  0.18738494698E+02  0.61113108703E+01  0.27505053604E+02  0.51100000000E-03 0.  1.
        -12    1    3    3    0    0 -0.14006881442E+02 -0.24198944548E+01 -0.39517456144E+01  0.14753471127E+02  0.00000000000E+00 0.  1.
</event>
<event>
 7    1  0.1874105E-013  0.7246158E+02  0.7816164E-02  0.1226708E+00
        -11   -1    0    0    0    0  0.00000000000E+00  0.00000000000E+00  0.45593999997E+02  0.45594000000E+02  0.51100000000E-03 0.  1.
         11   -1    0    0    0    0 -0.00000000000E+00 -0.00000000000E+00 -0.45593999997E+02  0.45594000000E+02  0.51100000000E-03 0. -1.
    9900012    2    1    2    0    0  0.49532909835E+01 -0.86772611003E+01 -0.15838205872E+02  0.72461582376E+02  0.70000015739E+02 0.  0.
        -12    1    1    2    0    0 -0.49532909835E+01  0.86772611003E+01  0.15838205872E+02  0.18726417624E+02  0.00000000000E+00 0.  1.
         11    1    3    3    0    0 -0.14432677438E+02 -0.18714609275E+02  0.52719055750E+01  0.24214288488E+02  0.51100000000E-03 0. -1.
        -11    1    3    3    0    0  0.11371397906E+02  0.23127273442E+02 -0.54933220155E+01  0.26350636695E+02  0.51100000000E-03 0.  1.
         12    1    3    3    0    0  0.80145705156E+01 -0.13089925268E+02 -0.15616789432E+02  0.21896657193E+02  0.00000000000E+00 0. -1.
</event>
<event>
 7    1  0.1874105E-013  0.7246163E+02  0.7816164E-02  0.1226708E+00
        -11   -1    0    0    0    0  0.00000000000E+00  0.00000000000E+00  0.45593999997E+02  0.45594000000E+02  0.51100000000E-03 0.  1.
         11   -1    0    0    0    0 -0.00000000000E+00 -0.00000000000E+00 -0.45593999997E+02  0.45594000000E+02  0.51100000000E-03 0. -1.
    9900012    2    1    2    0    0  0.81912265102E+01  0.10272534699E+02 -0.13343760055E+02  0.72461625731E+02  0.70000072216E+02 0.  0.
        -12    1    1    2    0    0 -0.81912265102E+01 -0.10272534699E+02  0.13343760055E+02  0.18726374269E+02  0.00000000000E+00 0.  1.
         11    1    3    3    0    0  0.19787152859E+02  0.12499637115E+01 -0.17452991126E+02  0.26414025196E+02  0.51100000000E-03 0. -1.
        -11    1    3    3    0    0 -0.14998107781E+02  0.13551636269E+02  0.20449311784E+02  0.28753511703E+02  0.51100000000E-03 0.  1.
        -12    1    3    3    0    0  0.34021814323E+01 -0.45290652813E+01 -0.16340080713E+02  0.17294088832E+02  0.00000000000E+00 0.  1.
</event>
<event>
 7    1  0.1874105E-013  0.7246191E+02  0.7816164E-02  0.1226707E+00
        -11   -1    0    0    0    0  0.00000000000E+00  0.00000000000E+00  0.45593999997E+02  0.45594000000E+02  0.51100000000E-03 0.  1.
         11   -1    0    0    0    0 -0.00000000000E+00 -0.00000000000E+00 -0.45593999997E+02  0.45594000000E+02  0.51100000000E-03 0. -1.
    9900012    2    1    2    0    0  0.83012218220E+00 -0.48371494435E+01 -0.18071508476E+02  0.72461907611E+02  0.70000439416E+02 0.  0.
        -12    1    1    2    0    0 -0.83012218220E+00  0.48371494435E+01  0.18071508476E+02  0.18726092389E+02  0.00000000000E+00 0.  1.
         11    1    3    3    0    0  0.57676891185E+00 -0.12125251264E+02 -0.62691665442E+01  0.13662241032E+02  0.51100000000E-03 0. -1.
        -11    1    3    3    0    0 -0.23099365389E+02  0.11160496973E+02  0.91000082152E+01  0.27220351281E+02  0.51100000000E-03 0.  1.
        -12    1    3    3    0    0  0.23352718660E+02 -0.38723951520E+01 -0.20902350147E+02  0.31579315298E+02  0.00000000000E+00 0.  1.
</event>
<event>
 7    1  0.1874105E-013  0.7246154E+02  0.7816164E-02  0.1226708E+00
        -11   -1    0    0    0    0  0.00000000000E+00  0.00000000000E+00  0.45593999997E+02  0.45594000000E+02  0.51100000000E-03 0. -1.
         11   -1    0    0    0    0 -0.00000000000E+00 -0.00000000000E+00 -0.45593999997E+02  0.45594000000E+02  0.51100000000E-03 0.  1.
    9900012    2    1    2    0    0  0.10676255686E+02 -0.69103233792E+00  0.15369456462E+02  0.72461544033E+02  0.69999965790E+02 0.  0.
        -12    1    1    2    0    0 -0.10676255686E+02  0.69103233792E+00 -0.15369456462E+02  0.18726455967E+02  0.00000000000E+00 0.  1.
         11    1    3    3    0    0 -0.10678029948E+02  0.25791186608E+02  0.63540274283E+01  0.28628295357E+02  0.51100000000E-03 0. -1.
        -11    1    3    3    0    0 -0.17178758344E+00 -0.11659727775E+02 -0.65887416395E+01  0.13393665645E+02  0.51100000000E-03 0.  1.
         12    1    3    3    0    0  0.21526073217E+02 -0.14822491172E+02  0.15604170673E+02  0.30439583031E+02  0.00000000000E+00 0. -1.
</event>
<event>
 7    1  0.1874105E-013  0.7246158E+02  0.7816164E-02  0.1226708E+00
        -11   -1    0    0    0    0  0.00000000000E+00  0.00000000000E+00  0.45593999997E+02  0.45594000000E+02  0.51100000000E-03 0.  1.
         11   -1    0    0    0    0 -0.00000000000E+00 -0.00000000000E+00 -0.45593999997E+02  0.45594000000E+02  0.51100000000E-03 0. -1.
    9900012    2    1    2    0    0 -0.16059061657E+02  0.55120184887E+01 -0.78995685176E+01  0.72461575037E+02  0.70000006178E+02 0.  0.
        -12    1    1    2    0    0  0.16059061657E+02 -0.55120184887E+01  0.78995685176E+01  0.18726424963E+02  0.00000000000E+00 0.  1.
         11    1    3    3    0    0 -0.14243796854E+02  0.31732490245E+02  0.88997198885E+01  0.35903226879E+02  0.51100000000E-03 0. -1.
        -11    1    3    3    0    0 -0.21578369726E+01 -0.16934108138E+02  0.32613199447E+00  0.17074151257E+02  0.51100000000E-03 0.  1.
         12    1    3    3    0    0  0.34257216931E+00 -0.92863636188E+01 -0.17125420401E+02  0.19484196900E+02  0.00000000000E+00 0. -1.
</event>
<event>
 7    1  0.1874105E-013  0.7246165E+02  0.7816164E-02  0.1226708E+00
        -11   -1    0    0    0    0  0.00000000000E+00  0.00000000000E+00  0.45593999997E+02  0.45594000000E+02  0.51100000000E-03 0.  1.
         11   -1    0    0    0    0 -0.00000000000E+00 -0.00000000000E+00 -0.45593999997E+02  0.45594000000E+02  0.51100000000E-03 0. -1.
    9900012    2    1    2    0    0 -0.40820272310E+01  0.16808281407E+02  0.71760027633E+01  0.72461647290E+02  0.70000100301E+02 0.  0.
        -12    1    1    2    0    0  0.40820272310E+01 -0.16808281407E+02 -0.71760027633E+01  0.18726352710E+02  0.00000000000E+00 0.  1.
         11    1    3    3    0    0 -0.12838164339E+02  0.26765662504E+00 -0.26190639846E+02  0.29169156989E+02  0.51100000000E-03 0. -1.
        -11    1    3    3    0    0  0.11474771975E+02  0.14009340708E+02  0.34864728201E+02  0.39287164466E+02  0.51100000000E-03 0.  1.
        -12    1    3    3    0    0 -0.27186348678E+01  0.25312840737E+01 -0.14980855912E+01  0.40053258350E+01  0.00000000000E+00 0.  1.
</event>
<event>
 7    1  0.1874105E-013  0.7246160E+02  0.7816164E-02  0.1226708E+00
        -11   -1    0    0    0    0  0.00000000000E+00  0.00000000000E+00  0.45593999997E+02  0.45594000000E+02  0.51100000000E-03 0.  1.
         11   -1    0    0    0    0 -0.00000000000E+00 -0.00000000000E+00 -0.45593999997E+02  0.45594000000E+02  0.51100000000E-03 0. -1.
    9900012    2    1    2    0    0  0.18219940132E+02  0.14855243090E+01 -0.40626200478E+01  0.72461604657E+02  0.70000044764E+02 0.  0.
        -12    1    1    2    0    0 -0.18219940132E+02 -0.14855243090E+01  0.40626200478E+01  0.18726395343E+02  0.00000000000E+00 0.  1.
         11    1    3    3    0    0 -0.44556049657E+01 -0.45628963889E+01  0.21194422310E+02  0.22133142036E+02  0.51100000000E-03 0.  1.
        -11    1    3    3    0    0  0.85642954328E+01  0.12020168958E+01 -0.32579778430E+02  0.33708069711E+02  0.51100000000E-03 0. -1.
        -12    1    3    3    0    0  0.14111249665E+02  0.48464038021E+01  0.73227360714E+01  0.16620392910E+02  0.00000000000E+00 0.  1.
</event>
<event>
 7    1  0.1874105E-013  0.7246162E+02  0.7816164E-02  0.1226708E+00
        -11   -1    0    0    0    0  0.00000000000E+00  0.00000000000E+00  0.45593999997E+02  0.45594000000E+02  0.51100000000E-03 0. -1.
         11   -1    0    0    0    0 -0.00000000000E+00 -0.00000000000E+00 -0.45593999997E+02  0.45594000000E+02  0.51100000000E-03 0.  1.
    9900012    2    1    2    0    0 -0.34175968272E+01 -0.16060812869E+02  0.90026560756E+01  0.72461615018E+02  0.70000058261E+02 0.  0.
        -12    1    1    2    0    0  0.34175968272E+01  0.16060812869E+02 -0.90026560756E+01  0.18726384982E+02  0.00000000000E+00 0.  1.
         11    1    3    3    0    0 -0.15523057813E+02 -0.19293114005E+02 -0.33792267156E+00  0.24764970500E+02  0.51100000000E-03 0. -1.
        -11    1    3    3    0    0  0.81481431200E+01  0.18455543703E+02  0.20226656919E+02  0.28567761202E+02  0.51100000000E-03 0.  1.
        -12    1    3    3    0    0  0.39573178661E+01 -0.15223242567E+02 -0.10886078172E+02  0.19128883316E+02  0.00000000000E+00 0.  1.
</event>
<event>
 7    1  0.1874105E-013  0.7246146E+02  0.7816164E-02  0.1226708E+00
        -11   -1    0    0    0    0  0.00000000000E+00  0.00000000000E+00  0.45593999997E+02  0.45594000000E+02  0.51100000000E-03 0. -1.
         11   -1    0    0    0    0 -0.00000000000E+00 -0.00000000000E+00 -0.45593999997E+02  0.45594000000E+02  0.51100000000E-03 0.  1.
    9900012    2    1    2    0    0 -0.10823323418E+02  0.15857631521E+01  0.15199487982E+02  0.72461457086E+02  0.69999852525E+02 0.  0.
        -12    1    1    2    0    0  0.10823323418E+02 -0.15857631521E+01 -0.15199487982E+02  0.18726542914E+02  0.00000000000E+00 0.  1.
         11    1    3    3    0    0 -0.23181021522E+02 -0.47387069810E+01  0.36416585816E+02  0.43427903765E+02  0.51100000000E-03 0. -1.
        -11    1    3    3    0    0  0.58481762643E+01  0.50206207363E+00 -0.19190346926E+02  0.20067950751E+02  0.51100000000E-03 0.  1.
        -12    1    3    3    0    0  0.65095218394E+01  0.58224080594E+01 -0.20267509075E+01  0.89656025692E+01  0.00000000000E+00 0.  1.
</event>
<event>
 7    1  0.1874105E-013  0.7246158E+02  0.7816164E-02  0.1226708E+00
        -11   -1    0    0    0    0  0.00000000000E+00  0.00000000000E+00  0.45593999997E+02  0.45594000000E+02  0.51100000000E-03 0.  1.
         11   -1    0    0    0    0 -0.00000000000E+00 -0.00000000000E+00 -0.45593999997E+02  0.45594000000E+02  0.51100000000E-03 0. -1.
    9900012    2    1    2    0    0  0.13240186540E+02 -0.13191954978E+02  0.11613386982E+01  0.72461576868E+02  0.70000008563E+02 0.  0.
        -12    1    1    2    0    0 -0.13240186540E+02  0.13191954978E+02 -0.11613386982E+01  0.18726423132E+02  0.00000000000E+00 0.  1.
         11    1    3    3    0    0 -0.11851008480E+02 -0.31426819188E+02  0.36638310582E+01  0.33786314160E+02  0.51100000000E-03 0.  1.
        -11    1    3    3    0    0  0.27438360822E+02  0.92334517675E+01  0.32669514420E+00  0.28952150285E+02  0.51100000000E-03 0. -1.
        -12    1    3    3    0    0 -0.23471658027E+01  0.90014124418E+01 -0.28291875042E+01  0.97231124228E+01  0.00000000000E+00 0.  1.
</event>
<event>
 7    1  0.1874105E-013  0.7246159E+02  0.7816164E-02  0.1226708E+00
        -11   -1    0    0    0    0  0.00000000000E+00  0.00000000000E+00  0.45593999997E+02  0.45594000000E+02  0.51100000000E-03 0. -1.
         11   -1    0    0    0    0 -0.00000000000E+00 -0.00000000000E+00 -0.45593999997E+02  0.45594000000E+02  0.51100000000E-03 0.  1.
    9900012    2    1    2    0    0 -0.36218816130E+01  0.12064684557E+02  0.13856547449E+02  0.72461586913E+02  0.70000021649E+02 0.  0.
        -12    1    1    2    0    0  0.36218816130E+01 -0.12064684557E+02 -0.13856547449E+02  0.18726413087E+02  0.00000000000E+00 0.  1.
         11    1    3    3    0    0  0.19056088743E+02  0.67944751271E+01  0.53398709760E+01  0.20923996577E+02  0.51100000000E-03 0. -1.
        -11    1    3    3    0    0 -0.18177175960E+02  0.11520734016E+02 -0.15366158996E+02  0.26443446839E+02  0.51100000000E-03 0.  1.
        -12    1    3    3    0    0 -0.45007943965E+01 -0.62505245859E+01  0.23882835470E+02  0.25094143498E+02  0.00000000000E+00 0.  1.
</event>
<event>
 7    1  0.1874105E-013  0.7246138E+02  0.7816164E-02  0.1226709E+00
        -11   -1    0    0    0    0  0.00000000000E+00  0.00000000000E+00  0.45593999997E+02  0.45594000000E+02  0.51100000000E-03 0. -1.
         11   -1    0    0    0    0 -0.00000000000E+00 -0.00000000000E+00 -0.45593999997E+02  0.45594000000E+02  0.51100000000E-03 0.  1.
    9900012    2    1    2    0    0 -0.70847740376E+01  0.17145849924E+02  0.25518760945E+01  0.72461380861E+02  0.69999753227E+02 0.  0.
        -12    1    1    2    0    0  0.70847740376E+01 -0.17145849924E+02 -0.25518760945E+01  0.18726619139E+02  0.00000000000E+00 0.  1.
         11    1    3    3    0    0  0.12324146543E+02  0.83591410939E+01 -0.23654918866E+02  0.27952012712E+02  0.51100000000E-03 0. -1.
        -11    1    3    3    0    0  0.28147460779E+01 -0.19160574002E+01  0.18288828093E+02  0.18603099331E+02  0.51100000000E-03 0.  1.
         12    1    3    3    0    0 -0.22223666658E+02  0.10702766231E+02  0.79179668679E+01  0.25906268817E+02  0.00000000000E+00 0. -1.
</event>
<event>
 7    1  0.1874105E-013  0.7246159E+02  0.7816164E-02  0.1226708E+00
        -11   -1    0    0    0    0  0.00000000000E+00  0.00000000000E+00  0.45593999997E+02  0.45594000000E+02  0.51100000000E-03 0.  1.
         11   -1    0    0    0    0 -0.00000000000E+00 -0.00000000000E+00 -0.45593999997E+02  0.45594000000E+02  0.51100000000E-03 0. -1.
    9900012    2    1    2    0    0  0.14674999294E+02  0.46642492908E+01 -0.10656814811E+02  0.72461587433E+02  0.70000022326E+02 0.  0.
        -12    1    1    2    0    0 -0.14674999294E+02 -0.46642492908E+01  0.10656814811E+02  0.18726412567E+02  0.00000000000E+00 0.  1.
         11    1    3    3    0    0  0.29163785449E+02 -0.12910038862E+02 -0.16950935347E+02  0.36118273693E+02  0.51100000000E-03 0. -1.
        -11    1    3    3    0    0 -0.98457324657E+01 -0.43584257639E+01  0.86357720968E+01  0.13802567982E+02  0.51100000000E-03 0.  1.
         12    1    3    3    0    0 -0.46430536897E+01  0.21932713916E+02 -0.23416515603E+01  0.22540745758E+02  0.00000000000E+00 0. -1.
</event>
<event>
 7    1  0.1874105E-013  0.7246163E+02  0.7816164E-02  0.1226708E+00
        -11   -1    0    0    0    0  0.00000000000E+00  0.00000000000E+00  0.45593999997E+02  0.45594000000E+02  0.51100000000E-03 0.  1.
         11   -1    0    0    0    0 -0.00000000000E+00 -0.00000000000E+00 -0.45593999997E+02  0.45594000000E+02  0.51100000000E-03 0. -1.
    9900012    2    1    2    0    0  0.80081234267E+01  0.16874072500E+02  0.13463598380E+01  0.72461626930E+02  0.70000073779E+02 0.  0.
        -12    1    1    2    0    0 -0.80081234267E+01 -0.16874072500E+02 -0.13463598380E+01  0.18726373070E+02  0.00000000000E+00 0.  1.
         11    1    3    3    0    0  0.26268854718E+02  0.21948037616E+02 -0.12481854832E+02  0.36435776151E+02  0.51100000000E-03 0. -1.
        -11    1    3    3    0    0 -0.65725061749E+01 -0.91588113933E+00  0.20773867921E+02  0.21808032106E+02  0.51100000000E-03 0.  1.
        -12    1    3    3    0    0 -0.11688225117E+02 -0.41580839775E+01 -0.69456532504E+01  0.14217818673E+02  0.00000000000E+00 0.  1.
</event>
<event>
 7    1  0.1874105E-013  0.7246158E+02  0.7816164E-02  0.1226708E+00
        -11   -1    0    0    0    0  0.00000000000E+00  0.00000000000E+00  0.45593999997E+02  0.45594000000E+02  0.51100000000E-03 0. -1.
         11   -1    0    0    0    0 -0.00000000000E+00 -0.00000000000E+00 -0.45593999997E+02  0.45594000000E+02  0.51100000000E-03 0.  1.
    9900012    2    1    2    0    0  0.10882966278E+00 -0.17788213415E+02  0.58520443092E+01  0.72461580081E+02  0.70000012749E+02 0.  0.
        -12    1    1    2    0    0 -0.10882966278E+00  0.17788213415E+02 -0.58520443092E+01  0.18726419919E+02  0.00000000000E+00 0.  1.
         11    1    3    3    0    0  0.20483386246E+02 -0.57254693115E+01  0.28935880887E+02  0.35911492783E+02  0.51100000000E-03 0. -1.
        -11    1    3    3    0    0 -0.99448492965E+00 -0.85874745024E+01 -0.67619701187E+01  0.10975334107E+02  0.51100000000E-03 0.  1.
         12    1    3    3    0    0 -0.19380071653E+02 -0.34752696009E+01 -0.16321866459E+02  0.25574753191E+02  0.00000000000E+00 0. -1.
</event>
<event>
 7    1  0.1874105E-013  0.7246160E+02  0.7816164E-02  0.1226708E+00
        -11   -1    0    0    0    0  0.00000000000E+00  0.00000000000E+00  0.45593999997E+02  0.45594000000E+02  0.51100000000E-03 0.  1.
         11   -1    0    0    0    0 -0.00000000000E+00 -0.00000000000E+00 -0.45593999997E+02  0.45594000000E+02  0.51100000000E-03 0. -1.
    9900012    2    1    2    0    0  0.16013395779E+02 -0.92568182812E+01 -0.29258309432E+01  0.72461601100E+02  0.70000040130E+02 0.  0.
        -12    1    1    2    0    0 -0.16013395779E+02  0.92568182812E+01  0.29258309432E+01  0.18726398900E+02  0.00000000000E+00 0.  1.
         11    1    3    3    0    0  0.14616300464E+02 -0.79710935064E+01  0.28492616840E+02  0.33000057358E+02  0.51100000000E-03 0. -1.
        -11    1    3    3    0    0  0.10260944821E+02  0.26211019818E+01 -0.58037734316E+01  0.12076462666E+02  0.51100000000E-03 0.  1.
         12    1    3    3    0    0 -0.88638495057E+01 -0.39068267566E+01 -0.25614674352E+02  0.27385081076E+02  0.00000000000E+00 0. -1.
</event>
<event>
 7    1  0.1874105E-013  0.7246155E+02  0.7816164E-02  0.1226708E+00
        -11   -1    0    0    0    0  0.00000000000E+00  0.00000000000E+00  0.45593999997E+02  0.45594000000E+02  0.51100000000E-03 0. -1.
         11   -1    0    0    0    0 -0.00000000000E+00 -0.00000000000E+00 -0.45593999997E+02  0.45594000000E+02  0.51100000000E-03 0.  1.
    9900012    2    1    2    0    0 -0.10260192531E+02  0.98428062696E+01  0.12187186875E+02  0.72461550525E+02  0.69999974246E+02 0.  0.
        -12    1    1    2    0    0  0.10260192531E+02 -0.98428062696E+01 -0.12187186875E+02  0.18726449475E+02  0.00000000000E+00 0.  1.
         11    1    3    3    0    0 -0.10596184468E+02  0.34053781660E+02  0.10544250836E+02  0.37190326653E+02  0.51100000000E-03 0. -1.
        -11    1    3    3    0    0 -0.93416947715E+01 -0.15215373060E+02  0.91630001127E+01  0.20068268732E+02  0.51100000000E-03 0.  1.
        -12    1    3    3    0    0  0.96776867082E+01 -0.89956023303E+01 -0.75200640740E+01  0.15202955140E+02  0.00000000000E+00 0.  1.
</event>
<event>
 7    1  0.1874105E-013  0.7246155E+02  0.7816164E-02  0.1226708E+00
        -11   -1    0    0    0    0  0.00000000000E+00  0.00000000000E+00  0.45593999997E+02  0.45594000000E+02  0.51100000000E-03 0. -1.
         11   -1    0    0    0    0 -0.00000000000E+00 -0.00000000000E+00 -0.45593999997E+02  0.45594000000E+02  0.51100000000E-03 0.  1.
    9900012    2    1    2    0    0  0.18355132045E+02 -0.28655579593E+01  0.23574576717E+01  0.72461550750E+02  0.69999974540E+02 0.  0.
        -12    1    1    2    0    0 -0.18355132045E+02  0.28655579593E+01 -0.23574576717E+01  0.18726449250E+02  0.00000000000E+00 0.  1.
         11    1    3    3    0    0  0.25602703080E+02 -0.20713406200E+02  0.14650147207E+02  0.36044006643E+02  0.51100000000E-03 0. -1.
        -11    1    3    3    0    0  0.18836998604E+01  0.23475766421E+02 -0.86539287798E+01  0.25090843306E+02  0.51100000000E-03 0.  1.
        -12    1    3    3    0    0 -0.91312708950E+01 -0.56279181811E+01 -0.36387607560E+01  0.11326700802E+02  0.00000000000E+00 0.  1.
</event>
<event>
 7    1  0.1874105E-013  0.7246178E+02  0.7816164E-02  0.1226707E+00
        -11   -1    0    0    0    0  0.00000000000E+00  0.00000000000E+00  0.45593999997E+02  0.45594000000E+02  0.51100000000E-03 0.  1.
         11   -1    0    0    0    0 -0.00000000000E+00 -0.00000000000E+00 -0.45593999997E+02  0.45594000000E+02  0.51100000000E-03 0. -1.
    9900012    2    1    2    0    0  0.87520487205E+01  0.15504860776E+02 -0.58027799235E+01  0.72461779898E+02  0.70000273047E+02 0.  0.
        -12    1    1    2    0    0 -0.87520487205E+01 -0.15504860776E+02  0.58027799235E+01  0.18726220102E+02  0.00000000000E+00 0.  1.
         11    1    3    3    0    0  0.32970485369E+01  0.10875098513E+01 -0.32059708903E+01  0.47256170329E+01  0.51100000000E-03 0. -1.
        -11    1    3    3    0    0  0.18950453430E+02  0.30144095972E+00  0.26568792033E+02  0.32636042380E+02  0.51100000000E-03 0.  1.
        -12    1    3    3    0    0 -0.13495453247E+02  0.14115909965E+02 -0.29165601066E+02  0.35100120485E+02  0.00000000000E+00 0.  1.
</event>
<event>
 7    1  0.1874105E-013  0.7246165E+02  0.7816164E-02  0.1226708E+00
        -11   -1    0    0    0    0  0.00000000000E+00  0.00000000000E+00  0.45593999997E+02  0.45594000000E+02  0.51100000000E-03 0.  1.
         11   -1    0    0    0    0 -0.00000000000E+00 -0.00000000000E+00 -0.45593999997E+02  0.45594000000E+02  0.51100000000E-03 0. -1.
    9900012    2    1    2    0    0 -0.18580350084E+01 -0.58063390979E+01 -0.17706225011E+02  0.72461647661E+02  0.70000100784E+02 0.  0.
        -12    1    1    2    0    0  0.18580350084E+01  0.58063390979E+01  0.17706225011E+02  0.18726352339E+02  0.00000000000E+00 0.  1.
         11    1    3    3    0    0 -0.15096862461E+02  0.18950933494E+02 -0.29262452358E+02  0.37991370793E+02  0.51100000000E-03 0. -1.
        -11    1    3    3    0    0  0.10497022174E+02 -0.14103624525E+02 -0.12043421790E+01  0.17622432851E+02  0.51100000000E-03 0.  1.
         12    1    3    3    0    0  0.27418052787E+01 -0.10653648067E+02  0.12760569527E+02  0.16847844016E+02  0.00000000000E+00 0. -1.
</event>
<event>
 7    1  0.1874105E-013  0.7246159E+02  0.7816164E-02  0.1226708E+00
        -11   -1    0    0    0    0  0.00000000000E+00  0.00000000000E+00  0.45593999997E+02  0.45594000000E+02  0.51100000000E-03 0.  1.
         11   -1    0    0    0    0 -0.00000000000E+00 -0.00000000000E+00 -0.45593999997E+02  0.45594000000E+02  0.51100000000E-03 0. -1.
    9900012    2    1    2    0    0 -0.58168057617E+00  0.15168758517E+02 -0.10965804954E+02  0.72461589091E+02  0.70000024486E+02 0.  0.
        -12    1    1    2    0    0  0.58168057617E+00 -0.15168758517E+02  0.10965804954E+02  0.18726410909E+02  0.00000000000E+00 0.  1.
         11    1    3    3    0    0 -0.10340127893E+02  0.26750426871E+02  0.18268309325E+02  0.34003451420E+02  0.51100000000E-03 0.  1.
        -11    1    3    3    0    0  0.69490027216E+01  0.27514920033E+00 -0.24361831929E+02  0.25335019264E+02  0.51100000000E-03 0. -1.
        -12    1    3    3    0    0  0.28094445956E+01 -0.11856817554E+02 -0.48722823493E+01  0.13123118407E+02  0.00000000000E+00 0.  1.
</event>
<event>
 7    1  0.1874105E-013  0.7246158E+02  0.7816164E-02  0.1226708E+00
        -11   -1    0    0    0    0  0.00000000000E+00  0.00000000000E+00  0.45593999997E+02  0.45594000000E+02  0.51100000000E-03 0.  1.
         11   -1    0    0    0    0 -0.00000000000E+00 -0.00000000000E+00 -0.45593999997E+02  0.45594000000E+02  0.51100000000E-03 0. -1.
    9900012    2    1    2    0    0 -0.16663185454E+02 -0.15213469973E+01 -0.84084831328E+01  0.72461579233E+02  0.70000011644E+02 0.  0.
        -12    1    1    2    0    0  0.16663185454E+02  0.15213469973E+01  0.84084831328E+01  0.18726420767E+02  0.00000000000E+00 0.  1.
         11    1    3    3    0    0 -0.18477484764E+02  0.27332520655E+02 -0.10610130369E+02  0.34656298061E+02  0.51100000000E-03 0. -1.
        -11    1    3    3    0    0 -0.93524181287E+01 -0.23623338795E+02  0.12654143108E+01  0.25438772264E+02  0.51100000000E-03 0.  1.
         12    1    3    3    0    0  0.11166717439E+02 -0.52305288573E+01  0.93623292561E+00  0.12366508908E+02  0.00000000000E+00 0. -1.
</event>
<event>
 7    1  0.1874105E-013  0.7246157E+02  0.7816164E-02  0.1226708E+00
        -11   -1    0    0    0    0  0.00000000000E+00  0.00000000000E+00  0.45593999997E+02  0.45594000000E+02  0.51100000000E-03 0. -1.
         11   -1    0    0    0    0 -0.00000000000E+00 -0.00000000000E+00 -0.45593999997E+02  0.45594000000E+02  0.51100000000E-03 0.  1.
    9900012    2    1    2    0    0 -0.28718413817E+01  0.83989742834E+01  0.16489050688E+02  0.72461573899E+02  0.70000004696E+02 0.  0.
        -12    1    1    2    0    0  0.28718413817E+01 -0.83989742834E+01 -0.16489050688E+02  0.18726426101E+02  0.00000000000E+00 0.  1.
         11    1    3    3    0    0  0.15996120334E+02  0.81897624210E+01  0.21233965828E+02  0.27817788900E+02  0.51100000000E-03 0. -1.
        -11    1    3    3    0    0 -0.80575877748E+01 -0.61228003903E+01 -0.21476580601E+02  0.23741459937E+02  0.51100000000E-03 0.  1.
         12    1    3    3    0    0 -0.10810373941E+02  0.63320122527E+01  0.16731665460E+02  0.20902325062E+02  0.00000000000E+00 0. -1.
</event>
<event>
 7    1  0.1874105E-013  0.7246159E+02  0.7816164E-02  0.1226708E+00
        -11   -1    0    0    0    0  0.00000000000E+00  0.00000000000E+00  0.45593999997E+02  0.45594000000E+02  0.51100000000E-03 0.  1.
         11   -1    0    0    0    0 -0.00000000000E+00 -0.00000000000E+00 -0.45593999997E+02  0.45594000000E+02  0.51100000000E-03 0. -1.
    9900012    2    1    2    0    0 -0.11226889987E+02  0.14739243378E+02  0.27184755885E+01  0.72461589141E+02  0.70000024551E+02 0.  0.
        -12    1    1    2    0    0  0.11226889987E+02 -0.14739243378E+02 -0.27184755885E+01  0.18726410859E+02  0.00000000000E+00 0.  1.
         11    1    3    3    0    0 -0.33362686848E+02  0.20634790568E+02 -0.14295600905E+02  0.41751977929E+02  0.51100000000E-03 0. -1.
        -11    1    3    3    0    0  0.89738052594E+01 -0.81758983850E+01  0.92187392592E+01  0.15243347697E+02  0.51100000000E-03 0.  1.
         12    1    3    3    0    0  0.13161991602E+02  0.22803511951E+01  0.77953372339E+01  0.15466263514E+02  0.00000000000E+00 0. -1.
</event>
<event>
 7    1  0.1874105E-013  0.7246145E+02  0.7816164E-02  0.1226708E+00
        -11   -1    0    0    0    0  0.00000000000E+00  0.00000000000E+00  0.45593999997E+02  0.45594000000E+02  0.51100000000E-03 0. -1.
         11   -1    0    0    0    0 -0.00000000000E+00 -0.00000000000E+00 -0.45593999997E+02  0.45594000000E+02  0.51100000000E-03 0.  1.
    9900012    2    1    2    0    0  0.16950212990E+02  0.79454808108E+01 -0.49336614409E+00  0.72461446770E+02  0.69999839087E+02 0.  0.
        -12    1    1    2    0    0 -0.16950212990E+02 -0.79454808108E+01  0.49336614409E+00  0.18726553230E+02  0.00000000000E+00 0.  1.
         11    1    3    3    0    0 -0.40934462112E+01  0.64582933271E+01  0.70022407697E+01  0.10368087125E+02  0.51100000000E-03 0. -1.
        -11    1    3    3    0    0  0.19311241064E+02  0.11255869179E+02 -0.30051040233E+02  0.37452418370E+02  0.51100000000E-03 0.  1.
        -12    1    3    3    0    0  0.17324181369E+01 -0.97686816956E+01  0.22555433319E+02  0.24640941275E+02  0.00000000000E+00 0.  1.
</event>
<event>
 7    1  0.1874105E-013  0.7246155E+02  0.7816164E-02  0.1226708E+00
        -11   -1    0    0    0    0  0.00000000000E+00  0.00000000000E+00  0.45593999997E+02  0.45594000000E+02  0.51100000000E-03 0. -1.
         11   -1    0    0    0    0 -0.00000000000E+00 -0.00000000000E+00 -0.45593999997E+02  0.45594000000E+02  0.51100000000E-03 0.  1.
    9900012    2    1    2    0    0 -0.18237341839E+02  0.14468572401E+01 -0.39982194268E+01  0.72461553680E+02  0.69999978356E+02 0.  0.
        -12    1    1    2    0    0  0.18237341839E+02 -0.14468572401E+01  0.39982194268E+01  0.18726446320E+02  0.00000000000E+00 0.  1.
         11    1    3    3    0    0 -0.51421848581E+01  0.23157524249E+02 -0.14302728624E+02  0.27699838281E+02  0.51100000000E-03 0.  1.
        -11    1    3    3    0    0 -0.22326710268E+02 -0.18689874413E+02  0.16278510171E+02  0.33358406596E+02  0.51100000000E-03 0. -1.
         12    1    3    3    0    0  0.92315532879E+01 -0.30207925960E+01 -0.59740009736E+01  0.11403308803E+02  0.00000000000E+00 0. -1.
</event>
<event>
 7    1  0.1874105E-013  0.7246154E+02  0.7816164E-02  0.1226708E+00
        -11   -1    0    0    0    0  0.00000000000E+00  0.00000000000E+00  0.45593999997E+02  0.45594000000E+02  0.51100000000E-03 0.  1.
         11   -1    0    0    0    0 -0.00000000000E+00 -0.00000000000E+00 -0.45593999997E+02  0.45594000000E+02  0.51100000000E-03 0. -1.
    9900012    2    1    2    0    0  0.13388481962E+01 -0.45790711161E+01 -0.18108559764E+02  0.72461538949E+02  0.69999959166E+02 0.  0.
        -12    1    1    2    0    0 -0.13388481962E+01  0.45790711161E+01  0.18108559764E+02  0.18726461051E+02  0.00000000000E+00 0.  1.
         11    1    3    3    0    0  0.31217822370E+01  0.53793806920E+01 -0.11791817983E+01  0.63303815793E+01  0.51100000000E-03 0. -1.
        -11    1    3    3    0    0 -0.29229273731E+01 -0.92915024322E+01  0.23625570423E+02  0.25554707980E+02  0.51100000000E-03 0.  1.
        -12    1    3    3    0    0  0.11399933322E+01 -0.66694937597E+00 -0.40554948388E+02  0.40576449390E+02  0.00000000000E+00 0.  1.
</event>
<event>
 7    1  0.1874105E-013  0.7246151E+02  0.7816164E-02  0.1226708E+00
        -11   -1    0    0    0    0  0.00000000000E+00  0.00000000000E+00  0.45593999997E+02  0.45594000000E+02  0.51100000000E-03 0. -1.
         11   -1    0    0    0    0 -0.00000000000E+00 -0.00000000000E+00 -0.45593999997E+02  0.45594000000E+02  0.51100000000E-03 0.  1.
    9900012    2    1    2    0    0 -0.61272817937E-01  0.79315638159E+01  0.16963729006E+02  0.72461506449E+02  0.69999916829E+02 0.  0.
        -12    1    1    2    0    0  0.61272817937E-01 -0.79315638159E+01 -0.16963729006E+02  0.18726493551E+02  0.00000000000E+00 0.  1.
         11    1    3    3    0    0  0.28586531495E+02 -0.50471583727E+01  0.19897617322E+02  0.35193447770E+02  0.51100000000E-03 0. -1.
        -11    1    3    3    0    0 -0.21509328804E+02 -0.61176054225E+00  0.55586515416E+00  0.21525205293E+02  0.51100000000E-03 0.  1.
         12    1    3    3    0    0 -0.71384755088E+01  0.13590482731E+02 -0.34897534697E+01  0.15742853386E+02  0.00000000000E+00 0. -1.
</event>
<event>
 7    1  0.1874105E-013  0.7246153E+02  0.7816164E-02  0.1226708E+00
        -11   -1    0    0    0    0  0.00000000000E+00  0.00000000000E+00  0.45593999997E+02  0.45594000000E+02  0.51100000000E-03 0.  1.
         11   -1    0    0    0    0 -0.00000000000E+00 -0.00000000000E+00 -0.45593999997E+02  0.45594000000E+02  0.51100000000E-03 0. -1.
    9900012    2    1    2    0    0 -0.81974849286E+01 -0.43369171736E+01 -0.16268775503E+02  0.72461530336E+02  0.69999947947E+02 0.  0.
        -12    1    1    2    0    0  0.81974849286E+01  0.43369171736E+01  0.16268775503E+02  0.18726469664E+02  0.00000000000E+00 0.  1.
         11    1    3    3    0    0 -0.26048592314E+01 -0.18439146368E+02 -0.12194961635E+02  0.22259930367E+02  0.51100000000E-03 0. -1.
        -11    1    3    3    0    0 -0.21723383006E+02  0.12722324872E+02  0.11554281768E+02  0.27699536942E+02  0.51100000000E-03 0.  1.
        -12    1    3    3    0    0  0.16130757308E+02  0.13799043231E+01 -0.15628095635E+02  0.22502063027E+02  0.00000000000E+00 0.  1.
</event>
<event>
 7    1  0.1874105E-013  0.7246157E+02  0.7816164E-02  0.1226708E+00
        -11   -1    0    0    0    0  0.00000000000E+00  0.00000000000E+00  0.45593999997E+02  0.45594000000E+02  0.51100000000E-03 0.  1.
         11   -1    0    0    0    0 -0.00000000000E+00 -0.00000000000E+00 -0.45593999997E+02  0.45594000000E+02  0.51100000000E-03 0. -1.
    9900012    2    1    2    0    0  0.28386886039E+01 -0.16147693857E+02 -0.90483789676E+01  0.72461565961E+02  0.69999994355E+02 0.  0.
        -12    1    1    2    0    0 -0.28386886039E+01  0.16147693857E+02  0.90483789676E+01  0.18726434039E+02  0.00000000000E+00 0.  1.
         11    1    3    3    0    0  0.20760231637E+02  0.51906959164E+01 -0.43937558373E+01  0.21845723434E+02  0.51100000000E-03 0. -1.
        -11    1    3    3    0    0 -0.19957141024E+02  0.47672096616E+01 -0.11539628264E+02  0.23540959762E+02  0.51100000000E-03 0.  1.
         12    1    3    3    0    0  0.20355979903E+01 -0.26105599435E+02  0.68850051336E+01  0.27074882765E+02  0.00000000000E+00 0. -1.
</event>
<event>
 7    1  0.1874105E-013  0.7246169E+02  0.7816164E-02  0.1226708E+00
        -11   -1    0    0    0    0  0.00000000000E+00  0.00000000000E+00  0.45593999997E+02  0.45594000000E+02  0.51100000000E-03 0. -1.
         11   -1    0    0    0    0 -0.00000000000E+00 -0.00000000000E+00 -0.45593999997E+02  0.45594000000E+02  0.51100000000E-03 0.  1.
    9900012    2    1    2    0    0  0.69015177198E+00  0.35356449996E+01  0.18376553686E+02  0.72461686417E+02  0.70000151271E+02 0.  0.
        -12    1    1    2    0    0 -0.69015177198E+00 -0.35356449996E+01 -0.18376553686E+02  0.18726313583E+02  0.00000000000E+00 0.  1.
         11    1    3    3    0    0 -0.85830530993E+01  0.70644809496E+01  0.10135581285E+02  0.15043460368E+02  0.51100000000E-03 0. -1.
        -11    1    3    3    0    0  0.31267170407E+02 -0.99233662449E+01  0.10396967028E+02  0.34412295281E+02  0.51100000000E-03 0.  1.
        -12    1    3    3    0    0 -0.21993965536E+02  0.63945302949E+01 -0.21559946264E+01  0.23005930768E+02  0.00000000000E+00 0.  1.
</event>
<event>
 7    1  0.1874105E-013  0.7246160E+02  0.7816164E-02  0.1226708E+00
        -11   -1    0    0    0    0  0.00000000000E+00  0.00000000000E+00  0.45593999997E+02  0.45594000000E+02  0.51100000000E-03 0. -1.
         11   -1    0    0    0    0 -0.00000000000E+00 -0.00000000000E+00 -0.45593999997E+02  0.45594000000E+02  0.51100000000E-03 0.  1.
    9900012    2    1    2    0    0 -0.15076416713E+01 -0.15945926485E+02  0.97021809394E+01  0.72461604995E+02  0.70000045204E+02 0.  0.
        -12    1    1    2    0    0  0.15076416713E+01  0.15945926485E+02 -0.97021809394E+01  0.18726395005E+02  0.00000000000E+00 0.  1.
         11    1    3    3    0    0 -0.11841534556E+02 -0.13656419199E+02  0.17966397392E+02  0.25485508853E+02  0.51100000000E-03 0. -1.
        -11    1    3    3    0    0  0.37942006706E+01 -0.16456712579E+02 -0.20919280353E+02  0.26885602809E+02  0.51100000000E-03 0.  1.
        -12    1    3    3    0    0  0.65396922137E+01  0.14167205293E+02  0.12655063900E+02  0.20090493334E+02  0.00000000000E+00 0.  1.
</event>
<event>
 7    1  0.1874105E-013  0.7246156E+02  0.7816164E-02  0.1226708E+00
        -11   -1    0    0    0    0  0.00000000000E+00  0.00000000000E+00  0.45593999997E+02  0.45594000000E+02  0.51100000000E-03 0.  1.
         11   -1    0    0    0    0 -0.00000000000E+00 -0.00000000000E+00 -0.45593999997E+02  0.45594000000E+02  0.51100000000E-03 0. -1.
    9900012    2    1    2    0    0 -0.16955671820E+02 -0.34697520218E-01  0.79488105572E+01  0.72461558799E+02  0.69999985025E+02 0.  0.
        -12    1    1    2    0    0  0.16955671820E+02  0.34697520218E-01 -0.79488105572E+01  0.18726441201E+02  0.00000000000E+00 0.  1.
         11    1    3    3    0    0 -0.77025064516E+01  0.25971718385E+02 -0.11814820369E+02  0.29554166240E+02  0.51100000000E-03 0. -1.
        -11    1    3    3    0    0 -0.64063546308E+01 -0.17049310773E+02  0.25914756734E+02  0.31674832191E+02  0.51100000000E-03 0.  1.
        -12    1    3    3    0    0 -0.28468107376E+01 -0.89571051325E+01 -0.61511258078E+01  0.11232560369E+02  0.00000000000E+00 0.  1.
</event>
<event>
 7    1  0.1874105E-013  0.7246159E+02  0.7816164E-02  0.1226708E+00
        -11   -1    0    0    0    0  0.00000000000E+00  0.00000000000E+00  0.45593999997E+02  0.45594000000E+02  0.51100000000E-03 0.  1.
         11   -1    0    0    0    0 -0.00000000000E+00 -0.00000000000E+00 -0.45593999997E+02  0.45594000000E+02  0.51100000000E-03 0. -1.
    9900012    2    1    2    0    0 -0.13327863050E+02 -0.13993563309E+01 -0.13080073243E+02  0.72461589568E+02  0.70000025107E+02 0.  0.
        -12    1    1    2    0    0  0.13327863050E+02  0.13993563309E+01  0.13080073243E+02  0.18726410432E+02  0.00000000000E+00 0.  1.
         11    1    3    3    0    0  0.15361652267E+02  0.32589451786E+01 -0.24638880210E+02  0.29217725824E+02  0.51100000000E-03 0. -1.
        -11    1    3    3    0    0 -0.20417726422E+02  0.46142776972E+01  0.19408808340E+02  0.28546049680E+02  0.51100000000E-03 0.  1.
        -12    1    3    3    0    0 -0.82717888958E+01 -0.92725792067E+01 -0.78500013731E+01  0.14697814063E+02  0.00000000000E+00 0.  1.
</event>
<event>
 7    1  0.1874105E-013  0.7246187E+02  0.7816164E-02  0.1226707E+00
        -11   -1    0    0    0    0  0.00000000000E+00  0.00000000000E+00  0.45593999997E+02  0.45594000000E+02  0.51100000000E-03 0. -1.
         11   -1    0    0    0    0 -0.00000000000E+00 -0.00000000000E+00 -0.45593999997E+02  0.45594000000E+02  0.51100000000E-03 0.  1.
    9900012    2    1    2    0    0 -0.80621762997E+01  0.16471232646E+02  0.37904706703E+01  0.72461872277E+02  0.70000393388E+02 0.  0.
        -12    1    1    2    0    0  0.80621762997E+01 -0.16471232646E+02 -0.37904706703E+01  0.18726127723E+02  0.00000000000E+00 0.  1.
         11    1    3    3    0    0  0.54788657066E+01 -0.23690872716E+02  0.54655346079E+01  0.24922830664E+02  0.51100000000E-03 0. -1.
        -11    1    3    3    0    0 -0.23208696340E+01  0.15733733076E+02 -0.10716227302E+02  0.19177443005E+02  0.51100000000E-03 0.  1.
         12    1    3    3    0    0 -0.11220172372E+02  0.24428372287E+02  0.90411633644E+01  0.28361598609E+02  0.00000000000E+00 0. -1.
</event>
<event>
 7    1  0.1874105E-013  0.7246157E+02  0.7816164E-02  0.1226708E+00
        -11   -1    0    0    0    0  0.00000000000E+00  0.00000000000E+00  0.45593999997E+02  0.45594000000E+02  0.51100000000E-03 0. -1.
         11   -1    0    0    0    0 -0.00000000000E+00 -0.00000000000E+00 -0.45593999997E+02  0.45594000000E+02  0.51100000000E-03 0.  1.
    9900012    2    1    2    0    0  0.12541537959E+02  0.13656717123E+02  0.26235550548E+01  0.72461571134E+02  0.70000001094E+02 0.  0.
        -12    1    1    2    0    0 -0.12541537959E+02 -0.13656717123E+02 -0.26235550548E+01  0.18726428866E+02  0.00000000000E+00 0.  1.
         11    1    3    3    0    0 -0.18811383309E+02 -0.11156871276E+02  0.71114231905E+01  0.22998179466E+02  0.51100000000E-03 0. -1.
        -11    1    3    3    0    0  0.25818193110E+02  0.61164315781E+01  0.61712279879E+01  0.27241033127E+02  0.51100000000E-03 0.  1.
         12    1    3    3    0    0  0.55347281582E+01  0.18697156821E+02 -0.10659096124E+02  0.22222358542E+02  0.00000000000E+00 0. -1.
</event>
<event>
 7    1  0.1874105E-013  0.7246155E+02  0.7816164E-02  0.1226708E+00
        -11   -1    0    0    0    0  0.00000000000E+00  0.00000000000E+00  0.45593999997E+02  0.45594000000E+02  0.51100000000E-03 0.  1.
         11   -1    0    0    0    0 -0.00000000000E+00 -0.00000000000E+00 -0.45593999997E+02  0.45594000000E+02  0.51100000000E-03 0. -1.
    9900012    2    1    2    0    0  0.16270564894E+02  0.85163332200E+01 -0.36634347200E+01  0.72461548990E+02  0.69999972248E+02 0.  0.
        -12    1    1    2    0    0 -0.16270564894E+02 -0.85163332200E+01  0.36634347200E+01  0.18726451010E+02  0.00000000000E+00 0.  1.
         11    1    3    3    0    0  0.13809321476E+02  0.15228499930E+02 -0.30350531748E+02  0.36657323244E+02  0.51100000000E-03 0. -1.
        -11    1    3    3    0    0 -0.47068876524E+01  0.38539259633E+01  0.20933731292E+02  0.21799739511E+02  0.51100000000E-03 0.  1.
        -12    1    3    3    0    0  0.71681310699E+01 -0.10566092673E+02  0.57533657367E+01  0.14004486235E+02  0.00000000000E+00 0.  1.
</event>
<event>
 7    1  0.1874105E-013  0.7246159E+02  0.7816164E-02  0.1226708E+00
        -11   -1    0    0    0    0  0.00000000000E+00  0.00000000000E+00  0.45593999997E+02  0.45594000000E+02  0.51100000000E-03 0.  1.
         11   -1    0    0    0    0 -0.00000000000E+00 -0.00000000000E+00 -0.45593999997E+02  0.45594000000E+02  0.51100000000E-03 0. -1.
    9900012    2    1    2    0    0  0.14834378959E+02 -0.98597660271E+01 -0.57796638084E+01  0.72461593539E+02  0.70000030281E+02 0.  0.
        -12    1    1    2    0    0 -0.14834378959E+02  0.98597660271E+01  0.57796638084E+01  0.18726406461E+02  0.00000000000E+00 0.  1.
         11    1    3    3    0    0  0.23206922491E+02 -0.15786543586E+02  0.24126517788E+02  0.37011688299E+02  0.51100000000E-03 0.  1.
        -11    1    3    3    0    0 -0.12898563506E+02  0.28652922203E+01 -0.24048669755E+02  0.27439412480E+02  0.51100000000E-03 0. -1.
        -12    1    3    3    0    0  0.45260199737E+01  0.30614853391E+01 -0.58575118412E+01  0.80104927597E+01  0.00000000000E+00 0.  1.
</event>
<event>
 7    1  0.1874105E-013  0.7246162E+02  0.7816164E-02  0.1226708E+00
        -11   -1    0    0    0    0  0.00000000000E+00  0.00000000000E+00  0.45593999997E+02  0.45594000000E+02  0.51100000000E-03 0. -1.
         11   -1    0    0    0    0 -0.00000000000E+00 -0.00000000000E+00 -0.45593999997E+02  0.45594000000E+02  0.51100000000E-03 0.  1.
    9900012    2    1    2    0    0 -0.14471295917E+02  0.61753928627E+01  0.10154979474E+02  0.72461615121E+02  0.70000058395E+02 0.  0.
        -12    1    1    2    0    0  0.14471295917E+02 -0.61753928627E+01 -0.10154979474E+02  0.18726384879E+02  0.00000000000E+00 0.  1.
         11    1    3    3    0    0  0.17335282837E+02  0.13432090517E+01  0.23262857705E+02  0.29042671889E+02  0.51100000000E-03 0. -1.
        -11    1    3    3    0    0 -0.21274026809E+02  0.15014814371E+02 -0.44930890318E+01  0.26423790731E+02  0.51100000000E-03 0.  1.
         12    1    3    3    0    0 -0.10532551945E+02 -0.10182630560E+02 -0.86147891997E+01  0.16995152501E+02  0.00000000000E+00 0. -1.
</event>
<event>
 7    1  0.1874105E-013  0.7246150E+02  0.7816164E-02  0.1226708E+00
        -11   -1    0    0    0    0  0.00000000000E+00  0.00000000000E+00  0.45593999997E+02  0.45594000000E+02  0.51100000000E-03 0.  1.
         11   -1    0    0    0    0 -0.00000000000E+00 -0.00000000000E+00 -0.45593999997E+02  0.45594000000E+02  0.51100000000E-03 0. -1.
    9900012    2    1    2    0    0 -0.10595445622E+02  0.12198706526E+02 -0.94662439826E+01  0.72461503158E+02  0.69999912542E+02 0.  0.
        -12    1    1    2    0    0  0.10595445622E+02 -0.12198706526E+02  0.94662439826E+01  0.18726496842E+02  0.00000000000E+00 0.  1.
         11    1    3    3    0    0 -0.50254278950E+01 -0.24409531184E+02 -0.19367828229E+02  0.31562523802E+02  0.51100000000E-03 0.  1.
        -11    1    3    3    0    0 -0.92433607183E+01  0.32345478382E+02  0.63202723604E+01  0.34228869863E+02  0.51100000000E-03 0. -1.
        -12    1    3    3    0    0  0.36733429910E+01  0.42627593286E+01  0.35813118862E+01  0.66701094931E+01  0.00000000000E+00 0.  1.
</event>
<event>
 7    1  0.1874105E-013  0.7246157E+02  0.7816164E-02  0.1226708E+00
        -11   -1    0    0    0    0  0.00000000000E+00  0.00000000000E+00  0.45593999997E+02  0.45594000000E+02  0.51100000000E-03 0.  1.
         11   -1    0    0    0    0 -0.00000000000E+00 -0.00000000000E+00 -0.45593999997E+02  0.45594000000E+02  0.51100000000E-03 0. -1.
    9900012    2    1    2    0    0  0.15978641626E+02  0.35371693505E+01  0.91022266665E+01  0.72461572538E+02  0.70000002922E+02 0.  0.
        -12    1    1    2    0    0 -0.15978641626E+02 -0.35371693505E+01 -0.91022266665E+01  0.18726427462E+02  0.00000000000E+00 0.  1.
         11    1    3    3    0    0 -0.85048818803E+01 -0.17804480881E+02 -0.14886302163E+02  0.24717090192E+02  0.51100000000E-03 0. -1.
        -11    1    3    3    0    0  0.72634962843E+01  0.22709964967E+02  0.15987798214E+02  0.28707326226E+02  0.51100000000E-03 0.  1.
        -12    1    3    3    0    0  0.17220027222E+02 -0.13683147354E+01  0.80007306148E+01  0.19037156119E+02  0.00000000000E+00 0.  1.
</event>
<event>
 7    1  0.1874105E-013  0.7246158E+02  0.7816164E-02  0.1226708E+00
        -11   -1    0    0    0    0  0.00000000000E+00  0.00000000000E+00  0.45593999997E+02  0.45594000000E+02  0.51100000000E-03 0.  1.
         11   -1    0    0    0    0 -0.00000000000E+00 -0.00000000000E+00 -0.45593999997E+02  0.45594000000E+02  0.51100000000E-03 0. -1.
    9900012    2    1    2    0    0 -0.17141294763E+02  0.74440926775E+01  0.12001390284E+01  0.72461579209E+02  0.70000011613E+02 0.  0.
        -12    1    1    2    0    0  0.17141294763E+02 -0.74440926775E+01 -0.12001390284E+01  0.18726420791E+02  0.00000000000E+00 0.  1.
         11    1    3    3    0    0 -0.71985210829E+01  0.10635139036E+02 -0.16332445008E+02  0.20776757405E+02  0.51100000000E-03 0. -1.
        -11    1    3    3    0    0 -0.11879600544E+02  0.18113319308E+02  0.20816072671E+02  0.30042072617E+02  0.51100000000E-03 0.  1.
         12    1    3    3    0    0  0.19368268640E+01 -0.21304365666E+02 -0.32834886352E+01  0.21642749187E+02  0.00000000000E+00 0. -1.
</event>
<event>
 7    1  0.1874105E-013  0.7246159E+02  0.7816164E-02  0.1226708E+00
        -11   -1    0    0    0    0  0.00000000000E+00  0.00000000000E+00  0.45593999997E+02  0.45594000000E+02  0.51100000000E-03 0. -1.
         11   -1    0    0    0    0 -0.00000000000E+00 -0.00000000000E+00 -0.45593999997E+02  0.45594000000E+02  0.51100000000E-03 0.  1.
    9900012    2    1    2    0    0 -0.52739520175E+01  0.93822967638E+01  0.15324376685E+02  0.72461585948E+02  0.70000020392E+02 0.  0.
        -12    1    1    2    0    0  0.52739520175E+01 -0.93822967638E+01 -0.15324376685E+02  0.18726414052E+02  0.00000000000E+00 0.  1.
         11    1    3    3    0    0  0.98912383763E+01 -0.12073961851E+02  0.26227550396E+02  0.30520510340E+02  0.51100000000E-03 0. -1.
        -11    1    3    3    0    0 -0.86912890270E+01  0.25794355371E+02  0.15358350136E+01  0.27262539563E+02  0.51100000000E-03 0.  1.
        -12    1    3    3    0    0 -0.64739013668E+01 -0.43380967564E+01 -0.12439008725E+02  0.14678536045E+02  0.00000000000E+00 0.  1.
</event>
<event>
 7    1  0.1874105E-013  0.7246179E+02  0.7816164E-02  0.1226707E+00
        -11   -1    0    0    0    0  0.00000000000E+00  0.00000000000E+00  0.45593999997E+02  0.45594000000E+02  0.51100000000E-03 0.  1.
         11   -1    0    0    0    0 -0.00000000000E+00 -0.00000000000E+00 -0.45593999997E+02  0.45594000000E+02  0.51100000000E-03 0. -1.
    9900012    2    1    2    0    0  0.83368620107E+01 -0.15854750791E+02 -0.54584419946E+01  0.72461788962E+02  0.70000284854E+02 0.  0.
        -12    1    1    2    0    0 -0.83368620107E+01  0.15854750791E+02  0.54584419946E+01  0.18726211038E+02  0.00000000000E+00 0.  1.
         11    1    3    3    0    0 -0.76780103367E+01 -0.96108020835E+01  0.22492079301E+02  0.25636165684E+02  0.51100000000E-03 0.  1.
        -11    1    3    3    0    0  0.20956477313E+02  0.51592820108E+01 -0.26704439428E+02  0.34335393076E+02  0.51100000000E-03 0. -1.
         12    1    3    3    0    0 -0.49416049660E+01 -0.11403230719E+02 -0.12460818676E+01  0.12490230201E+02  0.00000000000E+00 0. -1.
</event>
<event>
 7    1  0.1874105E-013  0.7246160E+02  0.7816164E-02  0.1226708E+00
        -11   -1    0    0    0    0  0.00000000000E+00  0.00000000000E+00  0.45593999997E+02  0.45594000000E+02  0.51100000000E-03 0. -1.
         11   -1    0    0    0    0 -0.00000000000E+00 -0.00000000000E+00 -0.45593999997E+02  0.45594000000E+02  0.51100000000E-03 0.  1.
    9900012    2    1    2    0    0 -0.12213460773E+02 -0.34282469179E+01  0.13775214060E+02  0.72461600897E+02  0.70000039865E+02 0.  0.
        -12    1    1    2    0    0  0.12213460773E+02  0.34282469179E+01 -0.13775214060E+02  0.18726399103E+02  0.00000000000E+00 0.  1.
         11    1    3    3    0    0  0.66147191730E+01  0.51623160715E+01 -0.91251831746E+01  0.12396490842E+02  0.51100000000E-03 0. -1.
        -11    1    3    3    0    0 -0.33114621419E+02 -0.14274842588E+02  0.25902283091E+02  0.44399071525E+02  0.51100000000E-03 0.  1.
        -12    1    3    3    0    0  0.14286441474E+02  0.56842795987E+01 -0.30018858566E+01  0.15666038530E+02  0.00000000000E+00 0.  1.
</event>
<event>
 7    1  0.1874105E-013  0.7246171E+02  0.7816164E-02  0.1226708E+00
        -11   -1    0    0    0    0  0.00000000000E+00  0.00000000000E+00  0.45593999997E+02  0.45594000000E+02  0.51100000000E-03 0. -1.
         11   -1    0    0    0    0 -0.00000000000E+00 -0.00000000000E+00 -0.45593999997E+02  0.45594000000E+02  0.51100000000E-03 0.  1.
    9900012    2    1    2    0    0  0.10024019890E+02 -0.13129507951E+02  0.88209327575E+01  0.72461713435E+02  0.70000186468E+02 0.  0.
        -12    1    1    2    0    0 -0.10024019890E+02  0.13129507951E+02 -0.88209327575E+01  0.18726286565E+02  0.00000000000E+00 0.  1.
         11    1    3    3    0    0  0.68041781505E+01  0.16852041744E+02 -0.10132438815E+02  0.20807557950E+02  0.51100000000E-03 0. -1.
        -11    1    3    3    0    0 -0.14818195127E+02 -0.17866227916E+02  0.61315897893E+00  0.23219753895E+02  0.51100000000E-03 0.  1.
         12    1    3    3    0    0  0.18038036867E+02 -0.12115321779E+02  0.18340212594E+02  0.28434401590E+02  0.00000000000E+00 0. -1.
</event>
<event>
 7    1  0.1874105E-013  0.7246157E+02  0.7816164E-02  0.1226708E+00
        -11   -1    0    0    0    0  0.00000000000E+00  0.00000000000E+00  0.45593999997E+02  0.45594000000E+02  0.51100000000E-03 0.  1.
         11   -1    0    0    0    0 -0.00000000000E+00 -0.00000000000E+00 -0.45593999997E+02  0.45594000000E+02  0.51100000000E-03 0. -1.
    9900012    2    1    2    0    0  0.15528635168E+02  0.93519615463E+01 -0.46990899049E+01  0.72461571059E+02  0.70000000997E+02 0.  0.
        -12    1    1    2    0    0 -0.15528635168E+02 -0.93519615463E+01  0.46990899049E+01  0.18726428941E+02  0.00000000000E+00 0.  1.
         11    1    3    3    0    0  0.16014896482E+01 -0.10542783930E+02  0.15545862501E+02  0.18851761277E+02  0.51100000000E-03 0. -1.
        -11    1    3    3    0    0 -0.83056221660E+01  0.19050619983E+02  0.34944515441E+01  0.21074170758E+02  0.51100000000E-03 0.  1.
         12    1    3    3    0    0  0.22232767685E+02  0.84412549278E+00 -0.23739403950E+02  0.32535639024E+02  0.00000000000E+00 0. -1.
</event>
<event>
 7    1  0.1874105E-013  0.7246158E+02  0.7816164E-02  0.1226708E+00
        -11   -1    0    0    0    0  0.00000000000E+00  0.00000000000E+00  0.45593999997E+02  0.45594000000E+02  0.51100000000E-03 0.  1.
         11   -1    0    0    0    0 -0.00000000000E+00 -0.00000000000E+00 -0.45593999997E+02  0.45594000000E+02  0.51100000000E-03 0. -1.
    9900012    2    1    2    0    0 -0.18467896224E+02 -0.21041739538E+01  0.22777139877E+01  0.72461582297E+02  0.70000015636E+02 0.  0.
        -12    1    1    2    0    0  0.18467896224E+02  0.21041739538E+01 -0.22777139877E+01  0.18726417703E+02  0.00000000000E+00 0.  1.
         11    1    3    3    0    0  0.80454120165E+01  0.22631434907E+02  0.48197865508E+01  0.24497772208E+02  0.51100000000E-03 0. -1.
        -11    1    3    3    0    0 -0.12080732000E+02 -0.18778607104E+02  0.13079111632E+02  0.25877467647E+02  0.51100000000E-03 0.  1.
         12    1    3    3    0    0 -0.14432576240E+02 -0.59570017567E+01 -0.15621184195E+02  0.22086342443E+02  0.00000000000E+00 0. -1.
</event>
<event>
 7    1  0.1874105E-013  0.7246176E+02  0.7816164E-02  0.1226708E+00
        -11   -1    0    0    0    0  0.00000000000E+00  0.00000000000E+00  0.45593999997E+02  0.45594000000E+02  0.51100000000E-03 0.  1.
         11   -1    0    0    0    0 -0.00000000000E+00 -0.00000000000E+00 -0.45593999997E+02  0.45594000000E+02  0.51100000000E-03 0. -1.
    9900012    2    1    2    0    0  0.58388081292E+01 -0.15032076182E+02 -0.95193013675E+01  0.72461759233E+02  0.70000246128E+02 0.  0.
        -12    1    1    2    0    0 -0.58388081292E+01  0.15032076182E+02  0.95193013675E+01  0.18726240767E+02  0.00000000000E+00 0.  1.
         11    1    3    3    0    0  0.22213762090E+02 -0.30105998919E+02 -0.19369657793E+02  0.42130820551E+02  0.51100000000E-03 0. -1.
        -11    1    3    3    0    0  0.33461297660E+01  0.48831247918E+01  0.46599665339E+01  0.75337096109E+01  0.51100000000E-03 0.  1.
         12    1    3    3    0    0 -0.19721083726E+02  0.10190797945E+02  0.51903898912E+01  0.22797229071E+02  0.00000000000E+00 0. -1.
</event>
<event>
 7    1  0.1874105E-013  0.7246155E+02  0.7816164E-02  0.1226708E+00
        -11   -1    0    0    0    0  0.00000000000E+00  0.00000000000E+00  0.45593999997E+02  0.45594000000E+02  0.51100000000E-03 0. -1.
         11   -1    0    0    0    0 -0.00000000000E+00 -0.00000000000E+00 -0.45593999997E+02  0.45594000000E+02  0.51100000000E-03 0.  1.
    9900012    2    1    2    0    0  0.11754663039E+02  0.14577652224E+02 -0.82618031243E-03  0.72461546833E+02  0.69999969438E+02 0.  0.
        -12    1    1    2    0    0 -0.11754663039E+02 -0.14577652224E+02  0.82618031243E-03  0.18726453167E+02  0.00000000000E+00 0.  1.
         11    1    3    3    0    0 -0.13361397517E+02  0.10916351058E+02 -0.22536029692E+02  0.28382499865E+02  0.51100000000E-03 0.  1.
        -11    1    3    3    0    0  0.24352029245E+02  0.10043400639E+01  0.32404114953E+01  0.24587197772E+02  0.51100000000E-03 0. -1.
         12    1    3    3    0    0  0.76403131031E+00  0.26569611016E+01  0.19294792017E+02  0.19491849197E+02  0.00000000000E+00 0. -1.
</event>
<event>
 7    1  0.1874105E-013  0.7246153E+02  0.7816164E-02  0.1226708E+00
        -11   -1    0    0    0    0  0.00000000000E+00  0.00000000000E+00  0.45593999997E+02  0.45594000000E+02  0.51100000000E-03 0. -1.
         11   -1    0    0    0    0 -0.00000000000E+00 -0.00000000000E+00 -0.45593999997E+02  0.45594000000E+02  0.51100000000E-03 0.  1.
    9900012    2    1    2    0    0  0.14773654603E+02  0.55041727078E+01  0.10105641291E+02  0.72461527469E+02  0.69999944213E+02 0.  0.
        -12    1    1    2    0    0 -0.14773654603E+02 -0.55041727078E+01 -0.10105641291E+02  0.18726472531E+02  0.00000000000E+00 0.  1.
         11    1    3    3    0    0  0.29046928493E+02 -0.10585788830E+02 -0.47434585175E+01  0.31277521944E+02  0.51100000000E-03 0. -1.
        -11    1    3    3    0    0 -0.22270071579E+02  0.19561534765E+02  0.10541569016E+02  0.31460044630E+02  0.51100000000E-03 0.  1.
        -12    1    3    3    0    0  0.79967976897E+01 -0.34715732280E+01  0.43075307925E+01  0.97239608954E+01  0.00000000000E+00 0.  1.
</event>
<event>
 7    1  0.1874105E-013  0.7246158E+02  0.7816164E-02  0.1226708E+00
        -11   -1    0    0    0    0  0.00000000000E+00  0.00000000000E+00  0.45593999997E+02  0.45594000000E+02  0.51100000000E-03 0.  1.
         11   -1    0    0    0    0 -0.00000000000E+00 -0.00000000000E+00 -0.45593999997E+02  0.45594000000E+02  0.51100000000E-03 0. -1.
    9900012    2    1    2    0    0  0.12763705824E+02 -0.12982486806E+02 -0.43842690426E+01  0.72461575753E+02  0.70000007111E+02 0.  0.
        -12    1    1    2    0    0 -0.12763705824E+02  0.12982486806E+02  0.43842690426E+01  0.18726424247E+02  0.00000000000E+00 0.  1.
         11    1    3    3    0    0  0.25479266175E+02 -0.31040445472E+02  0.75873396517E+00  0.40165631296E+02  0.51100000000E-03 0. -1.
        -11    1    3    3    0    0 -0.47448397451E+01  0.22061031655E+02 -0.59594390042E+01  0.23339184548E+02  0.51100000000E-03 0.  1.
        -12    1    3    3    0    0 -0.79707206056E+01 -0.40030729892E+01  0.81643599645E+00  0.89567599089E+01  0.00000000000E+00 0.  1.
</event>
<event>
 7    1  0.1874105E-013  0.7246158E+02  0.7816164E-02  0.1226708E+00
        -11   -1    0    0    0    0  0.00000000000E+00  0.00000000000E+00  0.45593999997E+02  0.45594000000E+02  0.51100000000E-03 0. -1.
         11   -1    0    0    0    0 -0.00000000000E+00 -0.00000000000E+00 -0.45593999997E+02  0.45594000000E+02  0.51100000000E-03 0.  1.
    9900012    2    1    2    0    0 -0.81718196861E+01 -0.14810286588E+02  0.80346555549E+01  0.72461577072E+02  0.70000008829E+02 0.  0.
        -12    1    1    2    0    0  0.81718196861E+01  0.14810286588E+02 -0.80346555549E+01  0.18726422928E+02  0.00000000000E+00 0.  1.
         11    1    3    3    0    0  0.11776927345E+02  0.17205569813E+02  0.19395742040E+01  0.20940143234E+02  0.51100000000E-03 0.  1.
        -11    1    3    3    0    0 -0.16551419875E+02 -0.73357733053E+01  0.16526350809E+02  0.24512921923E+02  0.51100000000E-03 0. -1.
         12    1    3    3    0    0 -0.33973271561E+01 -0.24680083095E+02 -0.10431269458E+02  0.27008511916E+02  0.00000000000E+00 0. -1.
</event>
<event>
 7    1  0.1874105E-013  0.7246158E+02  0.7816164E-02  0.1226708E+00
        -11   -1    0    0    0    0  0.00000000000E+00  0.00000000000E+00  0.45593999997E+02  0.45594000000E+02  0.51100000000E-03 0.  1.
         11   -1    0    0    0    0 -0.00000000000E+00 -0.00000000000E+00 -0.45593999997E+02  0.45594000000E+02  0.51100000000E-03 0. -1.
    9900012    2    1    2    0    0  0.16131827540E+02  0.63356226093E+00  0.94890196490E+01  0.72461581367E+02  0.70000014424E+02 0.  0.
        -12    1    1    2    0    0 -0.16131827540E+02 -0.63356226093E+00 -0.94890196490E+01  0.18726418633E+02  0.00000000000E+00 0.  1.
         11    1    3    3    0    0 -0.89639354688E+01 -0.53301917365E+01 -0.10634331063E+02  0.14894699744E+02  0.51100000000E-03 0. -1.
        -11    1    3    3    0    0  0.15490610312E+02 -0.14043624452E+02  0.27167726913E+02  0.34282178773E+02  0.51100000000E-03 0.  1.
        -12    1    3    3    0    0  0.96051526967E+01  0.20007378449E+02 -0.70443762001E+01  0.23284702849E+02  0.00000000000E+00 0.  1.
</event>
<event>
 7    1  0.1874105E-013  0.7246154E+02  0.7816164E-02  0.1226708E+00
        -11   -1    0    0    0    0  0.00000000000E+00  0.00000000000E+00  0.45593999997E+02  0.45594000000E+02  0.51100000000E-03 0.  1.
         11   -1    0    0    0    0 -0.00000000000E+00 -0.00000000000E+00 -0.45593999997E+02  0.45594000000E+02  0.51100000000E-03 0. -1.
    9900012    2    1    2    0    0 -0.14881162753E+02 -0.41819215435E+01 -0.10570853853E+02  0.72461536803E+02  0.69999956371E+02 0.  0.
        -12    1    1    2    0    0  0.14881162753E+02  0.41819215435E+01  0.10570853853E+02  0.18726463197E+02  0.00000000000E+00 0.  1.
         11    1    3    3    0    0  0.16512737237E+02 -0.15993115015E+02  0.10045328134E+02  0.25087025262E+02  0.51100000000E-03 0. -1.
        -11    1    3    3    0    0 -0.16639291139E+02  0.16406424356E+02 -0.21691513807E+02  0.31883515196E+02  0.51100000000E-03 0.  1.
         12    1    3    3    0    0 -0.14754608851E+02 -0.45952308844E+01  0.10753318198E+01  0.15490996345E+02  0.00000000000E+00 0. -1.
</event>
<event>
 7    1  0.1874105E-013  0.7246157E+02  0.7816164E-02  0.1226708E+00
        -11   -1    0    0    0    0  0.00000000000E+00  0.00000000000E+00  0.45593999997E+02  0.45594000000E+02  0.51100000000E-03 0.  1.
         11   -1    0    0    0    0 -0.00000000000E+00 -0.00000000000E+00 -0.45593999997E+02  0.45594000000E+02  0.51100000000E-03 0. -1.
    9900012    2    1    2    0    0 -0.50884873794E+01 -0.26462516073E+01 -0.17826496898E+02  0.72461565662E+02  0.69999993965E+02 0.  0.
        -12    1    1    2    0    0  0.50884873794E+01  0.26462516073E+01  0.17826496898E+02  0.18726434338E+02  0.00000000000E+00 0.  1.
         11    1    3    3    0    0 -0.17546174693E+01 -0.19640890041E+02 -0.16252141855E+02  0.25553382540E+02  0.51100000000E-03 0. -1.
        -11    1    3    3    0    0  0.15166298267E+02  0.18674371194E+02  0.88181990495E+01  0.25622438942E+02  0.51100000000E-03 0.  1.
         12    1    3    3    0    0 -0.18500168177E+02 -0.16797327601E+01 -0.10392554093E+02  0.21285744180E+02  0.00000000000E+00 0. -1.
</event>
<event>
 7    1  0.1874105E-013  0.7246156E+02  0.7816164E-02  0.1226708E+00
        -11   -1    0    0    0    0  0.00000000000E+00  0.00000000000E+00  0.45593999997E+02  0.45594000000E+02  0.51100000000E-03 0.  1.
         11   -1    0    0    0    0 -0.00000000000E+00 -0.00000000000E+00 -0.45593999997E+02  0.45594000000E+02  0.51100000000E-03 0. -1.
    9900012    2    1    2    0    0 -0.18127374135E+02 -0.30468211895E+01 -0.35769520048E+01  0.72461564193E+02  0.69999992052E+02 0.  0.
        -12    1    1    2    0    0  0.18127374135E+02  0.30468211895E+01  0.35769520048E+01  0.18726435807E+02  0.00000000000E+00 0.  1.
         11    1    3    3    0    0 -0.24938870802E+02 -0.70352334570E+01 -0.64553696207E+01  0.26704186636E+02  0.51100000000E-03 0. -1.
        -11    1    3    3    0    0  0.25792853854E+02  0.59408774981E+01  0.32868504757E+01  0.26671496427E+02  0.51100000000E-03 0.  1.
        -12    1    3    3    0    0 -0.18981357186E+02 -0.19524652306E+01 -0.40843285971E+00  0.19085881130E+02  0.00000000000E+00 0.  1.
</event>
<event>
 7    1  0.1874105E-013  0.7246156E+02  0.7816164E-02  0.1226708E+00
        -11   -1    0    0    0    0  0.00000000000E+00  0.00000000000E+00  0.45593999997E+02  0.45594000000E+02  0.51100000000E-03 0. -1.
         11   -1    0    0    0    0 -0.00000000000E+00 -0.00000000000E+00 -0.45593999997E+02  0.45594000000E+02  0.51100000000E-03 0.  1.
    9900012    2    1    2    0    0  0.84805185218E+01  0.16386669451E+02 -0.31996022019E+01  0.72461559219E+02  0.69999985572E+02 0.  0.
        -12    1    1    2    0    0 -0.84805185218E+01 -0.16386669451E+02  0.31996022019E+01  0.18726440781E+02  0.00000000000E+00 0.  1.
         11    1    3    3    0    0  0.10269825857E+01  0.77867438125E+01  0.21626703933E+02  0.23008746069E+02  0.51100000000E-03 0. -1.
        -11    1    3    3    0    0  0.12993908283E+02  0.83675492823E+01 -0.34779698212E+02  0.38058966636E+02  0.51100000000E-03 0.  1.
        -12    1    3    3    0    0 -0.55403723474E+01  0.23237635573E+00  0.99533920773E+01  0.11393846513E+02  0.00000000000E+00 0.  1.
</event>
<event>
 7    1  0.1874105E-013  0.7246159E+02  0.7816164E-02  0.1226708E+00
        -11   -1    0    0    0    0  0.00000000000E+00  0.00000000000E+00  0.45593999997E+02  0.45594000000E+02  0.51100000000E-03 0.  1.
         11   -1    0    0    0    0 -0.00000000000E+00 -0.00000000000E+00 -0.45593999997E+02  0.45594000000E+02  0.51100000000E-03 0. -1.
    9900012    2    1    2    0    0 -0.11513028680E+02 -0.34149539456E+01 -0.14368948474E+02  0.72461590305E+02  0.70000026067E+02 0.  0.
        -12    1    1    2    0    0  0.11513028680E+02  0.34149539456E+01  0.14368948474E+02  0.18726409695E+02  0.00000000000E+00 0.  1.
         11    1    3    3    0    0  0.80501064124E+01  0.10446024867E+02  0.18108824568E+02  0.22402079731E+02  0.51100000000E-03 0. -1.
        -11    1    3    3    0    0  0.69477311503E+01 -0.79459402015E+01 -0.60713471979E+01  0.12176624774E+02  0.51100000000E-03 0.  1.
         12    1    3    3    0    0 -0.26510866243E+02 -0.59150386112E+01 -0.26406425844E+02  0.37882885800E+02  0.00000000000E+00 0. -1.
</event>
<event>
 7    1  0.1874105E-013  0.7246156E+02  0.7816164E-02  0.1226708E+00
        -11   -1    0    0    0    0  0.00000000000E+00  0.00000000000E+00  0.45593999997E+02  0.45594000000E+02  0.51100000000E-03 0.  1.
         11   -1    0    0    0    0 -0.00000000000E+00 -0.00000000000E+00 -0.45593999997E+02  0.45594000000E+02  0.51100000000E-03 0. -1.
    9900012    2    1    2    0    0 -0.92935177729E+01 -0.16246299378E+02  0.60637690364E+00  0.72461563900E+02  0.69999991670E+02 0.  0.
        -12    1    1    2    0    0  0.92935177729E+01  0.16246299378E+02 -0.60637690364E+00  0.18726436100E+02  0.00000000000E+00 0.  1.
         11    1    3    3    0    0  0.11639893274E+02 -0.67777156237E+01  0.27651992166E+02  0.30758043103E+02  0.51100000000E-03 0.  1.
        -11    1    3    3    0    0 -0.67078177778E+01 -0.11183866017E+02 -0.23604463745E+02  0.26967469057E+02  0.51100000000E-03 0. -1.
        -12    1    3    3    0    0 -0.14225593269E+02  0.17152822634E+01 -0.34411515174E+01  0.14736051740E+02  0.00000000000E+00 0.  1.
</event>
<event>
 7    1  0.1874105E-013  0.7246162E+02  0.7816164E-02  0.1226708E+00
        -11   -1    0    0    0    0  0.00000000000E+00  0.00000000000E+00  0.45593999997E+02  0.45594000000E+02  0.51100000000E-03 0. -1.
         11   -1    0    0    0    0 -0.00000000000E+00 -0.00000000000E+00 -0.45593999997E+02  0.45594000000E+02  0.51100000000E-03 0.  1.
    9900012    2    1    2    0    0  0.94199007450E+01  0.10473212816E+02  0.12339150048E+02  0.72461619126E+02  0.70000063612E+02 0.  0.
        -12    1    1    2    0    0 -0.94199007450E+01 -0.10473212816E+02 -0.12339150048E+02  0.18726380874E+02  0.00000000000E+00 0.  1.
         11    1    3    3    0    0  0.15299107999E+02 -0.11868212719E+02  0.12755151806E+02  0.23186441654E+02  0.51100000000E-03 0.  1.
        -11    1    3    3    0    0 -0.21345936273E+02  0.14089578890E+02  0.11536260353E+02  0.28057985171E+02  0.51100000000E-03 0. -1.
         12    1    3    3    0    0  0.15466729018E+02  0.82518466449E+01 -0.11952262111E+02  0.21217192301E+02  0.00000000000E+00 0. -1.
</event>
<event>
 7    1  0.1874105E-013  0.7246158E+02  0.7816164E-02  0.1226708E+00
        -11   -1    0    0    0    0  0.00000000000E+00  0.00000000000E+00  0.45593999997E+02  0.45594000000E+02  0.51100000000E-03 0. -1.
         11   -1    0    0    0    0 -0.00000000000E+00 -0.00000000000E+00 -0.45593999997E+02  0.45594000000E+02  0.51100000000E-03 0.  1.
    9900012    2    1    2    0    0 -0.93118970590E+01  0.15425961151E+02  0.50997260378E+01  0.72461577226E+02  0.70000009029E+02 0.  0.
        -12    1    1    2    0    0  0.93118970590E+01 -0.15425961151E+02 -0.50997260378E+01  0.18726422774E+02  0.00000000000E+00 0.  1.
         11    1    3    3    0    0 -0.48861628898E+01 -0.18051520929E+01  0.28077522701E+02  0.28556618202E+02  0.51100000000E-03 0. -1.
        -11    1    3    3    0    0  0.11180607082E+02  0.86307567386E+01 -0.21891700524E+02  0.26052686785E+02  0.51100000000E-03 0.  1.
         12    1    3    3    0    0 -0.15606341251E+02  0.86003565051E+01 -0.10860961393E+01  0.17852272239E+02  0.00000000000E+00 0. -1.
</event>
<event>
 7    1  0.1874105E-013  0.7246160E+02  0.7816164E-02  0.1226708E+00
        -11   -1    0    0    0    0  0.00000000000E+00  0.00000000000E+00  0.45593999997E+02  0.45594000000E+02  0.51100000000E-03 0. -1.
         11   -1    0    0    0    0 -0.00000000000E+00 -0.00000000000E+00 -0.45593999997E+02  0.45594000000E+02  0.51100000000E-03 0.  1.
    9900012    2    1    2    0    0 -0.14942667270E+02  0.87153678323E+01  0.71719735804E+01  0.72461597606E+02  0.70000035578E+02 0.  0.
        -12    1    1    2    0    0  0.14942667270E+02 -0.87153678323E+01 -0.71719735804E+01  0.18726402394E+02  0.00000000000E+00 0.  1.
         11    1    3    3    0    0  0.11210923438E+02 -0.53883097898E+01  0.37594536898E+01  0.12994313334E+02  0.51100000000E-03 0. -1.
        -11    1    3    3    0    0 -0.14725311863E+02  0.21764540809E+02  0.23410550120E+02  0.35193520757E+02  0.51100000000E-03 0.  1.
        -12    1    3    3    0    0 -0.11428278844E+02 -0.76608631869E+01 -0.19998030229E+02  0.24273763514E+02  0.00000000000E+00 0.  1.
</event>
<event>
 7    1  0.1874105E-013  0.7246150E+02  0.7816164E-02  0.1226708E+00
        -11   -1    0    0    0    0  0.00000000000E+00  0.00000000000E+00  0.45593999997E+02  0.45594000000E+02  0.51100000000E-03 0.  1.
         11   -1    0    0    0    0 -0.00000000000E+00 -0.00000000000E+00 -0.45593999997E+02  0.45594000000E+02  0.51100000000E-03 0. -1.
    9900012    2    1    2    0    0  0.16233496370E+02  0.62848990571E+01  0.69032808500E+01  0.72461504144E+02  0.69999913827E+02 0.  0.
        -12    1    1    2    0    0 -0.16233496370E+02 -0.62848990571E+01 -0.69032808500E+01  0.18726495856E+02  0.00000000000E+00 0.  1.
         11    1    3    3    0    0 -0.25701301143E+01 -0.15691945366E+02 -0.53926255973E+01  0.16790566675E+02  0.51100000000E-03 0. -1.
        -11    1    3    3    0    0 -0.45026178270E+01  0.13710530490E+02  0.24238645378E+02  0.28209291796E+02  0.51100000000E-03 0.  1.
         12    1    3    3    0    0  0.23306244311E+02  0.82663139328E+01 -0.11942738931E+02  0.27461645673E+02  0.00000000000E+00 0. -1.
</event>
<event>
 7    1  0.1874105E-013  0.7246160E+02  0.7816164E-02  0.1226708E+00
        -11   -1    0    0    0    0  0.00000000000E+00  0.00000000000E+00  0.45593999997E+02  0.45594000000E+02  0.51100000000E-03 0. -1.
         11   -1    0    0    0    0 -0.00000000000E+00 -0.00000000000E+00 -0.45593999997E+02  0.45594000000E+02  0.51100000000E-03 0.  1.
    9900012    2    1    2    0    0 -0.11270338255E+02 -0.17562878548E+01  0.14851703496E+02  0.72461597031E+02  0.70000034829E+02 0.  0.
        -12    1    1    2    0    0  0.11270338255E+02  0.17562878548E+01 -0.14851703496E+02  0.18726402969E+02  0.00000000000E+00 0.  1.
         11    1    3    3    0    0 -0.92054416976E+01 -0.15157822193E+01  0.22532013506E+02  0.24387074148E+02  0.51100000000E-03 0. -1.
        -11    1    3    3    0    0  0.20329154116E+02  0.95510478280E+01 -0.73438097318E+01  0.23631093147E+02  0.51100000000E-03 0.  1.
        -12    1    3    3    0    0 -0.22394050674E+02 -0.97915534635E+01 -0.33650027799E+00  0.24443429736E+02  0.00000000000E+00 0.  1.
</event>
<event>
 7    1  0.1874105E-013  0.7246158E+02  0.7816164E-02  0.1226708E+00
        -11   -1    0    0    0    0  0.00000000000E+00  0.00000000000E+00  0.45593999997E+02  0.45594000000E+02  0.51100000000E-03 0.  1.
         11   -1    0    0    0    0 -0.00000000000E+00 -0.00000000000E+00 -0.45593999997E+02  0.45594000000E+02  0.51100000000E-03 0. -1.
    9900012    2    1    2    0    0  0.15217202379E+02 -0.88187143140E+01  0.64300586472E+01  0.72461584844E+02  0.70000018954E+02 0.  0.
        -12    1    1    2    0    0 -0.15217202379E+02  0.88187143140E+01 -0.64300586472E+01  0.18726415156E+02  0.00000000000E+00 0.  1.
         11    1    3    3    0    0  0.77090954712E+01  0.94650658633E+01 -0.21456464247E+02  0.24685977457E+02  0.51100000000E-03 0. -1.
        -11    1    3    3    0    0  0.26522961700E+01 -0.24494986559E+02  0.72474969096E+01  0.25682002515E+02  0.51100000000E-03 0.  1.
        -12    1    3    3    0    0  0.48558107375E+01  0.62112063813E+01  0.20639025984E+02  0.22093604871E+02  0.00000000000E+00 0.  1.
</event>
<event>
 7    1  0.1874105E-013  0.7246163E+02  0.7816164E-02  0.1226708E+00
        -11   -1    0    0    0    0  0.00000000000E+00  0.00000000000E+00  0.45593999997E+02  0.45594000000E+02  0.51100000000E-03 0.  1.
         11   -1    0    0    0    0 -0.00000000000E+00 -0.00000000000E+00 -0.45593999997E+02  0.45594000000E+02  0.51100000000E-03 0. -1.
    9900012    2    1    2    0    0  0.45840030212E+01  0.12808878239E+02 -0.12868424758E+02  0.72461633530E+02  0.70000082376E+02 0.  0.
        -12    1    1    2    0    0 -0.45840030212E+01 -0.12808878239E+02  0.12868424758E+02  0.18726366470E+02  0.00000000000E+00 0.  1.
         11    1    3    3    0    0  0.18490861917E+02 -0.48195426900E+00 -0.20612801849E+02  0.27695339945E+02  0.51100000000E-03 0. -1.
        -11    1    3    3    0    0 -0.20623944370E+02 -0.20383719860E+00 -0.87652621561E+01  0.22410230965E+02  0.51100000000E-03 0.  1.
        -12    1    3    3    0    0  0.67170854749E+01  0.13494669706E+02  0.16509639247E+02  0.22356062619E+02  0.00000000000E+00 0.  1.
</event>
<event>
 7    1  0.1874105E-013  0.7246139E+02  0.7816164E-02  0.1226708E+00
        -11   -1    0    0    0    0  0.00000000000E+00  0.00000000000E+00  0.45593999997E+02  0.45594000000E+02  0.51100000000E-03 0. -1.
         11   -1    0    0    0    0 -0.00000000000E+00 -0.00000000000E+00 -0.45593999997E+02  0.45594000000E+02  0.51100000000E-03 0.  1.
    9900012    2    1    2    0    0  0.69850251207E+01  0.16696492373E+02  0.48085812288E+01  0.72461390939E+02  0.69999766355E+02 0.  0.
        -12    1    1    2    0    0 -0.69850251207E+01 -0.16696492373E+02 -0.48085812288E+01  0.18726609061E+02  0.00000000000E+00 0.  1.
         11    1    3    3    0    0  0.30093579531E+02 -0.28145886718E+01  0.17831133786E+01  0.30277465745E+02  0.51100000000E-03 0. -1.
        -11    1    3    3    0    0 -0.57538170989E+01  0.20382074869E+01 -0.11909112858E+02  0.13382364151E+02  0.51100000000E-03 0.  1.
         12    1    3    3    0    0 -0.17354737311E+02  0.17472873558E+02  0.14934580708E+02  0.28801561042E+02  0.00000000000E+00 0. -1.
</event>
<event>
 7    1  0.1874105E-013  0.7246156E+02  0.7816164E-02  0.1226708E+00
        -11   -1    0    0    0    0  0.00000000000E+00  0.00000000000E+00  0.45593999997E+02  0.45594000000E+02  0.51100000000E-03 0. -1.
         11   -1    0    0    0    0 -0.00000000000E+00 -0.00000000000E+00 -0.45593999997E+02  0.45594000000E+02  0.51100000000E-03 0.  1.
    9900012    2    1    2    0    0  0.14617458045E+02  0.92510124162E+01  0.71713390322E+01  0.72461563769E+02  0.69999991499E+02 0.  0.
        -12    1    1    2    0    0 -0.14617458045E+02 -0.92510124162E+01 -0.71713390322E+01  0.18726436231E+02  0.00000000000E+00 0.  1.
         11    1    3    3    0    0 -0.11456056290E+02  0.98717437964E+01  0.78418940711E+01  0.17034901062E+02  0.51100000000E-03 0. -1.
        -11    1    3    3    0    0  0.73632274554E+01 -0.23108773549E+02  0.68870103539E+01  0.25212366913E+02  0.51100000000E-03 0.  1.
        -12    1    3    3    0    0  0.18710286879E+02  0.22488042169E+02 -0.75575653927E+01  0.30214295794E+02  0.00000000000E+00 0.  1.
</event>
<event>
 7    1  0.1874105E-013  0.7246159E+02  0.7816164E-02  0.1226708E+00
        -11   -1    0    0    0    0  0.00000000000E+00  0.00000000000E+00  0.45593999997E+02  0.45594000000E+02  0.51100000000E-03 0. -1.
         11   -1    0    0    0    0 -0.00000000000E+00 -0.00000000000E+00 -0.45593999997E+02  0.45594000000E+02  0.51100000000E-03 0.  1.
    9900012    2    1    2    0    0 -0.83909879131E+01  0.13560712854E+02  0.98171775250E+01  0.72461585879E+02  0.70000020302E+02 0.  0.
        -12    1    1    2    0    0  0.83909879131E+01 -0.13560712854E+02 -0.98171775250E+01  0.18726414121E+02  0.00000000000E+00 0.  1.
         11    1    3    3    0    0 -0.16423445001E+02  0.20900566121E+02 -0.10165626608E+02  0.28458797840E+02  0.51100000000E-03 0. -1.
        -11    1    3    3    0    0 -0.20057557366E+01 -0.20131275362E+02  0.29327265539E+01  0.20442411528E+02  0.51100000000E-03 0.  1.
         12    1    3    3    0    0  0.10038212825E+02  0.12791422095E+02  0.17050077579E+02  0.23560376512E+02  0.00000000000E+00 0. -1.
</event>
<event>
 7    1  0.1874105E-013  0.7246155E+02  0.7816164E-02  0.1226708E+00
        -11   -1    0    0    0    0  0.00000000000E+00  0.00000000000E+00  0.45593999997E+02  0.45594000000E+02  0.51100000000E-03 0.  1.
         11   -1    0    0    0    0 -0.00000000000E+00 -0.00000000000E+00 -0.45593999997E+02  0.45594000000E+02  0.51100000000E-03 0. -1.
    9900012    2    1    2    0    0 -0.45947826004E-02  0.14403469336E+02 -0.11967449550E+02  0.72461553494E+02  0.69999978114E+02 0.  0.
        -12    1    1    2    0    0  0.45947826004E-02 -0.14403469336E+02  0.11967449550E+02  0.18726446506E+02  0.00000000000E+00 0.  1.
         11    1    3    3    0    0 -0.43661430343E+01  0.89034083569E+01 -0.23855715350E+02  0.25834648062E+02  0.51100000000E-03 0. -1.
        -11    1    3    3    0    0  0.64010423565E+01  0.24816640556E+02  0.76458731897E+01  0.26745062513E+02  0.51100000000E-03 0.  1.
        -12    1    3    3    0    0 -0.20394941049E+01 -0.19316579577E+02  0.42423926101E+01  0.19881842918E+02  0.00000000000E+00 0.  1.
</event>
<event>
 7    1  0.1874105E-013  0.7246160E+02  0.7816164E-02  0.1226708E+00
        -11   -1    0    0    0    0  0.00000000000E+00  0.00000000000E+00  0.45593999997E+02  0.45594000000E+02  0.51100000000E-03 0.  1.
         11   -1    0    0    0    0 -0.00000000000E+00 -0.00000000000E+00 -0.45593999997E+02  0.45594000000E+02  0.51100000000E-03 0. -1.
    9900012    2    1    2    0    0 -0.86182418979E+01  0.15617064663E+02 -0.57018589631E+01  0.72461601581E+02  0.70000040757E+02 0.  0.
        -12    1    1    2    0    0  0.86182418979E+01 -0.15617064663E+02  0.57018589631E+01  0.18726398419E+02  0.00000000000E+00 0.  1.
         11    1    3    3    0    0  0.13372471101E+02  0.16035369114E+02  0.52960419094E+01  0.21540754540E+02  0.51100000000E-03 0. -1.
        -11    1    3    3    0    0 -0.17219633265E+02 -0.20327409480E+02 -0.14216645862E+02  0.30196562152E+02  0.51100000000E-03 0.  1.
         12    1    3    3    0    0 -0.47710797340E+01  0.19909105029E+02  0.32187449895E+01  0.20724284890E+02  0.00000000000E+00 0. -1.
</event>
<event>
 7    1  0.1874105E-013  0.7246156E+02  0.7816164E-02  0.1226708E+00
        -11   -1    0    0    0    0  0.00000000000E+00  0.00000000000E+00  0.45593999997E+02  0.45594000000E+02  0.51100000000E-03 0. -1.
         11   -1    0    0    0    0 -0.00000000000E+00 -0.00000000000E+00 -0.45593999997E+02  0.45594000000E+02  0.51100000000E-03 0.  1.
    9900012    2    1    2    0    0 -0.18357873472E+02 -0.35873723971E+01  0.89374784487E+00  0.72461560287E+02  0.69999986963E+02 0.  0.
        -12    1    1    2    0    0  0.18357873472E+02  0.35873723971E+01 -0.89374784487E+00  0.18726439713E+02  0.00000000000E+00 0.  1.
         11    1    3    3    0    0 -0.24777289794E+02 -0.11105032580E+02  0.25368635598E+02  0.37159164556E+02  0.51100000000E-03 0. -1.
        -11    1    3    3    0    0  0.96038500815E+01 -0.43740491633E+01 -0.37549272917E+01  0.11201148231E+02  0.51100000000E-03 0.  1.
         12    1    3    3    0    0 -0.31844337589E+01  0.11891709346E+02 -0.20719960461E+02  0.24101247500E+02  0.00000000000E+00 0. -1.
</event>
<event>
 7    1  0.1874105E-013  0.7246159E+02  0.7816164E-02  0.1226708E+00
        -11   -1    0    0    0    0  0.00000000000E+00  0.00000000000E+00  0.45593999997E+02  0.45594000000E+02  0.51100000000E-03 0. -1.
         11   -1    0    0    0    0 -0.00000000000E+00 -0.00000000000E+00 -0.45593999997E+02  0.45594000000E+02  0.51100000000E-03 0.  1.
    9900012    2    1    2    0    0  0.18442239245E+02  0.14875083560E+01  0.28895899188E+01  0.72461585518E+02  0.70000019831E+02 0.  0.
        -12    1    1    2    0    0 -0.18442239245E+02 -0.14875083560E+01 -0.28895899188E+01  0.18726414482E+02  0.00000000000E+00 0.  1.
         11    1    3    3    0    0  0.72734348066E+01 -0.19477339824E+02  0.16715485687E+02  0.26677276520E+02  0.51100000000E-03 0. -1.
        -11    1    3    3    0    0  0.18636592123E+02  0.23940404966E+02 -0.64567570057E+00  0.30346045101E+02  0.51100000000E-03 0.  1.
        -12    1    3    3    0    0 -0.74677876851E+01 -0.29755567856E+01 -0.13180220068E+02  0.15438263896E+02  0.00000000000E+00 0.  1.
</event>
<event>
 7    1  0.1874105E-013  0.7246158E+02  0.7816164E-02  0.1226708E+00
        -11   -1    0    0    0    0  0.00000000000E+00  0.00000000000E+00  0.45593999997E+02  0.45594000000E+02  0.51100000000E-03 0.  1.
         11   -1    0    0    0    0 -0.00000000000E+00 -0.00000000000E+00 -0.45593999997E+02  0.45594000000E+02  0.51100000000E-03 0. -1.
    9900012    2    1    2    0    0 -0.17837354623E+02 -0.20393359057E+01 -0.53243644156E+01  0.72461575693E+02  0.70000007033E+02 0.  0.
        -12    1    1    2    0    0  0.17837354623E+02  0.20393359057E+01  0.53243644156E+01  0.18726424307E+02  0.00000000000E+00 0.  1.
         11    1    3    3    0    0  0.89664238218E+01  0.15005424865E+01  0.41503169892E+01  0.99936737628E+01  0.51100000000E-03 0.  1.
        -11    1    3    3    0    0 -0.23727755988E+02  0.92231322532E+01 -0.29221461881E+02  0.38755211360E+02  0.51100000000E-03 0. -1.
        -12    1    3    3    0    0 -0.30760224573E+01 -0.12763010645E+02  0.19746780477E+02  0.23712690570E+02  0.00000000000E+00 0.  1.
</event>
<event>
 7    1  0.1874105E-013  0.7246159E+02  0.7816164E-02  0.1226708E+00
        -11   -1    0    0    0    0  0.00000000000E+00  0.00000000000E+00  0.45593999997E+02  0.45594000000E+02  0.51100000000E-03 0.  1.
         11   -1    0    0    0    0 -0.00000000000E+00 -0.00000000000E+00 -0.45593999997E+02  0.45594000000E+02  0.51100000000E-03 0. -1.
    9900012    2    1    2    0    0  0.60840624401E+01 -0.14210172911E+02 -0.10570404238E+02  0.72461594160E+02  0.70000031089E+02 0.  0.
        -12    1    1    2    0    0 -0.60840624401E+01  0.14210172911E+02  0.10570404238E+02  0.18726405840E+02  0.00000000000E+00 0.  1.
         11    1    3    3    0    0  0.14545933868E+02 -0.21991496730E+02 -0.19030834870E+02  0.32517422971E+02  0.51100000000E-03 0. -1.
        -11    1    3    3    0    0 -0.19683283112E+02  0.89512080408E+01  0.15537067761E+02  0.26626232072E+02  0.51100000000E-03 0.  1.
        -12    1    3    3    0    0  0.11221411684E+02 -0.11698842218E+01 -0.70766371286E+01  0.13317939117E+02  0.00000000000E+00 0.  1.
</event>
<event>
 7    1  0.1874105E-013  0.7246157E+02  0.7816164E-02  0.1226708E+00
        -11   -1    0    0    0    0  0.00000000000E+00  0.00000000000E+00  0.45593999997E+02  0.45594000000E+02  0.51100000000E-03 0. -1.
         11   -1    0    0    0    0 -0.00000000000E+00 -0.00000000000E+00 -0.45593999997E+02  0.45594000000E+02  0.51100000000E-03 0.  1.
    9900012    2    1    2    0    0  0.89702959983E+01 -0.56762070815E+01  0.15427040388E+02  0.72461571823E+02  0.70000001992E+02 0.  0.
        -12    1    1    2    0    0 -0.89702959983E+01  0.56762070815E+01 -0.15427040388E+02  0.18726428177E+02  0.00000000000E+00 0.  1.
         11    1    3    3    0    0  0.95788569591E+01  0.27203846349E+00  0.16162491488E+02  0.18789748187E+02  0.51100000000E-03 0. -1.
        -11    1    3    3    0    0  0.12817619350E+02 -0.80500353782E+01 -0.23031980407E+02  0.27560235071E+02  0.51100000000E-03 0.  1.
        -12    1    3    3    0    0 -0.13426180311E+02  0.21017898332E+01  0.22296529308E+02  0.26111588566E+02  0.00000000000E+00 0.  1.
</event>
<event>
 7    1  0.1874105E-013  0.7246150E+02  0.7816164E-02  0.1226708E+00
        -11   -1    0    0    0    0  0.00000000000E+00  0.00000000000E+00  0.45593999997E+02  0.45594000000E+02  0.51100000000E-03 0.  1.
         11   -1    0    0    0    0 -0.00000000000E+00 -0.00000000000E+00 -0.45593999997E+02  0.45594000000E+02  0.51100000000E-03 0. -1.
    9900012    2    1    2    0    0  0.10729608110E+02 -0.14407511234E+02 -0.52897092685E+01  0.72461497542E+02  0.69999905227E+02 0.  0.
        -12    1    1    2    0    0 -0.10729608110E+02  0.14407511234E+02  0.52897092685E+01  0.18726502458E+02  0.00000000000E+00 0.  1.
         11    1    3    3    0    0 -0.64474312794E+01 -0.26968821521E+02 -0.14755154056E+02  0.31410209738E+02  0.51100000000E-03 0. -1.
        -11    1    3    3    0    0  0.24887163399E+02  0.19299890195E+01  0.11967205961E+02  0.27682300815E+02  0.51100000000E-03 0.  1.
         12    1    3    3    0    0 -0.77101240092E+01  0.10631321268E+02 -0.25017611735E+01  0.13368986989E+02  0.00000000000E+00 0. -1.
</event>
<event>
 7    1  0.1874105E-013  0.7246154E+02  0.7816164E-02  0.1226708E+00
        -11   -1    0    0    0    0  0.00000000000E+00  0.00000000000E+00  0.45593999997E+02  0.45594000000E+02  0.51100000000E-03 0.  1.
         11   -1    0    0    0    0 -0.00000000000E+00 -0.00000000000E+00 -0.45593999997E+02  0.45594000000E+02  0.51100000000E-03 0. -1.
    9900012    2    1    2    0    0 -0.15348710226E+01 -0.11794326719E+02 -0.14464379738E+02  0.72461541365E+02  0.69999962314E+02 0.  0.
        -12    1    1    2    0    0  0.15348710226E+01  0.11794326719E+02  0.14464379738E+02  0.18726458635E+02  0.00000000000E+00 0.  1.
         11    1    3    3    0    0 -0.16677690082E+02 -0.72288553100E+01 -0.17282199845E+02  0.25081390059E+02  0.51100000000E-03 0. -1.
        -11    1    3    3    0    0  0.23286594434E+02  0.45099414532E+01 -0.13281257015E+02  0.27184496324E+02  0.51100000000E-03 0.  1.
        -12    1    3    3    0    0 -0.81437753750E+01 -0.90754128621E+01  0.16099077122E+02  0.20195654982E+02  0.00000000000E+00 0.  1.
</event>
<event>
 7    1  0.1874105E-013  0.7246152E+02  0.7816164E-02  0.1226708E+00
        -11   -1    0    0    0    0  0.00000000000E+00  0.00000000000E+00  0.45593999997E+02  0.45594000000E+02  0.51100000000E-03 0.  1.
         11   -1    0    0    0    0 -0.00000000000E+00 -0.00000000000E+00 -0.45593999997E+02  0.45594000000E+02  0.51100000000E-03 0. -1.
    9900012    2    1    2    0    0 -0.16134987228E+01  0.18268696449E+02 -0.37858117832E+01  0.72461520914E+02  0.69999935673E+02 0.  0.
        -12    1    1    2    0    0  0.16134987228E+01 -0.18268696449E+02  0.37858117832E+01  0.18726479086E+02  0.00000000000E+00 0.  1.
         11    1    3    3    0    0 -0.34937615479E+01 -0.19989063743E+02  0.43732530498E+01  0.20757995606E+02  0.51100000000E-03 0.  1.
        -11    1    3    3    0    0  0.53782391738E+01  0.41894974120E+02 -0.13511609550E+02  0.44347242372E+02  0.51100000000E-03 0. -1.
         12    1    3    3    0    0 -0.34979763487E+01 -0.36372139278E+01  0.53525447170E+01  0.73562829364E+01  0.00000000000E+00 0. -1.
</event>
<event>
 7    1  0.1874105E-013  0.7246176E+02  0.7816164E-02  0.1226708E+00
        -11   -1    0    0    0    0  0.00000000000E+00  0.00000000000E+00  0.45593999997E+02  0.45594000000E+02  0.51100000000E-03 0. -1.
         11   -1    0    0    0    0 -0.00000000000E+00 -0.00000000000E+00 -0.45593999997E+02  0.45594000000E+02  0.51100000000E-03 0.  1.
    9900012    2    1    2    0    0  0.29656248655E+01 -0.18487113937E+02 -0.32220584201E+00  0.72461758275E+02  0.70000244879E+02 0.  0.
        -12    1    1    2    0    0 -0.29656248655E+01  0.18487113937E+02  0.32220584201E+00  0.18726241725E+02  0.00000000000E+00 0.  1.
         11    1    3    3    0    0 -0.72446368624E+01 -0.19469291880E+02  0.17777461217E+02  0.27341840047E+02  0.51100000000E-03 0. -1.
        -11    1    3    3    0    0  0.25162904572E+02 -0.23952522940E+01 -0.15271698108E+02  0.29531910934E+02  0.51100000000E-03 0.  1.
         12    1    3    3    0    0 -0.14952642844E+02  0.33774302373E+01 -0.28279689504E+01  0.15588007294E+02  0.00000000000E+00 0. -1.
</event>
<event>
 7    1  0.1874105E-013  0.7246168E+02  0.7816164E-02  0.1226708E+00
        -11   -1    0    0    0    0  0.00000000000E+00  0.00000000000E+00  0.45593999997E+02  0.45594000000E+02  0.51100000000E-03 0.  1.
         11   -1    0    0    0    0 -0.00000000000E+00 -0.00000000000E+00 -0.45593999997E+02  0.45594000000E+02  0.51100000000E-03 0. -1.
    9900012    2    1    2    0    0  0.15341717100E+02  0.36263140092E+01 -0.10107254440E+02  0.72461680843E+02  0.70000144010E+02 0.  0.
        -12    1    1    2    0    0 -0.15341717100E+02 -0.36263140092E+01  0.10107254440E+02  0.18726319157E+02  0.00000000000E+00 0.  1.
         11    1    3    3    0    0  0.29319663067E+02  0.77214934289E+01 -0.46420766517E+01  0.30672674794E+02  0.51100000000E-03 0. -1.
        -11    1    3    3    0    0 -0.21454029345E+02  0.21315056813E+01  0.98034730319E+01  0.23683892741E+02  0.51100000000E-03 0.  1.
        -12    1    3    3    0    0  0.74760833774E+01 -0.62266851010E+01 -0.15268650820E+02  0.18105113308E+02  0.00000000000E+00 0.  1.
</event>
<event>
 7    1  0.1874105E-013  0.7246159E+02  0.7816164E-02  0.1226708E+00
        -11   -1    0    0    0    0  0.00000000000E+00  0.00000000000E+00  0.45593999997E+02  0.45594000000E+02  0.51100000000E-03 0.  1.
         11   -1    0    0    0    0 -0.00000000000E+00 -0.00000000000E+00 -0.45593999997E+02  0.45594000000E+02  0.51100000000E-03 0. -1.
    9900012    2    1    2    0    0 -0.25007266900E+01  0.58023794809E+01 -0.17628306594E+02  0.72461589907E+02  0.70000025549E+02 0.  0.
        -12    1    1    2    0    0  0.25007266900E+01 -0.58023794809E+01  0.17628306594E+02  0.18726410093E+02  0.00000000000E+00 0.  1.
         11    1    3    3    0    0 -0.98648830480E+01  0.14245148299E+02 -0.12770657601E+02  0.21525098454E+02  0.51100000000E-03 0. -1.
        -11    1    3    3    0    0  0.16946376987E+02  0.12292817441E+02 -0.15190174357E+02  0.25865700279E+02  0.51100000000E-03 0.  1.
        -12    1    3    3    0    0 -0.95822206292E+01 -0.20735586260E+02  0.10332525364E+02  0.25070791175E+02  0.00000000000E+00 0.  1.
</event>
<event>
 7    1  0.1874105E-013  0.7246143E+02  0.7816164E-02  0.1226708E+00
        -11   -1    0    0    0    0  0.00000000000E+00  0.00000000000E+00  0.45593999997E+02  0.45594000000E+02  0.51100000000E-03 0.  1.
         11   -1    0    0    0    0 -0.00000000000E+00 -0.00000000000E+00 -0.45593999997E+02  0.45594000000E+02  0.51100000000E-03 0. -1.
    9900012    2    1    2    0    0 -0.16639565841E+01 -0.64386503279E+01 -0.17505983438E+02  0.72461429954E+02  0.69999817180E+02 0.  0.
        -12    1    1    2    0    0  0.16639565841E+01  0.64386503279E+01  0.17505983438E+02  0.18726570046E+02  0.00000000000E+00 0.  1.
         11    1    3    3    0    0 -0.16571987402E+02 -0.99444347706E+01 -0.14725621439E+02  0.24297458229E+02  0.51100000000E-03 0. -1.
        -11    1    3    3    0    0  0.14297026143E+02 -0.13908049722E+02  0.13686098240E+02  0.24189834413E+02  0.51100000000E-03 0.  1.
        -12    1    3    3    0    0  0.61100467512E+00  0.17413834165E+02 -0.16466460239E+02  0.23974137312E+02  0.00000000000E+00 0.  1.
</event>
<event>
 7    1  0.1874105E-013  0.7246156E+02  0.7816164E-02  0.1226708E+00
        -11   -1    0    0    0    0  0.00000000000E+00  0.00000000000E+00  0.45593999997E+02  0.45594000000E+02  0.51100000000E-03 0.  1.
         11   -1    0    0    0    0 -0.00000000000E+00 -0.00000000000E+00 -0.45593999997E+02  0.45594000000E+02  0.51100000000E-03 0. -1.
    9900012    2    1    2    0    0 -0.13655501732E+02  0.94475670318E+01 -0.86573892311E+01  0.72461557768E+02  0.69999983682E+02 0.  0.
        -12    1    1    2    0    0  0.13655501732E+02 -0.94475670318E+01  0.86573892311E+01  0.18726442232E+02  0.00000000000E+00 0.  1.
         11    1    3    3    0    0 -0.14555755082E+02  0.30445129189E+02 -0.11482927075E+02  0.35645946639E+02  0.51100000000E-03 0. -1.
        -11    1    3    3    0    0  0.44188370086E+01 -0.14125621517E+02  0.15843045443E+02  0.21680899264E+02  0.51100000000E-03 0.  1.
         12    1    3    3    0    0 -0.35185836586E+01 -0.68719406403E+01 -0.13017507599E+02  0.15134711864E+02  0.00000000000E+00 0. -1.
</event>
<event>
 7    1  0.1874105E-013  0.7246170E+02  0.7816164E-02  0.1226708E+00
        -11   -1    0    0    0    0  0.00000000000E+00  0.00000000000E+00  0.45593999997E+02  0.45594000000E+02  0.51100000000E-03 0. -1.
         11   -1    0    0    0    0 -0.00000000000E+00 -0.00000000000E+00 -0.45593999997E+02  0.45594000000E+02  0.51100000000E-03 0.  1.
    9900012    2    1    2    0    0 -0.69037339752E+01 -0.28700910949E+01  0.17169023619E+02  0.72461699305E+02  0.70000168060E+02 0.  0.
        -12    1    1    2    0    0  0.69037339752E+01  0.28700910949E+01 -0.17169023619E+02  0.18726300695E+02  0.00000000000E+00 0.  1.
         11    1    3    3    0    0  0.25277893906E+01 -0.11117200768E+02  0.10547636417E+02  0.15531725801E+02  0.51100000000E-03 0. -1.
        -11    1    3    3    0    0  0.48178752205E+01 -0.32492461822E+01 -0.22109969995E+02  0.22860890093E+02  0.51100000000E-03 0.  1.
        -12    1    3    3    0    0 -0.14249398586E+02  0.11496355855E+02  0.28731357197E+02  0.34069083410E+02  0.00000000000E+00 0.  1.
</event>
<event>
 8    1  0.1874105E-013  0.7246160E+02  0.7816164E-02  0.1226708E+00
        -11   -1    0    0    0    0  0.00000000000E+00  0.00000000000E+00  0.45593999997E+02  0.45594000000E+02  0.51100000000E-03 0. -1.
         11   -1    0    0    0    0 -0.00000000000E+00 -0.00000000000E+00 -0.45593999997E+02  0.45594000000E+02  0.51100000000E-03 0.  1.
    9900012    2    1    2    0    0  0.27489915969E+01  0.17375172275E+02  0.64206235660E+01  0.72461602232E+02  0.70000041605E+02 0.  0.
         24    2    3    3    0    0  0.14018163707E+02  0.49518756892E+01 -0.49984656982E+01  0.52170517047E+02  0.49756891011E+02 0.  0.
        -12    1    1    2    0    0 -0.27489915969E+01 -0.17375172275E+02 -0.64206235660E+01  0.18726397768E+02  0.00000000000E+00 0.  1.
         11    1    3    3    0    0 -0.11269172110E+02  0.12423296586E+02  0.11419089264E+02  0.20291085185E+02  0.51100000000E-03 0. -1.
        -11    1    4    4    0    0  0.60728450691E+01  0.26844157576E+02 -0.80654548165E+01  0.28679954757E+02  0.51100000000E-03 0.  1.
         12    1    4    4    0    0  0.79453186376E+01 -0.21892281887E+02  0.30669891183E+01  0.23490562290E+02  0.00000000000E+00 0. -1.
</event>
<event>
 8    1  0.1874105E-013  0.7246154E+02  0.7816164E-02  0.1226708E+00
        -11   -1    0    0    0    0  0.00000000000E+00  0.00000000000E+00  0.45593999997E+02  0.45594000000E+02  0.51100000000E-03 0. -1.
         11   -1    0    0    0    0 -0.00000000000E+00 -0.00000000000E+00 -0.45593999997E+02  0.45594000000E+02  0.51100000000E-03 0.  1.
    9900012    2    1    2    0    0  0.89136820268E+01  0.12458012750E+02 -0.10771460947E+02  0.72461543317E+02  0.69999964857E+02 0.  0.
        -24    2    3    3    0    0  0.12083609112E+02 -0.53359272859E-01  0.13610419590E+01  0.54747692955E+02  0.53380155417E+02 0.  0.
        -12    1    1    2    0    0 -0.89136820268E+01 -0.12458012750E+02  0.10771460947E+02  0.18726456683E+02  0.00000000000E+00 0.  1.
         11    1    4    4    0    0  0.29000523263E+02 -0.72064229485E+00  0.15318880304E+02  0.32805758166E+02  0.51100000000E-03 0. -1.
        -11    1    3    3    0    0 -0.31699270853E+01  0.12511372023E+02 -0.12132502906E+02  0.17713850362E+02  0.51100000000E-03 0.  1.
        -12    1    4    4    0    0 -0.16916914151E+02  0.66728302199E+00 -0.13957838345E+02  0.21941934789E+02  0.00000000000E+00 0.  1.
</event>
<event>
 7    1  0.1874105E-013  0.7246159E+02  0.7816164E-02  0.1226708E+00
        -11   -1    0    0    0    0  0.00000000000E+00  0.00000000000E+00  0.45593999997E+02  0.45594000000E+02  0.51100000000E-03 0.  1.
         11   -1    0    0    0    0 -0.00000000000E+00 -0.00000000000E+00 -0.45593999997E+02  0.45594000000E+02  0.51100000000E-03 0. -1.
    9900012    2    1    2    0    0 -0.15390489449E+02 -0.90216301952E+01  0.56939945208E+01  0.72461586823E+02  0.70000021532E+02 0.  0.
        -12    1    1    2    0    0  0.15390489449E+02  0.90216301952E+01 -0.56939945208E+01  0.18726413177E+02  0.00000000000E+00 0.  1.
         11    1    3    3    0    0  0.16558660797E+02 -0.25139383240E+01 -0.21078685907E+02  0.26922483784E+02  0.51100000000E-03 0. -1.
        -11    1    3    3    0    0 -0.84326706218E+01  0.52911790413E+01  0.11117756138E+02  0.14923505328E+02  0.51100000000E-03 0.  1.
         12    1    3    3    0    0 -0.23516479624E+02 -0.11798870912E+02  0.15654924290E+02  0.30615597712E+02  0.00000000000E+00 0. -1.
</event>
<event>
 7    1  0.1915969E-013  0.7246154E+02  0.7816164E-02  0.1226708E+00
        -11   -1    0    0    0    0  0.00000000000E+00  0.00000000000E+00  0.45593999997E+02  0.45594000000E+02  0.51100000000E-03 0. -1.
         11   -1    0    0    0    0 -0.00000000000E+00 -0.00000000000E+00 -0.45593999997E+02  0.45594000000E+02  0.51100000000E-03 0.  1.
    9900012    2    1    2    0    0  0.10020781015E+02  0.84334126768E+00  0.15797252371E+02  0.72461535862E+02  0.69999955146E+02 0.  0.
        -12    1    1    2    0    0 -0.10020781015E+02 -0.84334126768E+00 -0.15797252371E+02  0.18726464138E+02  0.00000000000E+00 0.  1.
         11    1    3    3    0    0 -0.77927378159E+01  0.35869095805E+01  0.17971228419E+02  0.19913757409E+02  0.51100000000E-03 0. -1.
        -11    1    3    3    0    0  0.33478952842E+02 -0.95584651198E+01  0.22857576797E+01  0.34891678482E+02  0.51100000000E-03 0.  1.
        -12    1    3    3    0    0 -0.15665434012E+02  0.68148968070E+01 -0.44597337274E+01  0.17656099971E+02  0.00000000000E+00 0.  1.
</event>
<event>
 7    1  0.1874105E-013  0.7246153E+02  0.7816164E-02  0.1226708E+00
        -11   -1    0    0    0    0  0.00000000000E+00  0.00000000000E+00  0.45593999997E+02  0.45594000000E+02  0.51100000000E-03 0. -1.
         11   -1    0    0    0    0 -0.00000000000E+00 -0.00000000000E+00 -0.45593999997E+02  0.45594000000E+02  0.51100000000E-03 0.  1.
    9900012    2    1    2    0    0  0.53248858126E+01  0.53717162246E+01  0.17130993900E+02  0.72461529534E+02  0.69999946902E+02 0.  0.
        -12    1    1    2    0    0 -0.53248858126E+01 -0.53717162246E+01 -0.17130993900E+02  0.18726470466E+02  0.00000000000E+00 0.  1.
         11    1    3    3    0    0  0.39136982446E+01  0.10451801976E+02  0.25900809872E+01  0.11457125219E+02  0.51100000000E-03 0. -1.
        -11    1    3    3    0    0 -0.19761700315E+02 -0.22231440913E+02  0.15889443574E+02  0.33722932579E+02  0.51100000000E-03 0.  1.
        -12    1    3    3    0    0  0.21172887883E+02  0.17151355161E+02 -0.13485306618E+01  0.27281471736E+02  0.00000000000E+00 0.  1.
</event>
<event>
 7    1  0.1874105E-013  0.7246156E+02  0.7816164E-02  0.1226708E+00
        -11   -1    0    0    0    0  0.00000000000E+00  0.00000000000E+00  0.45593999997E+02  0.45594000000E+02  0.51100000000E-03 0.  1.
         11   -1    0    0    0    0 -0.00000000000E+00 -0.00000000000E+00 -0.45593999997E+02  0.45594000000E+02  0.51100000000E-03 0. -1.
    9900012    2    1    2    0    0  0.34538554699E+01  0.15289617283E+01 -0.18341553667E+02  0.72461563273E+02  0.69999990854E+02 0.  0.
        -12    1    1    2    0    0 -0.34538554699E+01 -0.15289617283E+01  0.18341553667E+02  0.18726436727E+02  0.00000000000E+00 0.  1.
         11    1    3    3    0    0 -0.10054240817E+02  0.14898058111E+02 -0.11878858496E+02  0.21544075133E+02  0.51100000000E-03 0. -1.
        -11    1    3    3    0    0  0.93819009588E+01 -0.83217715104E+01  0.20031333609E+02  0.23633160455E+02  0.51100000000E-03 0.  1.
        -12    1    3    3    0    0  0.41261953278E+01 -0.50473248727E+01 -0.26494028780E+02  0.27284327685E+02  0.00000000000E+00 0.  1.
</event>
<event>
 7    1  0.1874105E-013  0.7246157E+02  0.7816164E-02  0.1226708E+00
        -11   -1    0    0    0    0  0.00000000000E+00  0.00000000000E+00  0.45593999997E+02  0.45594000000E+02  0.51100000000E-03 0.  1.
         11   -1    0    0    0    0 -0.00000000000E+00 -0.00000000000E+00 -0.45593999997E+02  0.45594000000E+02  0.51100000000E-03 0. -1.
    9900012    2    1    2    0    0  0.10368827000E+02  0.13333961110E+02 -0.80852995074E+01  0.72461570539E+02  0.70000000319E+02 0.  0.
        -12    1    1    2    0    0 -0.10368827000E+02 -0.13333961110E+02  0.80852995074E+01  0.18726429461E+02  0.00000000000E+00 0.  1.
         11    1    3    3    0    0  0.15664872109E+02 -0.11607835840E+01  0.18472523509E+02  0.24248087796E+02  0.51100000000E-03 0. -1.
        -11    1    3    3    0    0 -0.20878642392E+02  0.86143765625E+01 -0.99091244318E+01  0.24664061688E+02  0.51100000000E-03 0.  1.
         12    1    3    3    0    0  0.15582597283E+02  0.58803681313E+01 -0.16648698584E+02  0.23549421055E+02  0.00000000000E+00 0. -1.
</event>
<event>
 7    1  0.1874105E-013  0.7246151E+02  0.7816164E-02  0.1226708E+00
        -11   -1    0    0    0    0  0.00000000000E+00  0.00000000000E+00  0.45593999997E+02  0.45594000000E+02  0.51100000000E-03 0. -1.
         11   -1    0    0    0    0 -0.00000000000E+00 -0.00000000000E+00 -0.45593999997E+02  0.45594000000E+02  0.51100000000E-03 0.  1.
    9900012    2    1    2    0    0  0.21605776575E+00 -0.30602069087E+01  0.18473490240E+02  0.72461511035E+02  0.69999922804E+02 0.  0.
        -12    1    1    2    0    0 -0.21605776575E+00  0.30602069087E+01 -0.18473490240E+02  0.18726488965E+02  0.00000000000E+00 0.  1.
         11    1    3    3    0    0  0.26232590426E+02 -0.14064431000E+02 -0.12527346473E+01  0.29791380702E+02  0.51100000000E-03 0. -1.
        -11    1    3    3    0    0 -0.16763666450E+02 -0.63375241939E+01  0.11904742304E+02  0.21515287945E+02  0.51100000000E-03 0.  1.
         12    1    3    3    0    0 -0.92528662100E+01  0.17341748285E+02  0.78214825833E+01  0.21154842388E+02  0.00000000000E+00 0. -1.
</event>
<event>
 7    1  0.1874105E-013  0.7246156E+02  0.7816164E-02  0.1226708E+00
        -11   -1    0    0    0    0  0.00000000000E+00  0.00000000000E+00  0.45593999997E+02  0.45594000000E+02  0.51100000000E-03 0. -1.
         11   -1    0    0    0    0 -0.00000000000E+00 -0.00000000000E+00 -0.45593999997E+02  0.45594000000E+02  0.51100000000E-03 0.  1.
    9900012    2    1    2    0    0  0.78990313767E+01 -0.16382747214E+02 -0.44598718901E+01  0.72461559862E+02  0.69999986410E+02 0.  0.
        -12    1    1    2    0    0 -0.78990313767E+01  0.16382747214E+02  0.44598718901E+01  0.18726440138E+02  0.00000000000E+00 0.  1.
         11    1    3    3    0    0  0.68923341856E+01 -0.27596555066E+02  0.15214544827E+02  0.32257657952E+02  0.51100000000E-03 0. -1.
        -11    1    3    3    0    0 -0.30467133745E+00 -0.88883428489E+01 -0.17891819111E+02  0.19980306669E+02  0.51100000000E-03 0.  1.
         12    1    3    3    0    0  0.13113685285E+01  0.20102150701E+02 -0.17825976058E+01  0.20223595241E+02  0.00000000000E+00 0. -1.
</event>
<event>
 7    1  0.1874105E-013  0.7246157E+02  0.7816164E-02  0.1226708E+00
        -11   -1    0    0    0    0  0.00000000000E+00  0.00000000000E+00  0.45593999997E+02  0.45594000000E+02  0.51100000000E-03 0.  1.
         11   -1    0    0    0    0 -0.00000000000E+00 -0.00000000000E+00 -0.45593999997E+02  0.45594000000E+02  0.51100000000E-03 0. -1.
    9900012    2    1    2    0    0  0.76349025688E+01  0.10167608626E+02 -0.13747985194E+02  0.72461572169E+02  0.70000002442E+02 0.  0.
        -12    1    1    2    0    0 -0.76349025688E+01 -0.10167608626E+02  0.13747985194E+02  0.18726427831E+02  0.00000000000E+00 0.  1.
         11    1    3    3    0    0 -0.13723139615E+02 -0.11476368571E+02 -0.17904205315E+02  0.25309922257E+02  0.51100000000E-03 0. -1.
        -11    1    3    3    0    0  0.20239274894E+02  0.20967263572E+02  0.17335070702E+02  0.33908097358E+02  0.51100000000E-03 0.  1.
         12    1    3    3    0    0  0.11187672900E+01  0.67671362381E+00 -0.13178850582E+02  0.13243552553E+02  0.00000000000E+00 0. -1.
</event>
<event>
 7    1  0.1874105E-013  0.7246155E+02  0.7816164E-02  0.1226708E+00
        -11   -1    0    0    0    0  0.00000000000E+00  0.00000000000E+00  0.45593999997E+02  0.45594000000E+02  0.51100000000E-03 0.  1.
         11   -1    0    0    0    0 -0.00000000000E+00 -0.00000000000E+00 -0.45593999997E+02  0.45594000000E+02  0.51100000000E-03 0. -1.
    9900012    2    1    2    0    0 -0.68556216220E+01 -0.17059536104E+02  0.35570285513E+01  0.72461554207E+02  0.69999979043E+02 0.  0.
        -12    1    1    2    0    0  0.68556216220E+01  0.17059536104E+02 -0.35570285513E+01  0.18726445793E+02  0.00000000000E+00 0.  1.
         11    1    3    3    0    0 -0.44692299333E+01  0.16400210348E+02  0.21904015757E+01  0.17138809030E+02  0.51100000000E-03 0. -1.
        -11    1    3    3    0    0 -0.12815590251E+02 -0.77348967547E+01  0.17648319236E+02  0.23141546046E+02  0.51100000000E-03 0.  1.
         12    1    3    3    0    0  0.10429198562E+02 -0.25724849698E+02 -0.16281692260E+02  0.32181199131E+02  0.00000000000E+00 0. -1.
</event>
<event>
 7    1  0.1874105E-013  0.7246156E+02  0.7816164E-02  0.1226708E+00
        -11   -1    0    0    0    0  0.00000000000E+00  0.00000000000E+00  0.45593999997E+02  0.45594000000E+02  0.51100000000E-03 0. -1.
         11   -1    0    0    0    0 -0.00000000000E+00 -0.00000000000E+00 -0.45593999997E+02  0.45594000000E+02  0.51100000000E-03 0.  1.
    9900012    2    1    2    0    0 -0.17001216120E+02 -0.92306400207E+00  0.77965409677E+01  0.72461562865E+02  0.69999990322E+02 0.  0.
        -12    1    1    2    0    0  0.17001216120E+02  0.92306400207E+00 -0.77965409677E+01  0.18726437135E+02  0.00000000000E+00 0.  1.
         11    1    3    3    0    0 -0.19410879580E+02 -0.13788779353E+02  0.13036399128E+02  0.27145172399E+02  0.51100000000E-03 0. -1.
        -11    1    3    3    0    0 -0.64174970481E+01  0.13831657196E+02 -0.21754319042E+02  0.26565944485E+02  0.51100000000E-03 0.  1.
        -12    1    3    3    0    0  0.88271605079E+01 -0.96594184498E+00  0.16514460881E+02  0.18750445981E+02  0.00000000000E+00 0.  1.
</event>
<event>
 7    1  0.1874105E-013  0.7246234E+02  0.7816164E-02  0.1226706E+00
        -11   -1    0    0    0    0  0.00000000000E+00  0.00000000000E+00  0.45593999997E+02  0.45594000000E+02  0.51100000000E-03 0.  1.
         11   -1    0    0    0    0 -0.00000000000E+00 -0.00000000000E+00 -0.45593999997E+02  0.45594000000E+02  0.51100000000E-03 0. -1.
    9900012    2    1    2    0    0  0.12877040691E+02  0.98574556106E+01 -0.93628370972E+01  0.72462340423E+02  0.70001003229E+02 0.  0.
        -12    1    1    2    0    0 -0.12877040691E+02 -0.98574556106E+01  0.93628370972E+01  0.18725659577E+02  0.00000000000E+00 0.  1.
         11    1    3    3    0    0 -0.10473242618E+02  0.14853203520E+02 -0.53405530299E+01  0.18942755150E+02  0.51100000000E-03 0. -1.
        -11    1    3    3    0    0  0.25466744462E+02 -0.73704508087E+01 -0.22498490475E+02  0.34771550045E+02  0.51100000000E-03 0.  1.
        -12    1    3    3    0    0 -0.21164611532E+01  0.23747028990E+01  0.18476206408E+02  0.18748035228E+02  0.00000000000E+00 0.  1.
</event>
<event>
 7    1  0.1874105E-013  0.7246159E+02  0.7816164E-02  0.1226708E+00
        -11   -1    0    0    0    0  0.00000000000E+00  0.00000000000E+00  0.45593999997E+02  0.45594000000E+02  0.51100000000E-03 0.  1.
         11   -1    0    0    0    0 -0.00000000000E+00 -0.00000000000E+00 -0.45593999997E+02  0.45594000000E+02  0.51100000000E-03 0. -1.
    9900012    2    1    2    0    0 -0.82204584836E+01  0.15136885953E+02 -0.73469063185E+01  0.72461593871E+02  0.70000030713E+02 0.  0.
        -12    1    1    2    0    0  0.82204584836E+01 -0.15136885953E+02  0.73469063185E+01  0.18726406129E+02  0.00000000000E+00 0.  1.
         11    1    3    3    0    0 -0.90994624290E+01  0.30020653061E+02 -0.13454521884E+02  0.34133033649E+02  0.51100000000E-03 0. -1.
        -11    1    3    3    0    0 -0.93499247178E+01 -0.16293736779E+02 -0.83535247476E+01  0.20559385361E+02  0.51100000000E-03 0.  1.
        -12    1    3    3    0    0  0.10228928663E+02  0.14099696718E+01  0.14461140313E+02  0.17769174861E+02  0.00000000000E+00 0.  1.
</event>
<event>
 7    1  0.1874105E-013  0.7246159E+02  0.7816164E-02  0.1226708E+00
        -11   -1    0    0    0    0  0.00000000000E+00  0.00000000000E+00  0.45593999997E+02  0.45594000000E+02  0.51100000000E-03 0.  1.
         11   -1    0    0    0    0 -0.00000000000E+00 -0.00000000000E+00 -0.45593999997E+02  0.45594000000E+02  0.51100000000E-03 0. -1.
    9900012    2    1    2    0    0  0.44641237961E+01 -0.76887483871E+01 -0.16481299664E+02  0.72461588394E+02  0.70000023578E+02 0.  0.
        -12    1    1    2    0    0 -0.44641237961E+01  0.76887483871E+01  0.16481299664E+02  0.18726411606E+02  0.00000000000E+00 0.  1.
         11    1    3    3    0    0 -0.11850569039E+02 -0.55631248792E+01 -0.36236513049E+02  0.38528810301E+02  0.51100000000E-03 0. -1.
        -11    1    3    3    0    0  0.12359891446E+02 -0.44047299826E+01 -0.53822426394E+00  0.13132335984E+02  0.51100000000E-03 0.  1.
         12    1    3    3    0    0  0.39548013899E+01  0.22791064746E+01  0.20293437649E+02  0.20800442110E+02  0.00000000000E+00 0. -1.
</event>
<event>
 7    1  0.1874105E-013  0.7246154E+02  0.7816164E-02  0.1226708E+00
        -11   -1    0    0    0    0  0.00000000000E+00  0.00000000000E+00  0.45593999997E+02  0.45594000000E+02  0.51100000000E-03 0.  1.
         11   -1    0    0    0    0 -0.00000000000E+00 -0.00000000000E+00 -0.45593999997E+02  0.45594000000E+02  0.51100000000E-03 0. -1.
    9900012    2    1    2    0    0  0.51744441680E+01  0.17657321916E+02 -0.34819936894E+01  0.72461543588E+02  0.69999965211E+02 0.  0.
        -12    1    1    2    0    0 -0.51744441680E+01 -0.17657321916E+02  0.34819936894E+01  0.18726456412E+02  0.00000000000E+00 0.  1.
         11    1    3    3    0    0 -0.51221915107E+01 -0.64384681804E+00  0.66461026702E+01  0.84155846833E+01  0.51100000000E-03 0.  1.
        -11    1    3    3    0    0  0.19592622997E+02 -0.49439902653E+01 -0.27097157478E+02  0.33801920941E+02  0.51100000000E-03 0. -1.
        -12    1    3    3    0    0 -0.92959873184E+01  0.23245158999E+02  0.16969061119E+02  0.30244037964E+02  0.00000000000E+00 0.  1.
</event>
<event>
 7    1  0.1874105E-013  0.7246157E+02  0.7816164E-02  0.1226708E+00
        -11   -1    0    0    0    0  0.00000000000E+00  0.00000000000E+00  0.45593999997E+02  0.45594000000E+02  0.51100000000E-03 0.  1.
         11   -1    0    0    0    0 -0.00000000000E+00 -0.00000000000E+00 -0.45593999997E+02  0.45594000000E+02  0.51100000000E-03 0. -1.
    9900012    2    1    2    0    0  0.89970351171E+01 -0.10021409669E+02  0.13011687915E+02  0.72461566409E+02  0.69999994938E+02 0.  0.
        -12    1    1    2    0    0 -0.89970351171E+01  0.10021409669E+02 -0.13011687915E+02  0.18726433591E+02  0.00000000000E+00 0.  1.
         11    1    3    3    0    0  0.20588875976E+02 -0.29177027493E+02  0.33434602166E+01  0.35866132685E+02  0.51100000000E-03 0. -1.
        -11    1    3    3    0    0 -0.19571829866E+02  0.16981096878E+02  0.32262468830E+01  0.26111737681E+02  0.51100000000E-03 0.  1.
         12    1    3    3    0    0  0.79799890069E+01  0.21745209454E+01  0.64419808157E+01  0.10483696043E+02  0.00000000000E+00 0. -1.
</event>
<event>
 7    1  0.1874105E-013  0.7246160E+02  0.7816164E-02  0.1226708E+00
        -11   -1    0    0    0    0  0.00000000000E+00  0.00000000000E+00  0.45593999997E+02  0.45594000000E+02  0.51100000000E-03 0. -1.
         11   -1    0    0    0    0 -0.00000000000E+00 -0.00000000000E+00 -0.45593999997E+02  0.45594000000E+02  0.51100000000E-03 0.  1.
    9900012    2    1    2    0    0  0.68172631436E+00  0.13775596788E+02  0.12666737573E+02  0.72461599962E+02  0.70000038648E+02 0.  0.
        -12    1    1    2    0    0 -0.68172631436E+00 -0.13775596788E+02 -0.12666737573E+02  0.18726400038E+02  0.00000000000E+00 0.  1.
         11    1    3    3    0    0 -0.18218292783E+02  0.24542320696E+02  0.12197400468E+02  0.32909091077E+02  0.51100000000E-03 0. -1.
        -11    1    3    3    0    0  0.20743971756E+02 -0.46986022710E+01 -0.12815150001E+02  0.24831779987E+02  0.51100000000E-03 0.  1.
         12    1    3    3    0    0 -0.18439526587E+01 -0.60681216377E+01  0.13284487107E+02  0.14720728899E+02  0.00000000000E+00 0. -1.
</event>
<event>
 7    1  0.1874105E-013  0.7246155E+02  0.7816164E-02  0.1226708E+00
        -11   -1    0    0    0    0  0.00000000000E+00  0.00000000000E+00  0.45593999997E+02  0.45594000000E+02  0.51100000000E-03 0.  1.
         11   -1    0    0    0    0 -0.00000000000E+00 -0.00000000000E+00 -0.45593999997E+02  0.45594000000E+02  0.51100000000E-03 0. -1.
    9900012    2    1    2    0    0 -0.41251427631E+01 -0.10685719205E+02 -0.14814802560E+02  0.72461554191E+02  0.69999979022E+02 0.  0.
        -12    1    1    2    0    0  0.41251427631E+01  0.10685719205E+02  0.14814802560E+02  0.18726445809E+02  0.00000000000E+00 0.  1.
         11    1    3    3    0    0 -0.82281717183E+01  0.13311817568E+02  0.26226791744E+01  0.15867757973E+02  0.51100000000E-03 0. -1.
        -11    1    3    3    0    0 -0.17772271984E+02 -0.26370329203E+02 -0.92769670674E+01  0.33125670287E+02  0.51100000000E-03 0.  1.
        -12    1    3    3    0    0  0.21875300939E+02  0.23727924296E+01 -0.81605146672E+01  0.23468125931E+02  0.00000000000E+00 0.  1.
</event>
<event>
 7    1  0.1874105E-013  0.7246159E+02  0.7816164E-02  0.1226708E+00
        -11   -1    0    0    0    0  0.00000000000E+00  0.00000000000E+00  0.45593999997E+02  0.45594000000E+02  0.51100000000E-03 0.  1.
         11   -1    0    0    0    0 -0.00000000000E+00 -0.00000000000E+00 -0.45593999997E+02  0.45594000000E+02  0.51100000000E-03 0. -1.
    9900012    2    1    2    0    0 -0.41244033528E+01  0.85697502434E+00 -0.18246459484E+02  0.72461591030E+02  0.70000027013E+02 0.  0.
        -12    1    1    2    0    0  0.41244033528E+01 -0.85697502434E+00  0.18246459484E+02  0.18726408970E+02  0.00000000000E+00 0.  1.
         11    1    3    3    0    0  0.22533205506E+02 -0.16961628801E+01 -0.33107240153E-01  0.22596978011E+02  0.51100000000E-03 0.  1.
        -11    1    3    3    0    0 -0.86662744549E+01  0.19153891459E+01 -0.28000562110E+02  0.29373534129E+02  0.51100000000E-03 0. -1.
         12    1    3    3    0    0 -0.17991334404E+02  0.63774875853E+00  0.97872098662E+01  0.20491078890E+02  0.00000000000E+00 0. -1.
</event>
<event>
 7    1  0.1874105E-013  0.7246147E+02  0.7816164E-02  0.1226708E+00
        -11   -1    0    0    0    0  0.00000000000E+00  0.00000000000E+00  0.45593999997E+02  0.45594000000E+02  0.51100000000E-03 0. -1.
         11   -1    0    0    0    0 -0.00000000000E+00 -0.00000000000E+00 -0.45593999997E+02  0.45594000000E+02  0.51100000000E-03 0.  1.
    9900012    2    1    2    0    0 -0.15805466695E+02 -0.46508066465E+01  0.89016961131E+01  0.72461468725E+02  0.69999867687E+02 0.  0.
        -12    1    1    2    0    0  0.15805466695E+02  0.46508066465E+01 -0.89016961131E+01  0.18726531275E+02  0.00000000000E+00 0.  1.
         11    1    3    3    0    0 -0.12099292532E+02 -0.94080362190E+01  0.91143612807E+01  0.17831870543E+02  0.51100000000E-03 0. -1.
        -11    1    3    3    0    0 -0.11162611714E+02 -0.15034781150E+02 -0.18754691437E+02  0.26502584697E+02  0.51100000000E-03 0.  1.
        -12    1    3    3    0    0  0.74564375511E+01  0.19792010722E+02  0.18542026269E+02  0.28127013484E+02  0.00000000000E+00 0.  1.
</event>
<event>
 7    1  0.1874105E-013  0.7246163E+02  0.7816164E-02  0.1226708E+00
        -11   -1    0    0    0    0  0.00000000000E+00  0.00000000000E+00  0.45593999997E+02  0.45594000000E+02  0.51100000000E-03 0.  1.
         11   -1    0    0    0    0 -0.00000000000E+00 -0.00000000000E+00 -0.45593999997E+02  0.45594000000E+02  0.51100000000E-03 0. -1.
    9900012    2    1    2    0    0 -0.85864597747E+01  0.87776298191E+01 -0.14138701855E+02  0.72461629107E+02  0.70000076614E+02 0.  0.
        -12    1    1    2    0    0  0.85864597747E+01 -0.87776298191E+01  0.14138701855E+02  0.18726370893E+02  0.00000000000E+00 0.  1.
         11    1    3    3    0    0 -0.15660039259E+02 -0.82481669529E+01 -0.42017167878E+01  0.18191303194E+02  0.51100000000E-03 0. -1.
        -11    1    3    3    0    0  0.24693208998E+02  0.11189222363E+02  0.81960166673E+01  0.28321863590E+02  0.51100000000E-03 0.  1.
        -12    1    3    3    0    0 -0.17619629514E+02  0.58365744091E+01 -0.18133001734E+02  0.25948462323E+02  0.00000000000E+00 0.  1.
</event>
<event>
 7    1  0.1874105E-013  0.7246155E+02  0.7816164E-02  0.1226708E+00
        -11   -1    0    0    0    0  0.00000000000E+00  0.00000000000E+00  0.45593999997E+02  0.45594000000E+02  0.51100000000E-03 0.  1.
         11   -1    0    0    0    0 -0.00000000000E+00 -0.00000000000E+00 -0.45593999997E+02  0.45594000000E+02  0.51100000000E-03 0. -1.
    9900012    2    1    2    0    0  0.10737263273E+02 -0.13632115265E+01 -0.15281779666E+02  0.72461549241E+02  0.69999972574E+02 0.  0.
        -12    1    1    2    0    0 -0.10737263273E+02  0.13632115265E+01  0.15281779666E+02  0.18726450759E+02  0.00000000000E+00 0.  1.
         11    1    3    3    0    0  0.62597497819E+01  0.18998108185E+02 -0.47934965633E+01  0.20569156315E+02  0.51100000000E-03 0. -1.
        -11    1    3    3    0    0 -0.12513362040E+01 -0.31996675518E+02  0.42027585860E+01  0.32295762362E+02  0.51100000000E-03 0.  1.
        -12    1    3    3    0    0  0.57288496949E+01  0.11635355807E+02 -0.14691041689E+02  0.19596630565E+02  0.00000000000E+00 0.  1.
</event>
<event>
 7    1  0.1874105E-013  0.7246161E+02  0.7816164E-02  0.1226708E+00
        -11   -1    0    0    0    0  0.00000000000E+00  0.00000000000E+00  0.45593999997E+02  0.45594000000E+02  0.51100000000E-03 0. -1.
         11   -1    0    0    0    0 -0.00000000000E+00 -0.00000000000E+00 -0.45593999997E+02  0.45594000000E+02  0.51100000000E-03 0.  1.
    9900012    2    1    2    0    0 -0.61154238645E+01 -0.91647664731E+01 -0.15142203800E+02  0.72461609812E+02  0.70000051479E+02 0.  0.
        -12    1    1    2    0    0  0.61154238645E+01  0.91647664731E+01  0.15142203800E+02  0.18726390188E+02  0.00000000000E+00 0.  1.
         11    1    3    3    0    0 -0.17079159446E+02 -0.41174329920E+01  0.78839670075E+01  0.19256372396E+02  0.51100000000E-03 0. -1.
        -11    1    3    3    0    0  0.47649596999E+01 -0.81211643910E+01 -0.36695644507E+02  0.37884409432E+02  0.51100000000E-03 0.  1.
        -12    1    3    3    0    0  0.61987758815E+01  0.30738309099E+01  0.13669473699E+02  0.15320827983E+02  0.00000000000E+00 0.  1.
</event>
<event>
 7    1  0.1874105E-013  0.7246178E+02  0.7816164E-02  0.1226707E+00
        -11   -1    0    0    0    0  0.00000000000E+00  0.00000000000E+00  0.45593999997E+02  0.45594000000E+02  0.51100000000E-03 0. -1.
         11   -1    0    0    0    0 -0.00000000000E+00 -0.00000000000E+00 -0.45593999997E+02  0.45594000000E+02  0.51100000000E-03 0.  1.
    9900012    2    1    2    0    0 -0.32200503635E+01  0.66744924818E+01  0.17197488290E+02  0.72461783678E+02  0.70000277972E+02 0.  0.
        -12    1    1    2    0    0  0.32200503635E+01 -0.66744924818E+01 -0.17197488290E+02  0.18726216322E+02  0.00000000000E+00 0.  1.
         11    1    3    3    0    0 -0.18401745861E+02 -0.12351603717E+02  0.23104154262E+02  0.32015438613E+02  0.51100000000E-03 0. -1.
        -11    1    3    3    0    0  0.15330917293E+02  0.27075306605E+02 -0.80031714992E+01  0.32127247114E+02  0.51100000000E-03 0.  1.
        -12    1    3    3    0    0 -0.14922179469E+00 -0.80492104066E+01  0.20965055269E+01  0.83190979521E+01  0.00000000000E+00 0.  1.
</event>
<event>
 7    1  0.1874105E-013  0.7246167E+02  0.7816164E-02  0.1226708E+00
        -11   -1    0    0    0    0  0.00000000000E+00  0.00000000000E+00  0.45593999997E+02  0.45594000000E+02  0.51100000000E-03 0. -1.
         11   -1    0    0    0    0 -0.00000000000E+00 -0.00000000000E+00 -0.45593999997E+02  0.45594000000E+02  0.51100000000E-03 0.  1.
    9900012    2    1    2    0    0 -0.28680187916E+01  0.10399149337E+02  0.15307106048E+02  0.72461672696E+02  0.70000133397E+02 0.  0.
        -12    1    1    2    0    0  0.28680187916E+01 -0.10399149337E+02 -0.15307106048E+02  0.18726327304E+02  0.00000000000E+00 0.  1.
         11    1    3    3    0    0 -0.16864581932E+02  0.26293047305E+02  0.15983639852E+02  0.35088676286E+02  0.51100000000E-03 0. -1.
        -11    1    3    3    0    0  0.14215402398E+02  0.28525464353E+01 -0.87787913850E+01  0.16949391285E+02  0.51100000000E-03 0.  1.
         12    1    3    3    0    0 -0.21883925744E+00 -0.18746444403E+02  0.81022575815E+01  0.20423605125E+02  0.00000000000E+00 0. -1.
</event>
<event>
 7    1  0.1874105E-013  0.7246155E+02  0.7816164E-02  0.1226708E+00
        -11   -1    0    0    0    0  0.00000000000E+00  0.00000000000E+00  0.45593999997E+02  0.45594000000E+02  0.51100000000E-03 0.  1.
         11   -1    0    0    0    0 -0.00000000000E+00 -0.00000000000E+00 -0.45593999997E+02  0.45594000000E+02  0.51100000000E-03 0. -1.
    9900012    2    1    2    0    0  0.44380884283E+01 -0.17172726962E+02 -0.60067407557E+01  0.72461545057E+02  0.69999967124E+02 0.  0.
        -12    1    1    2    0    0 -0.44380884283E+01  0.17172726962E+02  0.60067407557E+01  0.18726454943E+02  0.00000000000E+00 0.  1.
         11    1    3    3    0    0 -0.84698968773E+01  0.30997840593E+01 -0.24488096282E+02  0.26096257856E+02  0.51100000000E-03 0. -1.
        -11    1    3    3    0    0  0.10586339641E+02 -0.29769591822E+02  0.18450454274E+02  0.36588501574E+02  0.51100000000E-03 0.  1.
        -12    1    3    3    0    0  0.23216456647E+01  0.94970808001E+01  0.30901251997E-01  0.97767856274E+01  0.00000000000E+00 0.  1.
</event>
<event>
 7    1  0.1874105E-013  0.7246165E+02  0.7816164E-02  0.1226708E+00
        -11   -1    0    0    0    0  0.00000000000E+00  0.00000000000E+00  0.45593999997E+02  0.45594000000E+02  0.51100000000E-03 0. -1.
         11   -1    0    0    0    0 -0.00000000000E+00 -0.00000000000E+00 -0.45593999997E+02  0.45594000000E+02  0.51100000000E-03 0.  1.
    9900012    2    1    2    0    0  0.18466121344E+02  0.13723679592E+01  0.27919889546E+01  0.72461648684E+02  0.70000102117E+02 0.  0.
        -12    1    1    2    0    0 -0.18466121344E+02 -0.13723679592E+01 -0.27919889546E+01  0.18726351316E+02  0.00000000000E+00 0.  1.
         11    1    3    3    0    0  0.24659325803E+02  0.72252569340E+01  0.14826024352E+02  0.29666440386E+02  0.51100000000E-03 0. -1.
        -11    1    3    3    0    0 -0.26985928712E+01  0.13645662886E+02 -0.17395657868E+02  0.22273199860E+02  0.51100000000E-03 0.  1.
         12    1    3    3    0    0 -0.34946115886E+01 -0.19498551861E+02  0.53616224705E+01  0.20522008438E+02  0.00000000000E+00 0. -1.
</event>
<event>
 7    1  0.1874105E-013  0.7246158E+02  0.7816164E-02  0.1226708E+00
        -11   -1    0    0    0    0  0.00000000000E+00  0.00000000000E+00  0.45593999997E+02  0.45594000000E+02  0.51100000000E-03 0.  1.
         11   -1    0    0    0    0 -0.00000000000E+00 -0.00000000000E+00 -0.45593999997E+02  0.45594000000E+02  0.51100000000E-03 0. -1.
    9900012    2    1    2    0    0 -0.83729364026E+00  0.18649422677E+02 -0.14754162795E+01  0.72461578024E+02  0.70000010069E+02 0.  0.
        -12    1    1    2    0    0  0.83729364026E+00 -0.18649422677E+02  0.14754162795E+01  0.18726421976E+02  0.00000000000E+00 0.  1.
         11    1    3    3    0    0  0.13723442654E+02 -0.13942680910E+02  0.11012005302E+02  0.22449843881E+02  0.51100000000E-03 0. -1.
        -11    1    3    3    0    0  0.13435006380E+01  0.25320595090E+02 -0.18643111577E+02  0.31472259837E+02  0.51100000000E-03 0.  1.
        -12    1    3    3    0    0 -0.15904236933E+02  0.72715084967E+01  0.61556899960E+01  0.18539474306E+02  0.00000000000E+00 0.  1.
</event>
<event>
 7    1  0.1874105E-013  0.7246172E+02  0.7816164E-02  0.1226708E+00
        -11   -1    0    0    0    0  0.00000000000E+00  0.00000000000E+00  0.45593999997E+02  0.45594000000E+02  0.51100000000E-03 0. -1.
         11   -1    0    0    0    0 -0.00000000000E+00 -0.00000000000E+00 -0.45593999997E+02  0.45594000000E+02  0.51100000000E-03 0.  1.
    9900012    2    1    2    0    0  0.92418069211E+01 -0.15621979981E+02  0.46061220619E+01  0.72461718625E+02  0.70000193228E+02 0.  0.
        -12    1    1    2    0    0 -0.92418069211E+01  0.15621979981E+02 -0.46061220619E+01  0.18726281375E+02  0.00000000000E+00 0.  1.
         11    1    3    3    0    0  0.69119838084E+01  0.21777844638E+02 -0.48799461463E+01  0.23363730693E+02  0.51100000000E-03 0. -1.
        -11    1    3    3    0    0  0.59490748339E+01 -0.20930622780E+02 -0.94668144824E+01  0.23729792204E+02  0.51100000000E-03 0.  1.
         12    1    3    3    0    0 -0.36192517213E+01 -0.16469201838E+02  0.18952882691E+02  0.25368195728E+02  0.00000000000E+00 0. -1.
</event>
<event>
 7    1  0.1874105E-013  0.7246158E+02  0.7816164E-02  0.1226708E+00
        -11   -1    0    0    0    0  0.00000000000E+00  0.00000000000E+00  0.45593999997E+02  0.45594000000E+02  0.51100000000E-03 0.  1.
         11   -1    0    0    0    0 -0.00000000000E+00 -0.00000000000E+00 -0.45593999997E+02  0.45594000000E+02  0.51100000000E-03 0. -1.
    9900012    2    1    2    0    0 -0.10211949462E+02 -0.87805839538E+01  0.13011383227E+02  0.72461583902E+02  0.70000017726E+02 0.  0.
        -12    1    1    2    0    0  0.10211949462E+02  0.87805839538E+01 -0.13011383227E+02  0.18726416098E+02  0.00000000000E+00 0.  1.
         11    1    3    3    0    0 -0.29536209696E+02  0.14611737600E+02 -0.74621168969E+01  0.33787183188E+02  0.51100000000E-03 0.  1.
        -11    1    3    3    0    0  0.12741093775E+02 -0.22673909144E+02  0.14620024970E+02  0.29835997668E+02  0.51100000000E-03 0. -1.
        -12    1    3    3    0    0  0.65831664594E+01 -0.71841240960E+00  0.58534751544E+01  0.88384030462E+01  0.00000000000E+00 0.  1.
</event>
<event>
 7    1  0.1874105E-013  0.7246156E+02  0.7816164E-02  0.1226708E+00
        -11   -1    0    0    0    0  0.00000000000E+00  0.00000000000E+00  0.45593999997E+02  0.45594000000E+02  0.51100000000E-03 0. -1.
         11   -1    0    0    0    0 -0.00000000000E+00 -0.00000000000E+00 -0.45593999997E+02  0.45594000000E+02  0.51100000000E-03 0.  1.
    9900012    2    1    2    0    0 -0.20946667264E+01 -0.15041138867E+02  0.10957010891E+02  0.72461559474E+02  0.69999985904E+02 0.  0.
        -12    1    1    2    0    0  0.20946667264E+01  0.15041138867E+02 -0.10957010891E+02  0.18726440526E+02  0.00000000000E+00 0.  1.
         11    1    3    3    0    0 -0.10197215779E+02 -0.52650214635E+01 -0.19246250004E+02  0.22408074441E+02  0.51100000000E-03 0. -1.
        -11    1    3    3    0    0  0.23171242363E+02 -0.75209521897E+01  0.15466665392E+02  0.28856349961E+02  0.51100000000E-03 0.  1.
        -12    1    3    3    0    0 -0.15068693310E+02 -0.22551652142E+01  0.14736595504E+02  0.21197135072E+02  0.00000000000E+00 0.  1.
</event>
<event>
 8    1  0.1874105E-013  0.7246156E+02  0.7816164E-02  0.1226708E+00
        -11   -1    0    0    0    0  0.00000000000E+00  0.00000000000E+00  0.45593999997E+02  0.45594000000E+02  0.51100000000E-03 0.  1.
         11   -1    0    0    0    0 -0.00000000000E+00 -0.00000000000E+00 -0.45593999997E+02  0.45594000000E+02  0.51100000000E-03 0. -1.
    9900012    2    1    2    0    0  0.16984412946E+02 -0.78091037200E+00 -0.78485422094E+01  0.72461555625E+02  0.69999980890E+02 0.  0.
         24    2    3    3    0    0  0.34078023332E+01  0.87862337513E+01  0.60213623267E+01  0.50822959217E+02  0.49577266554E+02 0.  0.
        -12    1    1    2    0    0 -0.16984412946E+02  0.78091037200E+00  0.78485422094E+01  0.18726444375E+02  0.00000000000E+00 0.  1.
         11    1    3    3    0    0  0.13576610613E+02 -0.95671441233E+01 -0.13869904536E+02  0.21638596408E+02  0.51100000000E-03 0. -1.
        -11    1    4    4    0    0  0.96368987314E+01  0.55962708523E+01  0.26732008954E+02  0.28961843304E+02  0.51100000000E-03 0.  1.
         12    1    4    4    0    0 -0.62290963982E+01  0.31899628990E+01 -0.20710646627E+02  0.21861115913E+02  0.00000000000E+00 0. -1.
</event>
<event>
 7    1  0.1874105E-013  0.7246157E+02  0.7816164E-02  0.1226708E+00
        -11   -1    0    0    0    0  0.00000000000E+00  0.00000000000E+00  0.45593999997E+02  0.45594000000E+02  0.51100000000E-03 0.  1.
         11   -1    0    0    0    0 -0.00000000000E+00 -0.00000000000E+00 -0.45593999997E+02  0.45594000000E+02  0.51100000000E-03 0. -1.
    9900012    2    1    2    0    0 -0.10016797290E+02 -0.45362332398E+01 -0.15158018919E+02  0.72461570081E+02  0.69999999723E+02 0.  0.
        -12    1    1    2    0    0  0.10016797290E+02  0.45362332398E+01  0.15158018919E+02  0.18726429919E+02  0.00000000000E+00 0.  1.
         11    1    3    3    0    0  0.12293513284E+02  0.91662874566E+00  0.18276470670E+02  0.22045408990E+02  0.51100000000E-03 0. -1.
        -11    1    3    3    0    0 -0.94280523511E+00  0.10783313448E+02 -0.82066327975E+01  0.13583723818E+02  0.51100000000E-03 0.  1.
         12    1    3    3    0    0 -0.21367505339E+02 -0.16236175434E+02 -0.25227856792E+02  0.36832437273E+02  0.00000000000E+00 0. -1.
</event>
<event>
 7    1  0.1874105E-013  0.7246154E+02  0.7816164E-02  0.1226708E+00
        -11   -1    0    0    0    0  0.00000000000E+00  0.00000000000E+00  0.45593999997E+02  0.45594000000E+02  0.51100000000E-03 0.  1.
         11   -1    0    0    0    0 -0.00000000000E+00 -0.00000000000E+00 -0.45593999997E+02  0.45594000000E+02  0.51100000000E-03 0. -1.
    9900012    2    1    2    0    0 -0.18071489003E+02  0.48574843007E+01 -0.71163841884E+00  0.72461540170E+02  0.69999960757E+02 0.  0.
        -12    1    1    2    0    0  0.18071489003E+02 -0.48574843007E+01  0.71163841884E+00  0.18726459830E+02  0.00000000000E+00 0.  1.
         11    1    3    3    0    0 -0.32967081304E+02  0.19770741680E+02 -0.13746673360E+01  0.38465574048E+02  0.51100000000E-03 0. -1.
        -11    1    3    3    0    0  0.18178153837E+02 -0.36469949691E+00 -0.34911371578E+01  0.18513949377E+02  0.51100000000E-03 0.  1.
        -12    1    3    3    0    0 -0.32825615364E+01 -0.14548557883E+02  0.41541660750E+01  0.15482016745E+02  0.00000000000E+00 0.  1.
</event>
<event>
 7    1  0.1874105E-013  0.7246160E+02  0.7816164E-02  0.1226708E+00
        -11   -1    0    0    0    0  0.00000000000E+00  0.00000000000E+00  0.45593999997E+02  0.45594000000E+02  0.51100000000E-03 0.  1.
         11   -1    0    0    0    0 -0.00000000000E+00 -0.00000000000E+00 -0.45593999997E+02  0.45594000000E+02  0.51100000000E-03 0. -1.
    9900012    2    1    2    0    0  0.15889771960E+01  0.12859089769E+02 -0.13520250565E+02  0.72461595819E+02  0.70000033250E+02 0.  0.
        -12    1    1    2    0    0 -0.15889771960E+01 -0.12859089769E+02  0.13520250565E+02  0.18726404181E+02  0.00000000000E+00 0.  1.
         11    1    3    3    0    0  0.20102432662E+01  0.27399407417E+02 -0.26567335002E+02  0.38217690853E+02  0.51100000000E-03 0. -1.
        -11    1    3    3    0    0  0.11856460748E+02 -0.10951034611E+02  0.14069508639E+02  0.21411489768E+02  0.51100000000E-03 0.  1.
         12    1    3    3    0    0 -0.12277726818E+02 -0.35892830376E+01 -0.10224242019E+01  0.12832415197E+02  0.00000000000E+00 0. -1.
</event>
<event>
 7    1  0.1874105E-013  0.7246156E+02  0.7816164E-02  0.1226708E+00
        -11   -1    0    0    0    0  0.00000000000E+00  0.00000000000E+00  0.45593999997E+02  0.45594000000E+02  0.51100000000E-03 0. -1.
         11   -1    0    0    0    0 -0.00000000000E+00 -0.00000000000E+00 -0.45593999997E+02  0.45594000000E+02  0.51100000000E-03 0.  1.
    9900012    2    1    2    0    0 -0.11542876019E+02 -0.13906070518E+02  0.49053925386E+01  0.72461557199E+02  0.69999982941E+02 0.  0.
        -12    1    1    2    0    0  0.11542876019E+02  0.13906070518E+02 -0.49053925386E+01  0.18726442801E+02  0.00000000000E+00 0.  1.
         11    1    3    3    0    0 -0.18391857006E+02  0.12247325732E+02 -0.20423217631E+02  0.30089287303E+02  0.51100000000E-03 0. -1.
        -11    1    3    3    0    0 -0.17412648935E+00 -0.21060406620E+02  0.71707408286E+01  0.22248383566E+02  0.51100000000E-03 0.  1.
         12    1    3    3    0    0  0.70231074764E+01 -0.50929896303E+01  0.18157869341E+02  0.20123886330E+02  0.00000000000E+00 0. -1.
</event>
<event>
 7    1  0.1874105E-013  0.7246158E+02  0.7816164E-02  0.1226708E+00
        -11   -1    0    0    0    0  0.00000000000E+00  0.00000000000E+00  0.45593999997E+02  0.45594000000E+02  0.51100000000E-03 0.  1.
         11   -1    0    0    0    0 -0.00000000000E+00 -0.00000000000E+00 -0.45593999997E+02  0.45594000000E+02  0.51100000000E-03 0. -1.
    9900012    2    1    2    0    0 -0.89769982144E+01 -0.87581989416E+01  0.13906344245E+02  0.72461575998E+02  0.70000007430E+02 0.  0.
        -12    1    1    2    0    0  0.89769982144E+01  0.87581989416E+01 -0.13906344245E+02  0.18726424002E+02  0.00000000000E+00 0.  1.
         11    1    3    3    0    0 -0.10321598871E+02  0.25646311240E+01 -0.13126639568E+02  0.16894419276E+02  0.51100000000E-03 0. -1.
        -11    1    3    3    0    0 -0.10377839380E+01 -0.25970037180E+02  0.30756320792E+02  0.40267494279E+02  0.51100000000E-03 0.  1.
        -12    1    3    3    0    0  0.23823845949E+01  0.14647207114E+02 -0.37233369789E+01  0.15299662443E+02  0.00000000000E+00 0.  1.
</event>
<event>
 7    1  0.1874105E-013  0.7246120E+02  0.7816164E-02  0.1226709E+00
        -11   -1    0    0    0    0  0.00000000000E+00  0.00000000000E+00  0.45593999997E+02  0.45594000000E+02  0.51100000000E-03 0. -1.
         11   -1    0    0    0    0 -0.00000000000E+00 -0.00000000000E+00 -0.45593999997E+02  0.45594000000E+02  0.51100000000E-03 0.  1.
    9900012    2    1    2    0    0 -0.13149526070E+02  0.12798464239E+02  0.37392913040E+01  0.72461200428E+02  0.69999518179E+02 0.  0.
        -12    1    1    2    0    0  0.13149526070E+02 -0.12798464239E+02 -0.37392913040E+01  0.18726799572E+02  0.00000000000E+00 0.  1.
         11    1    3    3    0    0 -0.24258643422E+02 -0.10767164019E+02  0.26586264635E+02  0.37566515266E+02  0.51100000000E-03 0. -1.
        -11    1    3    3    0    0  0.39099754151E+01  0.11205133971E+02 -0.82231549643E+01  0.14438255188E+02  0.51100000000E-03 0.  1.
         12    1    3    3    0    0  0.71991419369E+01  0.12360494287E+02 -0.14623818367E+02  0.20456429974E+02  0.00000000000E+00 0. -1.
</event>
<event>
 7    1  0.1874105E-013  0.7246159E+02  0.7816164E-02  0.1226708E+00
        -11   -1    0    0    0    0  0.00000000000E+00  0.00000000000E+00  0.45593999997E+02  0.45594000000E+02  0.51100000000E-03 0.  1.
         11   -1    0    0    0    0 -0.00000000000E+00 -0.00000000000E+00 -0.45593999997E+02  0.45594000000E+02  0.51100000000E-03 0. -1.
    9900012    2    1    2    0    0 -0.97359203959E+01 -0.10366732135E+02 -0.12182825396E+02  0.72461587750E+02  0.70000022739E+02 0.  0.
        -12    1    1    2    0    0  0.97359203959E+01  0.10366732135E+02  0.12182825396E+02  0.18726412250E+02  0.00000000000E+00 0.  1.
         11    1    3    3    0    0  0.65989503078E+01 -0.22017687666E+02  0.52373519395E+01  0.23574447415E+02  0.51100000000E-03 0. -1.
        -11    1    3    3    0    0 -0.25959388875E+02  0.13008792036E+02 -0.11225736177E+00  0.29036720596E+02  0.51100000000E-03 0.  1.
         12    1    3    3    0    0  0.96245181713E+01 -0.13578365059E+01 -0.17307919974E+02  0.19850419739E+02  0.00000000000E+00 0. -1.
</event>
<event>
 7    1  0.1874105E-013  0.7246153E+02  0.7816164E-02  0.1226708E+00
        -11   -1    0    0    0    0  0.00000000000E+00  0.00000000000E+00  0.45593999997E+02  0.45594000000E+02  0.51100000000E-03 0.  1.
         11   -1    0    0    0    0 -0.00000000000E+00 -0.00000000000E+00 -0.45593999997E+02  0.45594000000E+02  0.51100000000E-03 0. -1.
    9900012    2    1    2    0    0 -0.18278654635E+02  0.56683865351E+00 -0.40311299983E+01  0.72461533959E+02  0.69999952666E+02 0.  0.
        -12    1    1    2    0    0  0.18278654635E+02 -0.56683865351E+00  0.40311299983E+01  0.18726466041E+02  0.00000000000E+00 0.  1.
         11    1    3    3    0    0 -0.32280566431E+02 -0.20012526397E+02  0.21034239699E+01  0.38038934982E+02  0.51100000000E-03 0.  1.
        -11    1    3    3    0    0  0.15710673317E+02  0.22041306125E+02  0.85426995739E+00  0.27080882726E+02  0.51100000000E-03 0. -1.
        -12    1    3    3    0    0 -0.17087615215E+01 -0.14619410753E+01 -0.69888239256E+01  0.73417162509E+01  0.00000000000E+00 0.  1.
</event>
<event>
 7    1  0.1874105E-013  0.7246156E+02  0.7816164E-02  0.1226708E+00
        -11   -1    0    0    0    0  0.00000000000E+00  0.00000000000E+00  0.45593999997E+02  0.45594000000E+02  0.51100000000E-03 0. -1.
         11   -1    0    0    0    0 -0.00000000000E+00 -0.00000000000E+00 -0.45593999997E+02  0.45594000000E+02  0.51100000000E-03 0.  1.
    9900012    2    1    2    0    0 -0.68411359772E+01 -0.15465396814E+02  0.80436274330E+01  0.72461559272E+02  0.69999985641E+02 0.  0.
        -12    1    1    2    0    0  0.68411359772E+01  0.15465396814E+02 -0.80436274330E+01  0.18726440728E+02  0.00000000000E+00 0.  1.
         11    1    3    3    0    0  0.19671824997E+02 -0.13509441718E+02  0.87227742249E+01  0.25408118873E+02  0.51100000000E-03 0.  1.
        -11    1    3    3    0    0 -0.25576715494E+02  0.14190736661E+02 -0.63190412264E+01  0.29924499406E+02  0.51100000000E-03 0. -1.
        -12    1    3    3    0    0 -0.93624548001E+00 -0.16146691757E+02  0.56398944344E+01  0.17128940992E+02  0.00000000000E+00 0.  1.
</event>
<event>
 7    1  0.1874105E-013  0.7246158E+02  0.7816164E-02  0.1226708E+00
        -11   -1    0    0    0    0  0.00000000000E+00  0.00000000000E+00  0.45593999997E+02  0.45594000000E+02  0.51100000000E-03 0.  1.
         11   -1    0    0    0    0 -0.00000000000E+00 -0.00000000000E+00 -0.45593999997E+02  0.45594000000E+02  0.51100000000E-03 0. -1.
    9900012    2    1    2    0    0 -0.13798246465E+02  0.10919912156E+02 -0.64064612487E+01  0.72461579286E+02  0.70000011714E+02 0.  0.
        -12    1    1    2    0    0  0.13798246465E+02 -0.10919912156E+02  0.64064612487E+01  0.18726420714E+02  0.00000000000E+00 0.  1.
         11    1    3    3    0    0 -0.17130573771E+02  0.30981496967E+02  0.17717071348E+02  0.39587931614E+02  0.51100000000E-03 0. -1.
        -11    1    3    3    0    0  0.15629137101E+01 -0.19021807906E+02 -0.17340417018E+02  0.25786855914E+02  0.51100000000E-03 0.  1.
        -12    1    3    3    0    0  0.17694135953E+01 -0.10397769047E+01 -0.67831155782E+01  0.70867917586E+01  0.00000000000E+00 0.  1.
</event>
<event>
 7    1  0.1874105E-013  0.7246145E+02  0.7816164E-02  0.1226708E+00
        -11   -1    0    0    0    0  0.00000000000E+00  0.00000000000E+00  0.45593999997E+02  0.45594000000E+02  0.51100000000E-03 0. -1.
         11   -1    0    0    0    0 -0.00000000000E+00 -0.00000000000E+00 -0.45593999997E+02  0.45594000000E+02  0.51100000000E-03 0.  1.
    9900012    2    1    2    0    0  0.77880688573E+01  0.27920737642E+00  0.17027966292E+02  0.72461451751E+02  0.69999845576E+02 0.  0.
        -12    1    1    2    0    0 -0.77880688573E+01 -0.27920737642E+00 -0.17027966292E+02  0.18726548249E+02  0.00000000000E+00 0.  1.
         11    1    3    3    0    0  0.44492202337E+01  0.11630135136E+02 -0.14202963360E+02  0.18888614890E+02  0.51100000000E-03 0.  1.
        -11    1    3    3    0    0 -0.68482019045E+01 -0.22915996315E+02  0.71157305846E+01  0.24953444220E+02  0.51100000000E-03 0. -1.
        -12    1    3    3    0    0  0.10187050528E+02  0.11565068555E+02  0.24115199067E+02  0.28619392642E+02  0.00000000000E+00 0.  1.
</event>
<event>
 7    1  0.1874105E-013  0.7246157E+02  0.7816164E-02  0.1226708E+00
        -11   -1    0    0    0    0  0.00000000000E+00  0.00000000000E+00  0.45593999997E+02  0.45594000000E+02  0.51100000000E-03 0. -1.
         11   -1    0    0    0    0 -0.00000000000E+00 -0.00000000000E+00 -0.45593999997E+02  0.45594000000E+02  0.51100000000E-03 0.  1.
    9900012    2    1    2    0    0  0.46101365237E+01  0.15970973257E+02  0.86228760339E+01  0.72461565832E+02  0.69999994187E+02 0.  0.
        -12    1    1    2    0    0 -0.46101365237E+01 -0.15970973257E+02 -0.86228760339E+01  0.18726434168E+02  0.00000000000E+00 0.  1.
         11    1    3    3    0    0 -0.77499045075E+01 -0.10311482967E+02  0.43037957088E+01  0.13598174827E+02  0.51100000000E-03 0. -1.
        -11    1    3    3    0    0  0.19099416755E+02  0.19602659696E+02 -0.19246847950E+02  0.33458827591E+02  0.51100000000E-03 0.  1.
        -12    1    3    3    0    0 -0.67393757234E+01  0.66797965289E+01  0.23565928275E+02  0.25404563414E+02  0.00000000000E+00 0.  1.
</event>
<event>
 7    1  0.1874105E-013  0.7246132E+02  0.7816164E-02  0.1226709E+00
        -11   -1    0    0    0    0  0.00000000000E+00  0.00000000000E+00  0.45593999997E+02  0.45594000000E+02  0.51100000000E-03 0.  1.
         11   -1    0    0    0    0 -0.00000000000E+00 -0.00000000000E+00 -0.45593999997E+02  0.45594000000E+02  0.51100000000E-03 0. -1.
    9900012    2    1    2    0    0  0.12884093693E+02 -0.89708734314E+01 -0.10208430438E+02  0.72461321373E+02  0.69999675732E+02 0.  0.
        -12    1    1    2    0    0 -0.12884093693E+02  0.89708734314E+01  0.10208430438E+02  0.18726678627E+02  0.00000000000E+00 0.  1.
         11    1    3    3    0    0 -0.42470457988E+01 -0.20510330271E+02 -0.28505073529E+02  0.35373016029E+02  0.51100000000E-03 0. -1.
        -11    1    3    3    0    0 -0.12873952902E+01 -0.37257749438E+01  0.11592659540E+02  0.12244531067E+02  0.51100000000E-03 0.  1.
         12    1    3    3    0    0  0.18418534782E+02  0.15265231783E+02  0.67039835501E+01  0.24843774277E+02  0.00000000000E+00 0. -1.
</event>
<event>
 7    1  0.1874105E-013  0.7246158E+02  0.7816164E-02  0.1226708E+00
        -11   -1    0    0    0    0  0.00000000000E+00  0.00000000000E+00  0.45593999997E+02  0.45594000000E+02  0.51100000000E-03 0.  1.
         11   -1    0    0    0    0 -0.00000000000E+00 -0.00000000000E+00 -0.45593999997E+02  0.45594000000E+02  0.51100000000E-03 0. -1.
    9900012    2    1    2    0    0 -0.18343624321E+02 -0.15483638404E+01  0.34340733196E+01  0.72461579003E+02  0.70000011344E+02 0.  0.
        -12    1    1    2    0    0  0.18343624321E+02  0.15483638404E+01 -0.34340733196E+01  0.18726420997E+02  0.00000000000E+00 0.  1.
         11    1    3    3    0    0  0.22789546231E+02  0.10137471705E+01 -0.71316006469E+01  0.23900854143E+02  0.51100000000E-03 0. -1.
        -11    1    3    3    0    0 -0.13232294454E+02  0.97112438638E+01  0.36302530289E+00  0.16417480365E+02  0.51100000000E-03 0.  1.
         12    1    3    3    0    0 -0.27900876098E+02 -0.12273354875E+02  0.10202648664E+02  0.32143244495E+02  0.00000000000E+00 0. -1.
</event>
<event>
 7    1  0.1874105E-013  0.7246157E+02  0.7816164E-02  0.1226708E+00
        -11   -1    0    0    0    0  0.00000000000E+00  0.00000000000E+00  0.45593999997E+02  0.45594000000E+02  0.51100000000E-03 0.  1.
         11   -1    0    0    0    0 -0.00000000000E+00 -0.00000000000E+00 -0.45593999997E+02  0.45594000000E+02  0.51100000000E-03 0. -1.
    9900012    2    1    2    0    0  0.17809279912E+02  0.30420472632E+01  0.49249095912E+01  0.72461568492E+02  0.69999997652E+02 0.  0.
        -12    1    1    2    0    0 -0.17809279912E+02 -0.30420472632E+01 -0.49249095912E+01  0.18726431508E+02  0.00000000000E+00 0.  1.
         11    1    3    3    0    0 -0.10988993443E+02 -0.53280205391E+01 -0.18477265151E+02  0.22148478671E+02  0.51100000000E-03 0. -1.
        -11    1    3    3    0    0 -0.11510884051E+01  0.13942234717E+02  0.88356490013E+01  0.16546286802E+02  0.51100000000E-03 0.  1.
         12    1    3    3    0    0  0.29949361760E+02 -0.55721669143E+01  0.14566525741E+02  0.33766803018E+02  0.00000000000E+00 0. -1.
</event>
<event>
 7    1  0.1874105E-013  0.7246159E+02  0.7816164E-02  0.1226708E+00
        -11   -1    0    0    0    0  0.00000000000E+00  0.00000000000E+00  0.45593999997E+02  0.45594000000E+02  0.51100000000E-03 0. -1.
         11   -1    0    0    0    0 -0.00000000000E+00 -0.00000000000E+00 -0.45593999997E+02  0.45594000000E+02  0.51100000000E-03 0.  1.
    9900012    2    1    2    0    0 -0.18449187163E+02  0.31983632181E+01 -0.27629068413E+00  0.72461591620E+02  0.70000027781E+02 0.  0.
        -12    1    1    2    0    0  0.18449187163E+02 -0.31983632181E+01  0.27629068413E+00  0.18726408380E+02  0.00000000000E+00 0.  1.
         11    1    3    3    0    0 -0.59971575124E+01  0.76502761954E+01  0.87490436423E+01  0.13078164589E+02  0.51100000000E-03 0. -1.
        -11    1    3    3    0    0 -0.19220828040E+02 -0.27988094239E+02 -0.25306165336E+01  0.34046698371E+02  0.51100000000E-03 0.  1.
        -12    1    3    3    0    0  0.67687983891E+01  0.23536181261E+02 -0.64947177928E+01  0.25336728660E+02  0.00000000000E+00 0.  1.
</event>
<event>
 7    1  0.1874105E-013  0.7246153E+02  0.7816164E-02  0.1226708E+00
        -11   -1    0    0    0    0  0.00000000000E+00  0.00000000000E+00  0.45593999997E+02  0.45594000000E+02  0.51100000000E-03 0.  1.
         11   -1    0    0    0    0 -0.00000000000E+00 -0.00000000000E+00 -0.45593999997E+02  0.45594000000E+02  0.51100000000E-03 0. -1.
    9900012    2    1    2    0    0 -0.44890954408E+01  0.14272505853E+02 -0.11261623291E+02  0.72461533159E+02  0.69999951624E+02 0.  0.
        -12    1    1    2    0    0  0.44890954408E+01 -0.14272505853E+02  0.11261623291E+02  0.18726466841E+02  0.00000000000E+00 0.  1.
         11    1    3    3    0    0  0.35056209027E+01 -0.18208744168E+02  0.27003573201E+01  0.18738721194E+02  0.51100000000E-03 0.  1.
        -11    1    3    3    0    0  0.41799846678E+00  0.26109265899E+02 -0.26588383222E+02  0.37266749404E+02  0.51100000000E-03 0. -1.
        -12    1    3    3    0    0 -0.84127148103E+01  0.63719841215E+01  0.12626402611E+02  0.16456062561E+02  0.00000000000E+00 0.  1.
</event>
<event>
 7    1  0.1874105E-013  0.7246148E+02  0.7816164E-02  0.1226708E+00
        -11   -1    0    0    0    0  0.00000000000E+00  0.00000000000E+00  0.45593999997E+02  0.45594000000E+02  0.51100000000E-03 0.  1.
         11   -1    0    0    0    0 -0.00000000000E+00 -0.00000000000E+00 -0.45593999997E+02  0.45594000000E+02  0.51100000000E-03 0. -1.
    9900012    2    1    2    0    0  0.98909219300E+00 -0.13200664408E+02 -0.13245635262E+02  0.72461476093E+02  0.69999877285E+02 0.  0.
        -12    1    1    2    0    0 -0.98909219300E+00  0.13200664408E+02  0.13245635262E+02  0.18726523907E+02  0.00000000000E+00 0.  1.
         11    1    3    3    0    0  0.53702563678E+01 -0.12464216304E+02 -0.35246387655E+02  0.37769090332E+02  0.51100000000E-03 0. -1.
        -11    1    3    3    0    0  0.10385710447E+02  0.37291605406E+01  0.64224070165E+01  0.12767808425E+02  0.51100000000E-03 0.  1.
         12    1    3    3    0    0 -0.14766874622E+02 -0.44656086441E+01  0.15578345377E+02  0.21924577335E+02  0.00000000000E+00 0. -1.
</event>
<event>
 7    1  0.1874105E-013  0.7246153E+02  0.7816164E-02  0.1226708E+00
        -11   -1    0    0    0    0  0.00000000000E+00  0.00000000000E+00  0.45593999997E+02  0.45594000000E+02  0.51100000000E-03 0.  1.
         11   -1    0    0    0    0 -0.00000000000E+00 -0.00000000000E+00 -0.45593999997E+02  0.45594000000E+02  0.51100000000E-03 0. -1.
    9900012    2    1    2    0    0  0.60690542937E+01 -0.17578707388E+02 -0.21991983591E+01  0.72461525509E+02  0.69999941659E+02 0.  0.
        -12    1    1    2    0    0 -0.60690542937E+01  0.17578707388E+02  0.21991983591E+01  0.18726474491E+02  0.00000000000E+00 0.  1.
         11    1    3    3    0    0  0.20485777503E+02  0.54679869680E+00  0.15720781085E+02  0.25828453823E+02  0.51100000000E-03 0. -1.
        -11    1    3    3    0    0 -0.26484029753E+02 -0.11185320136E+02 -0.14930508217E+02  0.32394988724E+02  0.51100000000E-03 0.  1.
        -12    1    3    3    0    0  0.12067306544E+02 -0.69401859484E+01 -0.29894712269E+01  0.14238082962E+02  0.00000000000E+00 0.  1.
</event>
<event>
 7    1  0.1874105E-013  0.7246162E+02  0.7816164E-02  0.1226708E+00
        -11   -1    0    0    0    0  0.00000000000E+00  0.00000000000E+00  0.45593999997E+02  0.45594000000E+02  0.51100000000E-03 0.  1.
         11   -1    0    0    0    0 -0.00000000000E+00 -0.00000000000E+00 -0.45593999997E+02  0.45594000000E+02  0.51100000000E-03 0. -1.
    9900012    2    1    2    0    0 -0.14908660857E+02 -0.11321784701E+02  0.47561106681E+00  0.72461623329E+02  0.70000069087E+02 0.  0.
        -12    1    1    2    0    0  0.14908660857E+02  0.11321784701E+02 -0.47561106681E+00  0.18726376671E+02  0.00000000000E+00 0.  1.
         11    1    3    3    0    0  0.23787738271E+02 -0.12689773998E+02  0.11654987479E+02  0.29372190752E+02  0.51100000000E-03 0. -1.
        -11    1    3    3    0    0 -0.49666910539E+01 -0.20826991366E+01  0.31954603743E+01  0.62623177006E+01  0.51100000000E-03 0.  1.
         12    1    3    3    0    0 -0.33729708074E+02  0.34506884342E+01 -0.14374836787E+02  0.36827114876E+02  0.00000000000E+00 0. -1.
</event>
<event>
 7    1  0.1874105E-013  0.7246157E+02  0.7816164E-02  0.1226708E+00
        -11   -1    0    0    0    0  0.00000000000E+00  0.00000000000E+00  0.45593999997E+02  0.45594000000E+02  0.51100000000E-03 0.  1.
         11   -1    0    0    0    0 -0.00000000000E+00 -0.00000000000E+00 -0.45593999997E+02  0.45594000000E+02  0.51100000000E-03 0. -1.
    9900012    2    1    2    0    0  0.16336060682E+02 -0.16435122611E+01 -0.90061835622E+01  0.72461565382E+02  0.69999993600E+02 0.  0.
        -12    1    1    2    0    0 -0.16336060682E+02  0.16435122611E+01  0.90061835622E+01  0.18726434618E+02  0.00000000000E+00 0.  1.
         11    1    3    3    0    0  0.90848232687E+01 -0.21804209898E+02 -0.28664567597E+02  0.37143169209E+02  0.51100000000E-03 0. -1.
        -11    1    3    3    0    0  0.13744941760E+02  0.13334352420E+02  0.16794175493E+02  0.25471017043E+02  0.51100000000E-03 0.  1.
         12    1    3    3    0    0 -0.64937043464E+01  0.68263452166E+01  0.28642085414E+01  0.98473791296E+01  0.00000000000E+00 0. -1.
</event>
<event>
 7    1  0.1874105E-013  0.7246135E+02  0.7816164E-02  0.1226709E+00
        -11   -1    0    0    0    0  0.00000000000E+00  0.00000000000E+00  0.45593999997E+02  0.45594000000E+02  0.51100000000E-03 0.  1.
         11   -1    0    0    0    0 -0.00000000000E+00 -0.00000000000E+00 -0.45593999997E+02  0.45594000000E+02  0.51100000000E-03 0. -1.
    9900012    2    1    2    0    0 -0.16571988625E+02  0.58390203596E+01 -0.64778542494E+01  0.72461346230E+02  0.69999708114E+02 0.  0.
        -12    1    1    2    0    0  0.16571988625E+02 -0.58390203596E+01  0.64778542494E+01  0.18726653770E+02  0.00000000000E+00 0.  1.
         11    1    3    3    0    0  0.14272763270E+02  0.28498306530E+02 -0.72095340840E+01  0.32677861442E+02  0.51100000000E-03 0. -1.
        -11    1    3    3    0    0 -0.24212218207E+02 -0.12851027405E+02 -0.24573668087E+01  0.27521247569E+02  0.51100000000E-03 0.  1.
         12    1    3    3    0    0 -0.66325336877E+01 -0.98082587653E+01  0.31890466433E+01  0.12262237219E+02  0.00000000000E+00 0. -1.
</event>
<event>
 7    1  0.1874105E-013  0.7246154E+02  0.7816164E-02  0.1226708E+00
        -11   -1    0    0    0    0  0.00000000000E+00  0.00000000000E+00  0.45593999997E+02  0.45594000000E+02  0.51100000000E-03 0.  1.
         11   -1    0    0    0    0 -0.00000000000E+00 -0.00000000000E+00 -0.45593999997E+02  0.45594000000E+02  0.51100000000E-03 0. -1.
    9900012    2    1    2    0    0 -0.77040275488E+01 -0.13034885497E+02  0.11019080275E+02  0.72461537160E+02  0.69999956836E+02 0.  0.
        -12    1    1    2    0    0  0.77040275488E+01  0.13034885497E+02 -0.11019080275E+02  0.18726462840E+02  0.00000000000E+00 0.  1.
         11    1    3    3    0    0 -0.21737094350E+02 -0.15948732963E+02 -0.19461212472E+02  0.33250596161E+02  0.51100000000E-03 0. -1.
        -11    1    3    3    0    0  0.13204770780E+01 -0.23994148760E+01  0.23694587662E+02  0.23852344459E+02  0.51100000000E-03 0.  1.
         12    1    3    3    0    0  0.12712589723E+02  0.53132623414E+01  0.67857050844E+01  0.15358596540E+02  0.00000000000E+00 0. -1.
</event>
<event>
 8    1  0.1874105E-013  0.7246155E+02  0.7816164E-02  0.1226708E+00
        -11   -1    0    0    0    0  0.00000000000E+00  0.00000000000E+00  0.45593999997E+02  0.45594000000E+02  0.51100000000E-03 0. -1.
         11   -1    0    0    0    0 -0.00000000000E+00 -0.00000000000E+00 -0.45593999997E+02  0.45594000000E+02  0.51100000000E-03 0.  1.
    9900012    2    1    2    0    0 -0.20908299065E+01  0.52106548802E+00  0.18602061965E+02  0.72461553773E+02  0.69999978478E+02 0.  0.
        -24    2    3    3    0    0  0.16064999651E+01  0.88789500641E+01 -0.10621659492E+01  0.50777311972E+02  0.49957888449E+02 0.  0.
        -12    1    1    2    0    0  0.20908299065E+01 -0.52106548802E+00 -0.18602061965E+02  0.18726446227E+02  0.00000000000E+00 0.  1.
         11    1    4    4    0    0  0.33733156096E+01  0.20777230688E+02 -0.19545506517E+02  0.28724543487E+02  0.51100000000E-03 0.  1.
        -11    1    3    3    0    0 -0.36973298716E+01 -0.83578845761E+01  0.19664227914E+02  0.21684241801E+02  0.51100000000E-03 0. -1.
        -12    1    4    4    0    0 -0.17668156445E+01 -0.11898280624E+02  0.18483340567E+02  0.22052768485E+02  0.00000000000E+00 0.  1.
</event>
<event>
 7    1  0.1874105E-013  0.7246157E+02  0.7816164E-02  0.1226708E+00
        -11   -1    0    0    0    0  0.00000000000E+00  0.00000000000E+00  0.45593999997E+02  0.45594000000E+02  0.51100000000E-03 0.  1.
         11   -1    0    0    0    0 -0.00000000000E+00 -0.00000000000E+00 -0.45593999997E+02  0.45594000000E+02  0.51100000000E-03 0. -1.
    9900012    2    1    2    0    0  0.34527872259E+01 -0.86335670029E+00 -0.18385099712E+02  0.72461574397E+02  0.70000005345E+02 0.  0.
        -12    1    1    2    0    0 -0.34527872259E+01  0.86335670029E+00  0.18385099712E+02  0.18726425603E+02  0.00000000000E+00 0.  1.
         11    1    3    3    0    0 -0.24229540079E+02 -0.11019503498E+02  0.62317382454E+01  0.27337421817E+02  0.51100000000E-03 0. -1.
        -11    1    3    3    0    0  0.23907744779E+02  0.40914134876E+01 -0.28146991294E+02  0.37156063353E+02  0.51100000000E-03 0.  1.
        -12    1    3    3    0    0  0.37745825259E+01  0.60647333101E+01  0.35301533358E+01  0.79680892278E+01  0.00000000000E+00 0.  1.
</event>
<event>
 7    1  0.1874105E-013  0.7246160E+02  0.7816164E-02  0.1226708E+00
        -11   -1    0    0    0    0  0.00000000000E+00  0.00000000000E+00  0.45593999997E+02  0.45594000000E+02  0.51100000000E-03 0. -1.
         11   -1    0    0    0    0 -0.00000000000E+00 -0.00000000000E+00 -0.45593999997E+02  0.45594000000E+02  0.51100000000E-03 0.  1.
    9900012    2    1    2    0    0  0.13589596489E+02  0.78255971069E+01  0.10235285286E+02  0.72461597043E+02  0.70000034846E+02 0.  0.
        -12    1    1    2    0    0 -0.13589596489E+02 -0.78255971069E+01 -0.10235285286E+02  0.18726402957E+02  0.00000000000E+00 0.  1.
         11    1    3    3    0    0 -0.16167791201E+02 -0.18582154491E+02 -0.97550842941E+01  0.26492557591E+02  0.51100000000E-03 0.  1.
        -11    1    3    3    0    0  0.29353184546E+02  0.21549457697E+02  0.16527997946E+02  0.39989539712E+02  0.51100000000E-03 0. -1.
        -12    1    3    3    0    0  0.40420314354E+00  0.48582939013E+01  0.34623716339E+01  0.59794997403E+01  0.00000000000E+00 0.  1.
</event>
<event>
 7    1  0.1874105E-013  0.7246155E+02  0.7816164E-02  0.1226708E+00
        -11   -1    0    0    0    0  0.00000000000E+00  0.00000000000E+00  0.45593999997E+02  0.45594000000E+02  0.51100000000E-03 0. -1.
         11   -1    0    0    0    0 -0.00000000000E+00 -0.00000000000E+00 -0.45593999997E+02  0.45594000000E+02  0.51100000000E-03 0.  1.
    9900012    2    1    2    0    0  0.16420933152E+02 -0.87493736723E+01 -0.21168919428E+01  0.72461553014E+02  0.69999977489E+02 0.  0.
        -12    1    1    2    0    0 -0.16420933152E+02  0.87493736723E+01  0.21168919428E+01  0.18726446986E+02  0.00000000000E+00 0.  1.
         11    1    3    3    0    0  0.20926611785E+02 -0.12853578107E+02 -0.13314135995E+02  0.27935707768E+02  0.51100000000E-03 0. -1.
        -11    1    3    3    0    0  0.16953477231E+02  0.96576037345E+01  0.10917412786E+02  0.22357987439E+02  0.51100000000E-03 0.  1.
         12    1    3    3    0    0 -0.21459155864E+02 -0.55533993000E+01  0.27983126666E+00  0.22167857806E+02  0.00000000000E+00 0. -1.
</event>
<event>
 7    1  0.1874105E-013  0.7246152E+02  0.7816164E-02  0.1226708E+00
        -11   -1    0    0    0    0  0.00000000000E+00  0.00000000000E+00  0.45593999997E+02  0.45594000000E+02  0.51100000000E-03 0. -1.
         11   -1    0    0    0    0 -0.00000000000E+00 -0.00000000000E+00 -0.45593999997E+02  0.45594000000E+02  0.51100000000E-03 0.  1.
    9900012    2    1    2    0    0 -0.40987798071E+01 -0.53462433020E+01  0.17472799600E+02  0.72461520373E+02  0.69999934969E+02 0.  0.
        -12    1    1    2    0    0  0.40987798071E+01  0.53462433020E+01 -0.17472799600E+02  0.18726479627E+02  0.00000000000E+00 0.  1.
         11    1    3    3    0    0  0.63766317110E+01 -0.32019694751E+02  0.22517665260E+02  0.39660654722E+02  0.51100000000E-03 0. -1.
        -11    1    3    3    0    0 -0.19724960768E+01  0.18473774331E+02  0.25566944926E+01  0.18753873354E+02  0.51100000000E-03 0.  1.
         12    1    3    3    0    0 -0.85029154413E+01  0.81996771182E+01 -0.76015601531E+01  0.14046992297E+02  0.00000000000E+00 0. -1.
</event>
<event>
 7    1  0.1874105E-013  0.7246156E+02  0.7816164E-02  0.1226708E+00
        -11   -1    0    0    0    0  0.00000000000E+00  0.00000000000E+00  0.45593999997E+02  0.45594000000E+02  0.51100000000E-03 0. -1.
         11   -1    0    0    0    0 -0.00000000000E+00 -0.00000000000E+00 -0.45593999997E+02  0.45594000000E+02  0.51100000000E-03 0.  1.
    9900012    2    1    2    0    0  0.17628767572E+01 -0.54679637620E+01  0.17823387255E+02  0.72461561593E+02  0.69999988665E+02 0.  0.
        -12    1    1    2    0    0 -0.17628767572E+01  0.54679637620E+01 -0.17823387255E+02  0.18726438407E+02  0.00000000000E+00 0.  1.
         11    1    3    3    0    0  0.73554147886E+01 -0.70882313082E+01  0.10767007098E+02  0.14841616890E+02  0.51100000000E-03 0. -1.
        -11    1    3    3    0    0 -0.11014817774E+02  0.27858569609E+02  0.72691041161E+01  0.30826384578E+02  0.51100000000E-03 0.  1.
        -12    1    3    3    0    0  0.54222797423E+01 -0.26238302062E+02 -0.21272395983E+00  0.26793560126E+02  0.00000000000E+00 0.  1.
</event>
<event>
 7    1  0.1874105E-013  0.7246160E+02  0.7816164E-02  0.1226708E+00
        -11   -1    0    0    0    0  0.00000000000E+00  0.00000000000E+00  0.45593999997E+02  0.45594000000E+02  0.51100000000E-03 0. -1.
         11   -1    0    0    0    0 -0.00000000000E+00 -0.00000000000E+00 -0.45593999997E+02  0.45594000000E+02  0.51100000000E-03 0.  1.
    9900012    2    1    2    0    0 -0.10022873120E+02 -0.38420474931E+01  0.15344666042E+02  0.72461599105E+02  0.70000037532E+02 0.  0.
        -12    1    1    2    0    0  0.10022873120E+02  0.38420474931E+01 -0.15344666042E+02  0.18726400895E+02  0.00000000000E+00 0.  1.
         11    1    3    3    0    0  0.11375568789E+02  0.20044255425E+02  0.10193351620E+02  0.25200796779E+02  0.51100000000E-03 0. -1.
        -11    1    3    3    0    0 -0.26499728293E+02 -0.88010213380E+01  0.11391605281E+02  0.30157291777E+02  0.51100000000E-03 0.  1.
         12    1    3    3    0    0  0.51012863835E+01 -0.15085281580E+02 -0.62402908583E+01  0.17103510549E+02  0.00000000000E+00 0. -1.
</event>
<event>
 7    1  0.1874105E-013  0.7246155E+02  0.7816164E-02  0.1226708E+00
        -11   -1    0    0    0    0  0.00000000000E+00  0.00000000000E+00  0.45593999997E+02  0.45594000000E+02  0.51100000000E-03 0. -1.
         11   -1    0    0    0    0 -0.00000000000E+00 -0.00000000000E+00 -0.45593999997E+02  0.45594000000E+02  0.51100000000E-03 0.  1.
    9900012    2    1    2    0    0 -0.10089678504E+02 -0.11946679492E+02  0.10303157905E+02  0.72461552766E+02  0.69999977166E+02 0.  0.
        -12    1    1    2    0    0  0.10089678504E+02  0.11946679492E+02 -0.10303157905E+02  0.18726447234E+02  0.00000000000E+00 0.  1.
         11    1    3    3    0    0  0.12014062633E+02  0.16086407969E+02  0.13490215947E+02  0.24188760796E+02  0.51100000000E-03 0. -1.
        -11    1    3    3    0    0 -0.24846197960E+02 -0.58386393593E+01 -0.42962477047E+01  0.25882059564E+02  0.51100000000E-03 0.  1.
         12    1    3    3    0    0  0.27424568237E+01 -0.22194448102E+02  0.11091896628E+01  0.22390732406E+02  0.00000000000E+00 0. -1.
</event>
<event>
 7    1  0.1874105E-013  0.7246157E+02  0.7816164E-02  0.1226708E+00
        -11   -1    0    0    0    0  0.00000000000E+00  0.00000000000E+00  0.45593999997E+02  0.45594000000E+02  0.51100000000E-03 0.  1.
         11   -1    0    0    0    0 -0.00000000000E+00 -0.00000000000E+00 -0.45593999997E+02  0.45594000000E+02  0.51100000000E-03 0. -1.
    9900012    2    1    2    0    0  0.18664674511E+01 -0.23832701363E+01 -0.18480138889E+02  0.72461569196E+02  0.69999998569E+02 0.  0.
        -12    1    1    2    0    0 -0.18664674511E+01  0.23832701363E+01  0.18480138889E+02  0.18726430804E+02  0.00000000000E+00 0.  1.
         11    1    3    3    0    0 -0.42496420920E+01 -0.85357284742E+01 -0.19818116032E+02  0.21992631535E+02  0.51100000000E-03 0. -1.
        -11    1    3    3    0    0 -0.11968349122E+02  0.22020593907E+02 -0.50709849939E+01  0.25570741596E+02  0.51100000000E-03 0.  1.
        -12    1    3    3    0    0  0.18084458665E+02 -0.15868135569E+02  0.64089621365E+01  0.24898196065E+02  0.00000000000E+00 0.  1.
</event>
<event>
 7    1  0.1874105E-013  0.7246157E+02  0.7816164E-02  0.1226708E+00
        -11   -1    0    0    0    0  0.00000000000E+00  0.00000000000E+00  0.45593999997E+02  0.45594000000E+02  0.51100000000E-03 0.  1.
         11   -1    0    0    0    0 -0.00000000000E+00 -0.00000000000E+00 -0.45593999997E+02  0.45594000000E+02  0.51100000000E-03 0. -1.
    9900012    2    1    2    0    0 -0.92415010836E+01  0.93312339236E+01 -0.13349232697E+02  0.72461567280E+02  0.69999996074E+02 0.  0.
        -12    1    1    2    0    0  0.92415010836E+01 -0.93312339236E+01  0.13349232697E+02  0.18726432720E+02  0.00000000000E+00 0.  1.
         11    1    3    3    0    0 -0.13585849673E+02  0.81971482884E+00 -0.26009420048E+02  0.29355360247E+02  0.51100000000E-03 0. -1.
        -11    1    3    3    0    0 -0.15444948536E+00  0.22639455771E+02  0.16228948144E+02  0.27855835482E+02  0.51100000000E-03 0.  1.
         12    1    3    3    0    0  0.44987980748E+01 -0.14127936677E+02 -0.35687607925E+01  0.15250371551E+02  0.00000000000E+00 0. -1.
</event>
<event>
 7    1  0.1874105E-013  0.7246148E+02  0.7816164E-02  0.1226708E+00
        -11   -1    0    0    0    0  0.00000000000E+00  0.00000000000E+00  0.45593999997E+02  0.45594000000E+02  0.51100000000E-03 0. -1.
         11   -1    0    0    0    0 -0.00000000000E+00 -0.00000000000E+00 -0.45593999997E+02  0.45594000000E+02  0.51100000000E-03 0.  1.
    9900012    2    1    2    0    0 -0.18401129089E+02  0.15979280239E+01 -0.30866988357E+01  0.72461477754E+02  0.69999879449E+02 0.  0.
        -12    1    1    2    0    0  0.18401129089E+02 -0.15979280239E+01  0.30866988357E+01  0.18726522246E+02  0.00000000000E+00 0.  1.
         11    1    3    3    0    0  0.75551764054E+00  0.50935684676E+01  0.17209356355E+02  0.17963217781E+02  0.51100000000E-03 0. -1.
        -11    1    3    3    0    0 -0.21679585101E+02 -0.22547111178E+02 -0.11065632380E+02  0.33178680698E+02  0.51100000000E-03 0.  1.
        -12    1    3    3    0    0  0.25229383713E+01  0.19051470735E+02 -0.92304228109E+01  0.21319579275E+02  0.00000000000E+00 0.  1.
</event>
<event>
 7    1  0.2573236E-013  0.7246157E+02  0.7816164E-02  0.1226708E+00
        -11   -1    0    0    0    0  0.00000000000E+00  0.00000000000E+00  0.45593999997E+02  0.45594000000E+02  0.51100000000E-03 0. -1.
         11   -1    0    0    0    0 -0.00000000000E+00 -0.00000000000E+00 -0.45593999997E+02  0.45594000000E+02  0.51100000000E-03 0.  1.
    9900012    2    1    2    0    0  0.11020495843E+02 -0.10578811351E+02  0.10831280409E+02  0.72461569119E+02  0.69999998469E+02 0.  0.
        -12    1    1    2    0    0 -0.11020495843E+02  0.10578811351E+02 -0.10831280409E+02  0.18726430881E+02  0.00000000000E+00 0.  1.
         11    1    3    3    0    0  0.98856182640E+01  0.12063954318E+02  0.25191304209E+02  0.29628807777E+02  0.51100000000E-03 0. -1.
        -11    1    3    3    0    0  0.41453862737E+01  0.13835312168E+01 -0.17842094108E+02  0.18369504849E+02  0.51100000000E-03 0.  1.
         12    1    3    3    0    0 -0.30105086947E+01 -0.24026296885E+02  0.34820703082E+01  0.24463256493E+02  0.00000000000E+00 0. -1.
</event>
<event>
 7    1  0.1874105E-013  0.7246158E+02  0.7816164E-02  0.1226708E+00
        -11   -1    0    0    0    0  0.00000000000E+00  0.00000000000E+00  0.45593999997E+02  0.45594000000E+02  0.51100000000E-03 0.  1.
         11   -1    0    0    0    0 -0.00000000000E+00 -0.00000000000E+00 -0.45593999997E+02  0.45594000000E+02  0.51100000000E-03 0. -1.
    9900012    2    1    2    0    0  0.12197099356E+02 -0.26641512619E+00 -0.14206991196E+02  0.72461579932E+02  0.70000012554E+02 0.  0.
        -12    1    1    2    0    0 -0.12197099356E+02  0.26641512619E+00  0.14206991196E+02  0.18726420068E+02  0.00000000000E+00 0.  1.
         11    1    3    3    0    0  0.78769645869E+01 -0.30452786830E+00  0.17450157855E+02  0.19148036917E+02  0.51100000000E-03 0.  1.
        -11    1    3    3    0    0 -0.11273570170E+02 -0.15372127154E+02 -0.69705976734E+01  0.20297411407E+02  0.51100000000E-03 0. -1.
         12    1    3    3    0    0  0.15593704940E+02  0.15410239896E+02 -0.24686551378E+02  0.33016131608E+02  0.00000000000E+00 0. -1.
</event>
<event>
 7    1  0.1874105E-013  0.7246159E+02  0.7816164E-02  0.1226708E+00
        -11   -1    0    0    0    0  0.00000000000E+00  0.00000000000E+00  0.45593999997E+02  0.45594000000E+02  0.51100000000E-03 0. -1.
         11   -1    0    0    0    0 -0.00000000000E+00 -0.00000000000E+00 -0.45593999997E+02  0.45594000000E+02  0.51100000000E-03 0.  1.
    9900012    2    1    2    0    0 -0.16241247117E+01  0.18155915200E+02 -0.42899187215E+01  0.72461589760E+02  0.70000025358E+02 0.  0.
        -12    1    1    2    0    0  0.16241247117E+01 -0.18155915200E+02  0.42899187215E+01  0.18726410240E+02  0.00000000000E+00 0.  1.
         11    1    3    3    0    0 -0.77801057124E+01 -0.63354846639E+01  0.21686132181E+02  0.23894701087E+02  0.51100000000E-03 0. -1.
        -11    1    3    3    0    0  0.37232980617E+01  0.24241636158E+00 -0.23809488315E+02  0.24100071540E+02  0.51100000000E-03 0.  1.
         12    1    3    3    0    0  0.24326829390E+01  0.24248983503E+02 -0.21665625874E+01  0.24466817133E+02  0.00000000000E+00 0. -1.
</event>
<event>
 7    1  0.1874105E-013  0.7246157E+02  0.7816164E-02  0.1226708E+00
        -11   -1    0    0    0    0  0.00000000000E+00  0.00000000000E+00  0.45593999997E+02  0.45594000000E+02  0.51100000000E-03 0.  1.
         11   -1    0    0    0    0 -0.00000000000E+00 -0.00000000000E+00 -0.45593999997E+02  0.45594000000E+02  0.51100000000E-03 0. -1.
    9900012    2    1    2    0    0 -0.11241007868E+02  0.15378388273E+00 -0.14976489751E+02  0.72461570746E+02  0.70000000588E+02 0.  0.
        -12    1    1    2    0    0  0.11241007868E+02 -0.15378388273E+00  0.14976489751E+02  0.18726429254E+02  0.00000000000E+00 0.  1.
         11    1    3    3    0    0  0.15423146482E+02 -0.49054254382E+01 -0.17484240457E+02  0.23825098337E+02  0.51100000000E-03 0. -1.
        -11    1    3    3    0    0 -0.23696298499E+02 -0.20957098164E+01 -0.15935259083E+02  0.28632831583E+02  0.51100000000E-03 0.  1.
        -12    1    3    3    0    0 -0.29678558508E+01  0.71549191373E+01  0.18443009789E+02  0.20003640826E+02  0.00000000000E+00 0.  1.
</event>
<event>
 7    1  0.1874105E-013  0.7246160E+02  0.7816164E-02  0.1226708E+00
        -11   -1    0    0    0    0  0.00000000000E+00  0.00000000000E+00  0.45593999997E+02  0.45594000000E+02  0.51100000000E-03 0.  1.
         11   -1    0    0    0    0 -0.00000000000E+00 -0.00000000000E+00 -0.45593999997E+02  0.45594000000E+02  0.51100000000E-03 0. -1.
    9900012    2    1    2    0    0 -0.10758798627E+02  0.12420328138E+02 -0.89811918385E+01  0.72461598696E+02  0.70000036998E+02 0.  0.
        -12    1    1    2    0    0  0.10758798627E+02 -0.12420328138E+02  0.89811918385E+01  0.18726401304E+02  0.00000000000E+00 0.  1.
         11    1    3    3    0    0  0.12764174931E+02 -0.24240771914E+01 -0.20499536217E+02  0.24269966981E+02  0.51100000000E-03 0. -1.
        -11    1    3    3    0    0 -0.22903162816E+02 -0.64748259311E+01  0.12415721827E+02  0.26844522469E+02  0.51100000000E-03 0.  1.
         12    1    3    3    0    0 -0.61981074144E+00  0.21319231261E+02 -0.89737744888E+00  0.21347109247E+02  0.00000000000E+00 0. -1.
</event>
<event>
 7    1  0.1874105E-013  0.7246155E+02  0.7816164E-02  0.1226708E+00
        -11   -1    0    0    0    0  0.00000000000E+00  0.00000000000E+00  0.45593999997E+02  0.45594000000E+02  0.51100000000E-03 0.  1.
         11   -1    0    0    0    0 -0.00000000000E+00 -0.00000000000E+00 -0.45593999997E+02  0.45594000000E+02  0.51100000000E-03 0. -1.
    9900012    2    1    2    0    0  0.46368910373E+01  0.77922489614E+01 -0.16384745691E+02  0.72461553628E+02  0.69999978289E+02 0.  0.
        -12    1    1    2    0    0 -0.46368910373E+01 -0.77922489614E+01  0.16384745691E+02  0.18726446372E+02  0.00000000000E+00 0.  1.
         11    1    3    3    0    0  0.74074179646E+01 -0.82355446449E+01 -0.34556571387E+02  0.36288437040E+02  0.51100000000E-03 0. -1.
        -11    1    3    3    0    0  0.49635251823E+01  0.14133768934E+02  0.22560696671E+02  0.27081082716E+02  0.51100000000E-03 0.  1.
        -12    1    3    3    0    0 -0.77340521096E+01  0.18940246718E+01 -0.43888709747E+01  0.90920338717E+01  0.00000000000E+00 0.  1.
</event>
<event>
 7    1  0.1874105E-013  0.7246156E+02  0.7816164E-02  0.1226708E+00
        -11   -1    0    0    0    0  0.00000000000E+00  0.00000000000E+00  0.45593999997E+02  0.45594000000E+02  0.51100000000E-03 0.  1.
         11   -1    0    0    0    0 -0.00000000000E+00 -0.00000000000E+00 -0.45593999997E+02  0.45594000000E+02  0.51100000000E-03 0. -1.
    9900012    2    1    2    0    0  0.17294560629E+02 -0.55737385166E+00 -0.71600994179E+01  0.72461561026E+02  0.69999987927E+02 0.  0.
        -12    1    1    2    0    0 -0.17294560629E+02  0.55737385166E+00  0.71600994179E+01  0.18726438974E+02  0.00000000000E+00 0.  1.
         11    1    3    3    0    0  0.14180378325E+02  0.85376531090E+01 -0.33668981161E+02  0.37517661744E+02  0.51100000000E-03 0. -1.
        -11    1    3    3    0    0 -0.25079627154E+01 -0.14427459714E+02  0.14193349116E+02  0.20393445765E+02  0.51100000000E-03 0.  1.
         12    1    3    3    0    0  0.56221450195E+01  0.53324327531E+01  0.12315532627E+02  0.14550453518E+02  0.00000000000E+00 0. -1.
</event>
<event>
 7    1  0.1874105E-013  0.7246160E+02  0.7816164E-02  0.1226708E+00
        -11   -1    0    0    0    0  0.00000000000E+00  0.00000000000E+00  0.45593999997E+02  0.45594000000E+02  0.51100000000E-03 0.  1.
         11   -1    0    0    0    0 -0.00000000000E+00 -0.00000000000E+00 -0.45593999997E+02  0.45594000000E+02  0.51100000000E-03 0. -1.
    9900012    2    1    2    0    0 -0.62832654083E+01 -0.22295446134E+01 -0.17499368141E+02  0.72461596749E+02  0.70000034462E+02 0.  0.
        -12    1    1    2    0    0  0.62832654083E+01  0.22295446134E+01  0.17499368141E+02  0.18726403251E+02  0.00000000000E+00 0.  1.
         11    1    3    3    0    0  0.57519748870E+01 -0.12887108436E+01 -0.50693199659E+01  0.77745736807E+01  0.51100000000E-03 0. -1.
        -11    1    3    3    0    0 -0.17437353914E+02  0.22023150927E+02 -0.25308324756E+02  0.37809943011E+02  0.51100000000E-03 0.  1.
        -12    1    3    3    0    0  0.54021136184E+01 -0.22963984697E+02  0.12878276581E+02  0.26877080057E+02  0.00000000000E+00 0.  1.
</event>
<event>
 7    1  0.1874105E-013  0.7246163E+02  0.7816164E-02  0.1226708E+00
        -11   -1    0    0    0    0  0.00000000000E+00  0.00000000000E+00  0.45593999997E+02  0.45594000000E+02  0.51100000000E-03 0. -1.
         11   -1    0    0    0    0 -0.00000000000E+00 -0.00000000000E+00 -0.45593999997E+02  0.45594000000E+02  0.51100000000E-03 0.  1.
    9900012    2    1    2    0    0 -0.17059369672E+02 -0.15561815561E+01  0.75652643989E+01  0.72461627685E+02  0.70000074763E+02 0.  0.
        -12    1    1    2    0    0  0.17059369672E+02  0.15561815561E+01 -0.75652643989E+01  0.18726372315E+02  0.00000000000E+00 0.  1.
         11    1    3    3    0    0  0.71731882822E+01  0.26113239795E+01  0.23178582355E+02  0.24403285093E+02  0.51100000000E-03 0. -1.
        -11    1    3    3    0    0 -0.44127928148E+01 -0.73468009171E+01 -0.24611266764E+02  0.26060749723E+02  0.51100000000E-03 0.  1.
        -12    1    3    3    0    0 -0.19819765139E+02  0.31792953814E+01  0.89979488077E+01  0.21997592869E+02  0.00000000000E+00 0.  1.
</event>
<event>
 7    1  0.1874105E-013  0.7246155E+02  0.7816164E-02  0.1226708E+00
        -11   -1    0    0    0    0  0.00000000000E+00  0.00000000000E+00  0.45593999997E+02  0.45594000000E+02  0.51100000000E-03 0.  1.
         11   -1    0    0    0    0 -0.00000000000E+00 -0.00000000000E+00 -0.45593999997E+02  0.45594000000E+02  0.51100000000E-03 0. -1.
    9900012    2    1    2    0    0  0.79139794336E+01 -0.47239194990E+01 -0.16301337919E+02  0.72461545347E+02  0.69999967502E+02 0.  0.
        -12    1    1    2    0    0 -0.79139794336E+01  0.47239194990E+01  0.16301337919E+02  0.18726454653E+02  0.00000000000E+00 0.  1.
         11    1    3    3    0    0  0.18859261398E+02 -0.62099754624E+01 -0.16276799104E+02  0.25674300867E+02  0.51100000000E-03 0. -1.
        -11    1    3    3    0    0 -0.23853851853E+02 -0.12173472026E+02 -0.52282494414E+01  0.27286155132E+02  0.51100000000E-03 0.  1.
        -12    1    3    3    0    0  0.12908569889E+02  0.13659527989E+02  0.52037106260E+01  0.19501089348E+02  0.00000000000E+00 0.  1.
</event>
<event>
 7    1  0.1874105E-013  0.7246156E+02  0.7816164E-02  0.1226708E+00
        -11   -1    0    0    0    0  0.00000000000E+00  0.00000000000E+00  0.45593999997E+02  0.45594000000E+02  0.51100000000E-03 0.  1.
         11   -1    0    0    0    0 -0.00000000000E+00 -0.00000000000E+00 -0.45593999997E+02  0.45594000000E+02  0.51100000000E-03 0. -1.
    9900012    2    1    2    0    0  0.71779165382E+01 -0.63247661703E+01 -0.16098269803E+02  0.72461562977E+02  0.69999990468E+02 0.  0.
        -12    1    1    2    0    0 -0.71779165382E+01  0.63247661703E+01  0.16098269803E+02  0.18726437023E+02  0.00000000000E+00 0.  1.
         11    1    3    3    0    0 -0.14896323781E+02  0.71798142253E+01 -0.14603734698E+01  0.16600689306E+02  0.51100000000E-03 0.  1.
        -11    1    3    3    0    0  0.34907428909E+02 -0.20976695369E+01 -0.16353760848E+02  0.38605366268E+02  0.51100000000E-03 0. -1.
        -12    1    3    3    0    0 -0.12833188589E+02 -0.11406910859E+02  0.17158645150E+01  0.17255507403E+02  0.00000000000E+00 0.  1.
</event>
<event>
 7    1  0.1874105E-013  0.7246161E+02  0.7816164E-02  0.1226708E+00
        -11   -1    0    0    0    0  0.00000000000E+00  0.00000000000E+00  0.45593999997E+02  0.45594000000E+02  0.51100000000E-03 0. -1.
         11   -1    0    0    0    0 -0.00000000000E+00 -0.00000000000E+00 -0.45593999997E+02  0.45594000000E+02  0.51100000000E-03 0.  1.
    9900012    2    1    2    0    0 -0.59445485357E+01  0.87659608665E+01  0.15443382841E+02  0.72461606840E+02  0.70000047608E+02 0.  0.
        -12    1    1    2    0    0  0.59445485357E+01 -0.87659608665E+01 -0.15443382841E+02  0.18726393160E+02  0.00000000000E+00 0.  1.
         11    1    3    3    0    0 -0.23786387034E+02 -0.10806116469E+02  0.15561095914E+02  0.30409078703E+02  0.51100000000E-03 0.  1.
        -11    1    3    3    0    0  0.23175425766E+02  0.10734376194E+02 -0.10312821868E+02  0.27544173374E+02  0.51100000000E-03 0. -1.
         12    1    3    3    0    0 -0.53335872673E+01  0.88377011419E+01  0.10195108794E+02  0.14508354763E+02  0.00000000000E+00 0. -1.
</event>
<event>
 7    1  0.1874105E-013  0.7246158E+02  0.7816164E-02  0.1226708E+00
        -11   -1    0    0    0    0  0.00000000000E+00  0.00000000000E+00  0.45593999997E+02  0.45594000000E+02  0.51100000000E-03 0.  1.
         11   -1    0    0    0    0 -0.00000000000E+00 -0.00000000000E+00 -0.45593999997E+02  0.45594000000E+02  0.51100000000E-03 0. -1.
    9900012    2    1    2    0    0 -0.13582346861E+02 -0.22210391360E+01 -0.12699045072E+02  0.72461577308E+02  0.70000009137E+02 0.  0.
        -12    1    1    2    0    0  0.13582346861E+02  0.22210391360E+01  0.12699045072E+02  0.18726422692E+02  0.00000000000E+00 0.  1.
         11    1    3    3    0    0 -0.43043568448E+01  0.28967946090E+02 -0.17015581639E+02  0.33870332259E+02  0.51100000000E-03 0. -1.
        -11    1    3    3    0    0  0.85230503346E+00 -0.15198765486E+02  0.10708755021E+02  0.18611994265E+02  0.51100000000E-03 0.  1.
         12    1    3    3    0    0 -0.10130295049E+02 -0.15990219740E+02 -0.63922184547E+01  0.19979250784E+02  0.00000000000E+00 0. -1.
</event>
<event>
 7    1  0.1874105E-013  0.7246120E+02  0.7816164E-02  0.1226709E+00
        -11   -1    0    0    0    0  0.00000000000E+00  0.00000000000E+00  0.45593999997E+02  0.45594000000E+02  0.51100000000E-03 0.  1.
         11   -1    0    0    0    0 -0.00000000000E+00 -0.00000000000E+00 -0.45593999997E+02  0.45594000000E+02  0.51100000000E-03 0. -1.
    9900012    2    1    2    0    0 -0.65110449842E+01 -0.92147744237E+01 -0.14946140522E+02  0.72461203932E+02  0.69999522743E+02 0.  0.
        -12    1    1    2    0    0  0.65110449842E+01  0.92147744237E+01  0.14946140522E+02  0.18726796068E+02  0.00000000000E+00 0.  1.
         11    1    3    3    0    0 -0.31728006870E+02  0.46695987371E+00  0.31053138455E+01  0.31883027551E+02  0.51100000000E-03 0. -1.
        -11    1    3    3    0    0  0.17679183854E+02 -0.85506372946E+00 -0.22073770877E+02  0.28293745541E+02  0.51100000000E-03 0.  1.
        -12    1    3    3    0    0  0.75377780315E+01 -0.88266705680E+01  0.40223165095E+01  0.12284430840E+02  0.00000000000E+00 0.  1.
</event>
<event>
 7    1  0.1874105E-013  0.7246163E+02  0.7816164E-02  0.1226708E+00
        -11   -1    0    0    0    0  0.00000000000E+00  0.00000000000E+00  0.45593999997E+02  0.45594000000E+02  0.51100000000E-03 0.  1.
         11   -1    0    0    0    0 -0.00000000000E+00 -0.00000000000E+00 -0.45593999997E+02  0.45594000000E+02  0.51100000000E-03 0. -1.
    9900012    2    1    2    0    0 -0.20869783165E+01 -0.31616444261E+01 -0.18339179801E+02  0.72461628495E+02  0.70000075818E+02 0.  0.
        -12    1    1    2    0    0  0.20869783165E+01  0.31616444261E+01  0.18339179801E+02  0.18726371505E+02  0.00000000000E+00 0.  1.
         11    1    3    3    0    0 -0.15549649208E+02 -0.80129049586E+01 -0.31127480313E+02  0.35705997637E+02  0.51100000000E-03 0. -1.
        -11    1    3    3    0    0  0.17445698121E+02 -0.86450436453E+01  0.11529124906E+02  0.22627635403E+02  0.51100000000E-03 0.  1.
        -12    1    3    3    0    0 -0.39830272296E+01  0.13496304178E+02  0.12591756064E+01  0.14127995455E+02  0.00000000000E+00 0.  1.
</event>
<event>
 7    1  0.1874105E-013  0.7246154E+02  0.7816164E-02  0.1226708E+00
        -11   -1    0    0    0    0  0.00000000000E+00  0.00000000000E+00  0.45593999997E+02  0.45594000000E+02  0.51100000000E-03 0. -1.
         11   -1    0    0    0    0 -0.00000000000E+00 -0.00000000000E+00 -0.45593999997E+02  0.45594000000E+02  0.51100000000E-03 0.  1.
    9900012    2    1    2    0    0 -0.87419129616E+01  0.11776113796E+02  0.11643980490E+02  0.72461543314E+02  0.69999964853E+02 0.  0.
        -12    1    1    2    0    0  0.87419129616E+01 -0.11776113796E+02 -0.11643980490E+02  0.18726456686E+02  0.00000000000E+00 0.  1.
         11    1    3    3    0    0 -0.20697644400E+02  0.74211600703E+01  0.12166258702E+02  0.25129344432E+02  0.51100000000E-03 0. -1.
        -11    1    3    3    0    0  0.11556420287E+01 -0.68405745305E+01 -0.20713053544E+02  0.21843982141E+02  0.51100000000E-03 0.  1.
         12    1    3    3    0    0  0.10800089410E+02  0.11195528256E+02  0.20190775331E+02  0.25488216742E+02  0.00000000000E+00 0. -1.
</event>
<event>
 7    1  0.1874105E-013  0.7246151E+02  0.7816164E-02  0.1226708E+00
        -11   -1    0    0    0    0  0.00000000000E+00  0.00000000000E+00  0.45593999997E+02  0.45594000000E+02  0.51100000000E-03 0.  1.
         11   -1    0    0    0    0 -0.00000000000E+00 -0.00000000000E+00 -0.45593999997E+02  0.45594000000E+02  0.51100000000E-03 0. -1.
    9900012    2    1    2    0    0 -0.35656477436E+00  0.12797626149E+02 -0.13666566607E+02  0.72461510305E+02  0.69999921853E+02 0.  0.
        -12    1    1    2    0    0  0.35656477436E+00 -0.12797626149E+02  0.13666566607E+02  0.18726489695E+02  0.00000000000E+00 0.  1.
         11    1    3    3    0    0  0.87375349465E+01  0.15576362971E+02 -0.37205549772E+02  0.41270092494E+02  0.51100000000E-03 0. -1.
        -11    1    3    3    0    0 -0.32823958619E+00 -0.24638169934E+01  0.22175733414E+02  0.22314598095E+02  0.51100000000E-03 0.  1.
         12    1    3    3    0    0 -0.87658601347E+01 -0.31491982918E+00  0.13632497505E+01  0.88768197167E+01  0.00000000000E+00 0. -1.
</event>
<event>
 7    1  0.1874105E-013  0.7246155E+02  0.7816164E-02  0.1226708E+00
        -11   -1    0    0    0    0  0.00000000000E+00  0.00000000000E+00  0.45593999997E+02  0.45594000000E+02  0.51100000000E-03 0.  1.
         11   -1    0    0    0    0 -0.00000000000E+00 -0.00000000000E+00 -0.45593999997E+02  0.45594000000E+02  0.51100000000E-03 0. -1.
    9900012    2    1    2    0    0 -0.14766488412E+02  0.96516358308E+01  0.62830549119E+01  0.72461547232E+02  0.69999969957E+02 0.  0.
        -12    1    1    2    0    0  0.14766488412E+02 -0.96516358308E+01 -0.62830549119E+01  0.18726452768E+02  0.00000000000E+00 0.  1.
         11    1    3    3    0    0 -0.54173154889E+01  0.20062037739E+02  0.29611103610E+02  0.36175269489E+02  0.51100000000E-03 0. -1.
        -11    1    3    3    0    0  0.33276268372E+01 -0.67885682801E+01  0.19226333628E+01  0.78009152649E+01  0.51100000000E-03 0.  1.
         12    1    3    3    0    0 -0.12676799761E+02 -0.36218336277E+01 -0.25250682061E+02  0.28485362479E+02  0.00000000000E+00 0. -1.
</event>
<event>
 7    1  0.1874105E-013  0.7246156E+02  0.7816164E-02  0.1226708E+00
        -11   -1    0    0    0    0  0.00000000000E+00  0.00000000000E+00  0.45593999997E+02  0.45594000000E+02  0.51100000000E-03 0. -1.
         11   -1    0    0    0    0 -0.00000000000E+00 -0.00000000000E+00 -0.45593999997E+02  0.45594000000E+02  0.51100000000E-03 0.  1.
    9900012    2    1    2    0    0 -0.17552698556E+02  0.30798569959E+01  0.57529829985E+01  0.72461559893E+02  0.69999986450E+02 0.  0.
        -12    1    1    2    0    0  0.17552698556E+02 -0.30798569959E+01 -0.57529829985E+01  0.18726440107E+02  0.00000000000E+00 0.  1.
         11    1    3    3    0    0 -0.47725624083E+01 -0.13168751801E+02 -0.10359607648E+02  0.17421677497E+02  0.51100000000E-03 0. -1.
        -11    1    3    3    0    0 -0.29252372700E+02  0.24839094356E+01  0.16287035477E+02  0.33572885481E+02  0.51100000000E-03 0.  1.
        -12    1    3    3    0    0  0.16472236552E+02  0.13764699361E+02 -0.17444483005E+00  0.21466996915E+02  0.00000000000E+00 0.  1.
</event>
<event>
 7    1  0.1874105E-013  0.7246157E+02  0.7816164E-02  0.1226708E+00
        -11   -1    0    0    0    0  0.00000000000E+00  0.00000000000E+00  0.45593999997E+02  0.45594000000E+02  0.51100000000E-03 0.  1.
         11   -1    0    0    0    0 -0.00000000000E+00 -0.00000000000E+00 -0.45593999997E+02  0.45594000000E+02  0.51100000000E-03 0. -1.
    9900012    2    1    2    0    0  0.50200961717E+01  0.23939361736E+01 -0.17881470614E+02  0.72461567150E+02  0.69999995904E+02 0.  0.
        -12    1    1    2    0    0 -0.50200961717E+01 -0.23939361736E+01  0.17881470614E+02  0.18726432850E+02  0.00000000000E+00 0.  1.
         11    1    3    3    0    0 -0.10541353248E+01 -0.70627320437E+01 -0.32242655712E+02  0.33023964523E+02  0.51100000000E-03 0. -1.
        -11    1    3    3    0    0  0.11550886994E+02 -0.91994996878E+01  0.13448339042E+02  0.19972771668E+02  0.51100000000E-03 0.  1.
         12    1    3    3    0    0 -0.54766554976E+01  0.18656167905E+02  0.91284605604E+00  0.19464830959E+02  0.00000000000E+00 0. -1.
</event>
<event>
 7    1  0.1874105E-013  0.7246220E+02  0.7816164E-02  0.1226706E+00
        -11   -1    0    0    0    0  0.00000000000E+00  0.00000000000E+00  0.45593999997E+02  0.45594000000E+02  0.51100000000E-03 0.  1.
         11   -1    0    0    0    0 -0.00000000000E+00 -0.00000000000E+00 -0.45593999997E+02  0.45594000000E+02  0.51100000000E-03 0. -1.
    9900012    2    1    2    0    0 -0.12001448575E+02 -0.44373564051E-01 -0.14374236145E+02  0.72462204912E+02  0.70000826703E+02 0.  0.
        -12    1    1    2    0    0  0.12001448575E+02  0.44373564051E-01  0.14374236145E+02  0.18725795088E+02  0.00000000000E+00 0.  1.
         11    1    3    3    0    0  0.68308137042E+01  0.41230596655E+01  0.14839966779E+01  0.81155334555E+01  0.51100000000E-03 0. -1.
        -11    1    3    3    0    0 -0.21821131354E+02 -0.21893421664E+02  0.10322224284E+02  0.32588832446E+02  0.51100000000E-03 0.  1.
        -12    1    3    3    0    0  0.29888690754E+01  0.17725988435E+02 -0.26180457107E+02  0.31757839011E+02  0.00000000000E+00 0.  1.
</event>
<event>
 7    1  0.1874105E-013  0.7246172E+02  0.7816164E-02  0.1226708E+00
        -11   -1    0    0    0    0  0.00000000000E+00  0.00000000000E+00  0.45593999997E+02  0.45594000000E+02  0.51100000000E-03 0. -1.
         11   -1    0    0    0    0 -0.00000000000E+00 -0.00000000000E+00 -0.45593999997E+02  0.45594000000E+02  0.51100000000E-03 0.  1.
    9900012    2    1    2    0    0  0.95075691772E+01  0.14276269862E+02  0.75145111435E+01  0.72461718187E+02  0.70000192657E+02 0.  0.
        -12    1    1    2    0    0 -0.95075691772E+01 -0.14276269862E+02 -0.75145111435E+01  0.18726281813E+02  0.00000000000E+00 0.  1.
         11    1    3    3    0    0  0.14111339550E+02  0.25781776154E+02  0.69584814578E+01  0.30203482415E+02  0.51100000000E-03 0. -1.
        -11    1    3    3    0    0  0.54258298682E+01 -0.24909869534E+02 -0.29026376068E+00  0.25495597331E+02  0.51100000000E-03 0.  1.
         12    1    3    3    0    0 -0.10029600241E+02  0.13404363241E+02  0.84629344640E+00  0.16762638441E+02  0.00000000000E+00 0. -1.
</event>
<event>
 7    1  0.1874105E-013  0.7246151E+02  0.7816164E-02  0.1226708E+00
        -11   -1    0    0    0    0  0.00000000000E+00  0.00000000000E+00  0.45593999997E+02  0.45594000000E+02  0.51100000000E-03 0. -1.
         11   -1    0    0    0    0 -0.00000000000E+00 -0.00000000000E+00 -0.45593999997E+02  0.45594000000E+02  0.51100000000E-03 0.  1.
    9900012    2    1    2    0    0  0.77805351950E+01  0.17018361192E+02 -0.72119329976E+00  0.72461508995E+02  0.69999920147E+02 0.  0.
        -12    1    1    2    0    0 -0.77805351950E+01 -0.17018361192E+02  0.72119329976E+00  0.18726491005E+02  0.00000000000E+00 0.  1.
         11    1    3    3    0    0 -0.13027890743E+02  0.69950404888E+01  0.94796194374E+00  0.14817393859E+02  0.51100000000E-03 0. -1.
        -11    1    3    3    0    0  0.37264510426E+02  0.11399788740E+02  0.60142979416E+01  0.39430580780E+02  0.51100000000E-03 0.  1.
        -12    1    3    3    0    0 -0.16456084488E+02 -0.13764680372E+01 -0.76834531851E+01  0.18213534357E+02  0.00000000000E+00 0.  1.
</event>
<event>
 7    1  0.1874105E-013  0.7246144E+02  0.7816164E-02  0.1226708E+00
        -11   -1    0    0    0    0  0.00000000000E+00  0.00000000000E+00  0.45593999997E+02  0.45594000000E+02  0.51100000000E-03 0.  1.
         11   -1    0    0    0    0 -0.00000000000E+00 -0.00000000000E+00 -0.45593999997E+02  0.45594000000E+02  0.51100000000E-03 0. -1.
    9900012    2    1    2    0    0  0.37065583895E+00 -0.16452803805E+02 -0.89359967859E+01  0.72461436584E+02  0.69999825817E+02 0.  0.
        -12    1    1    2    0    0 -0.37065583895E+00  0.16452803805E+02  0.89359967859E+01  0.18726563416E+02  0.00000000000E+00 0.  1.
         11    1    3    3    0    0  0.24650324098E+02 -0.34575160308E+01  0.37825443111E+01  0.25177381456E+02  0.51100000000E-03 0. -1.
        -11    1    3    3    0    0 -0.93079619570E+01  0.48251717619E+01 -0.20264890674E+02  0.22816358881E+02  0.51100000000E-03 0.  1.
        -12    1    3    3    0    0 -0.14971706302E+02 -0.17820459537E+02  0.75463495766E+01  0.24467696247E+02  0.00000000000E+00 0.  1.
</event>
<event>
 7    1  0.1874105E-013  0.7246168E+02  0.7816164E-02  0.1226708E+00
        -11   -1    0    0    0    0  0.00000000000E+00  0.00000000000E+00  0.45593999997E+02  0.45594000000E+02  0.51100000000E-03 0.  1.
         11   -1    0    0    0    0 -0.00000000000E+00 -0.00000000000E+00 -0.45593999997E+02  0.45594000000E+02  0.51100000000E-03 0. -1.
    9900012    2    1    2    0    0  0.10147303009E+02  0.90964759052E+01 -0.12843728517E+02  0.72461681770E+02  0.70000145217E+02 0.  0.
        -12    1    1    2    0    0 -0.10147303009E+02 -0.90964759052E+01  0.12843728517E+02  0.18726318230E+02  0.00000000000E+00 0.  1.
         11    1    3    3    0    0 -0.58328970572E+01  0.54608378793E+01 -0.37764613541E+01  0.88377089251E+01  0.51100000000E-03 0. -1.
        -11    1    3    3    0    0  0.39367474627E+02  0.15703160120E+01 -0.73898939955E+01  0.40085838951E+02  0.51100000000E-03 0.  1.
        -12    1    3    3    0    0 -0.23387274561E+02  0.20653220140E+01 -0.16773731677E+01  0.23538133893E+02  0.00000000000E+00 0.  1.
</event>
<event>
 7    1  0.1874105E-013  0.7246153E+02  0.7816164E-02  0.1226708E+00
        -11   -1    0    0    0    0  0.00000000000E+00  0.00000000000E+00  0.45593999997E+02  0.45594000000E+02  0.51100000000E-03 0. -1.
         11   -1    0    0    0    0 -0.00000000000E+00 -0.00000000000E+00 -0.45593999997E+02  0.45594000000E+02  0.51100000000E-03 0.  1.
    9900012    2    1    2    0    0  0.20158255923E+01  0.14044321875E+02  0.12221875087E+02  0.72461527817E+02  0.69999944666E+02 0.  0.
        -12    1    1    2    0    0 -0.20158255923E+01 -0.14044321875E+02 -0.12221875087E+02  0.18726472183E+02  0.00000000000E+00 0.  1.
         11    1    3    3    0    0  0.89884539816E+01  0.15109905086E+02  0.83294571736E+01  0.19454598267E+02  0.51100000000E-03 0. -1.
        -11    1    3    3    0    0  0.42353271695E+01 -0.19485870811E+02  0.18307317714E+02  0.27070187285E+02  0.51100000000E-03 0.  1.
        -12    1    3    3    0    0 -0.11207955559E+02  0.18420287601E+02 -0.14414899800E+02  0.25936742265E+02  0.00000000000E+00 0.  1.
</event>
<event>
 7    1  0.1874105E-013  0.7246161E+02  0.7816164E-02  0.1226708E+00
        -11   -1    0    0    0    0  0.00000000000E+00  0.00000000000E+00  0.45593999997E+02  0.45594000000E+02  0.51100000000E-03 0.  1.
         11   -1    0    0    0    0 -0.00000000000E+00 -0.00000000000E+00 -0.45593999997E+02  0.45594000000E+02  0.51100000000E-03 0. -1.
    9900012    2    1    2    0    0 -0.43471374438E+01 -0.12530067662E+02 -0.13220343915E+02  0.72461609723E+02  0.70000051363E+02 0.  0.
        -12    1    1    2    0    0  0.43471374438E+01  0.12530067662E+02  0.13220343915E+02  0.18726390277E+02  0.00000000000E+00 0.  1.
         11    1    3    3    0    0 -0.15193322375E+01 -0.12461646298E+02  0.42509835718E-01  0.12553995629E+02  0.51100000000E-03 0. -1.
        -11    1    3    3    0    0  0.26768730943E+02  0.73959721023E+01 -0.43550977062E+01  0.28111069634E+02  0.51100000000E-03 0.  1.
        -12    1    3    3    0    0 -0.29596536150E+02 -0.74643934668E+01 -0.89077560442E+01  0.31796544461E+02  0.00000000000E+00 0.  1.
</event>
<event>
 7    1  0.1874105E-013  0.7246181E+02  0.7816164E-02  0.1226707E+00
        -11   -1    0    0    0    0  0.00000000000E+00  0.00000000000E+00  0.45593999997E+02  0.45594000000E+02  0.51100000000E-03 0.  1.
         11   -1    0    0    0    0 -0.00000000000E+00 -0.00000000000E+00 -0.45593999997E+02  0.45594000000E+02  0.51100000000E-03 0. -1.
    9900012    2    1    2    0    0  0.29919197902E+00 -0.13367872237E+02 -0.13110321444E+02  0.72461813726E+02  0.70000317115E+02 0.  0.
        -12    1    1    2    0    0 -0.29919197902E+00  0.13367872237E+02  0.13110321444E+02  0.18726186274E+02  0.00000000000E+00 0.  1.
         11    1    3    3    0    0  0.88493990155E+01  0.76461231566E-02  0.17740917505E+02  0.19825540991E+02  0.51100000000E-03 0.  1.
        -11    1    3    3    0    0  0.10596175229E+02 -0.18489042310E+02 -0.22904626722E+02  0.31284909150E+02  0.51100000000E-03 0. -1.
        -12    1    3    3    0    0 -0.19146382265E+02  0.51135239495E+01 -0.79466122275E+01  0.21351363585E+02  0.00000000000E+00 0.  1.
</event>
<event>
 7    1  0.1874105E-013  0.7246155E+02  0.7816164E-02  0.1226708E+00
        -11   -1    0    0    0    0  0.00000000000E+00  0.00000000000E+00  0.45593999997E+02  0.45594000000E+02  0.51100000000E-03 0.  1.
         11   -1    0    0    0    0 -0.00000000000E+00 -0.00000000000E+00 -0.45593999997E+02  0.45594000000E+02  0.51100000000E-03 0. -1.
    9900012    2    1    2    0    0 -0.39044194886E+01 -0.17653584876E+02  0.48771296242E+01  0.72461549619E+02  0.69999973066E+02 0.  0.
        -12    1    1    2    0    0  0.39044194886E+01  0.17653584876E+02 -0.48771296242E+01  0.18726450381E+02  0.00000000000E+00 0.  1.
         11    1    3    3    0    0 -0.96044472613E+01  0.18859430369E+01 -0.16576484359E+02  0.19250507066E+02  0.51100000000E-03 0. -1.
        -11    1    3    3    0    0 -0.60021371426E+01 -0.27040825448E+02  0.26586431488E+02  0.38393622266E+02  0.51100000000E-03 0.  1.
        -12    1    3    3    0    0  0.11702164915E+02  0.75012975360E+01 -0.51328175046E+01  0.14817420287E+02  0.00000000000E+00 0.  1.
</event>
<event>
 7    1  0.1874105E-013  0.7246160E+02  0.7816164E-02  0.1226708E+00
        -11   -1    0    0    0    0  0.00000000000E+00  0.00000000000E+00  0.45593999997E+02  0.45594000000E+02  0.51100000000E-03 0.  1.
         11   -1    0    0    0    0 -0.00000000000E+00 -0.00000000000E+00 -0.45593999997E+02  0.45594000000E+02  0.51100000000E-03 0. -1.
    9900012    2    1    2    0    0 -0.40228651742E+00 -0.17899010899E+02  0.54901305909E+01  0.72461602602E+02  0.70000042087E+02 0.  0.
        -12    1    1    2    0    0  0.40228651742E+00  0.17899010899E+02 -0.54901305909E+01  0.18726397398E+02  0.00000000000E+00 0.  1.
         11    1    3    3    0    0 -0.24990208964E+02 -0.10077048065E+02  0.85034372408E+01  0.28255369170E+02  0.51100000000E-03 0. -1.
        -11    1    3    3    0    0  0.19938646642E+02  0.32332940751E+01  0.13132976805E+02  0.24093129737E+02  0.51100000000E-03 0.  1.
        -12    1    3    3    0    0  0.46492758038E+01 -0.11055256909E+02 -0.16146283455E+02  0.20113103695E+02  0.00000000000E+00 0.  1.
</event>
<event>
 7    1  0.1874105E-013  0.7246158E+02  0.7816164E-02  0.1226708E+00
        -11   -1    0    0    0    0  0.00000000000E+00  0.00000000000E+00  0.45593999997E+02  0.45594000000E+02  0.51100000000E-03 0.  1.
         11   -1    0    0    0    0 -0.00000000000E+00 -0.00000000000E+00 -0.45593999997E+02  0.45594000000E+02  0.51100000000E-03 0. -1.
    9900012    2    1    2    0    0 -0.14614761285E+02  0.11706462082E+02 -0.21518385171E+00  0.72461580001E+02  0.70000012645E+02 0.  0.
        -12    1    1    2    0    0  0.14614761285E+02 -0.11706462082E+02  0.21518385171E+00  0.18726419999E+02  0.00000000000E+00 0.  1.
         11    1    3    3    0    0 -0.13961280048E+02 -0.34932718151E+01 -0.63137352314E+00  0.14405517045E+02  0.51100000000E-03 0. -1.
        -11    1    3    3    0    0 -0.11327446662E+02  0.19724956143E+02 -0.22737625076E+02  0.32161849093E+02  0.51100000000E-03 0.  1.
        -12    1    3    3    0    0  0.10673965425E+02 -0.45252222457E+01  0.23153814747E+02  0.25894213864E+02  0.00000000000E+00 0.  1.
</event>
<event>
 7    1  0.1874105E-013  0.7246211E+02  0.7816164E-02  0.1226707E+00
        -11   -1    0    0    0    0  0.00000000000E+00  0.00000000000E+00  0.45593999997E+02  0.45594000000E+02  0.51100000000E-03 0. -1.
         11   -1    0    0    0    0 -0.00000000000E+00 -0.00000000000E+00 -0.45593999997E+02  0.45594000000E+02  0.51100000000E-03 0.  1.
    9900012    2    1    2    0    0  0.12704229164E+02  0.29403431279E+01 -0.13439340684E+02  0.72462110585E+02  0.70000703825E+02 0.  0.
        -12    1    1    2    0    0 -0.12704229164E+02 -0.29403431279E+01  0.13439340684E+02  0.18725889415E+02  0.00000000000E+00 0.  1.
         11    1    3    3    0    0  0.27844543901E+02 -0.11397327549E+02  0.11158238414E+02  0.32089312631E+02  0.51100000000E-03 0. -1.
        -11    1    3    3    0    0 -0.16911677685E+02  0.11185467518E+02 -0.56014198351E+01  0.21035575346E+02  0.51100000000E-03 0.  1.
        -12    1    3    3    0    0  0.17713629477E+01  0.31522031592E+01 -0.18996159263E+02  0.19337222608E+02  0.00000000000E+00 0.  1.
</event>
<event>
 7    1  0.1874105E-013  0.7246160E+02  0.7816164E-02  0.1226708E+00
        -11   -1    0    0    0    0  0.00000000000E+00  0.00000000000E+00  0.45593999997E+02  0.45594000000E+02  0.51100000000E-03 0.  1.
         11   -1    0    0    0    0 -0.00000000000E+00 -0.00000000000E+00 -0.45593999997E+02  0.45594000000E+02  0.51100000000E-03 0. -1.
    9900012    2    1    2    0    0  0.73506940675E+01  0.39930353903E+01 -0.16754134035E+02  0.72461600395E+02  0.70000039212E+02 0.  0.
        -12    1    1    2    0    0 -0.73506940675E+01 -0.39930353903E+01  0.16754134035E+02  0.18726399605E+02  0.00000000000E+00 0.  1.
         11    1    3    3    0    0 -0.67927116524E+01 -0.20789408470E+02 -0.21340996075E+02  0.30557790330E+02  0.51100000000E-03 0. -1.
        -11    1    3    3    0    0  0.22557338923E+02  0.23772033605E+02  0.59901151385E+01  0.33314030087E+02  0.51100000000E-03 0.  1.
         12    1    3    3    0    0 -0.84139332027E+01  0.10104102546E+01 -0.14032530978E+01  0.85897799785E+01  0.00000000000E+00 0. -1.
</event>
<event>
 7    1  0.1874105E-013  0.7246168E+02  0.7816164E-02  0.1226708E+00
        -11   -1    0    0    0    0  0.00000000000E+00  0.00000000000E+00  0.45593999997E+02  0.45594000000E+02  0.51100000000E-03 0. -1.
         11   -1    0    0    0    0 -0.00000000000E+00 -0.00000000000E+00 -0.45593999997E+02  0.45594000000E+02  0.51100000000E-03 0.  1.
    9900012    2    1    2    0    0 -0.10474550125E+01 -0.93468112457E+01  0.16193048959E+02  0.72461684904E+02  0.70000149301E+02 0.  0.
        -12    1    1    2    0    0  0.10474550125E+01  0.93468112457E+01 -0.16193048959E+02  0.18726315096E+02  0.00000000000E+00 0.  1.
         11    1    3    3    0    0 -0.12478498542E+02 -0.15680764943E+01  0.96201921302E+01  0.15834136751E+02  0.51100000000E-03 0. -1.
        -11    1    3    3    0    0  0.29942089240E+02 -0.71908475404E+01 -0.93729879019E+01  0.32188350359E+02  0.51100000000E-03 0.  1.
        -12    1    3    3    0    0 -0.18511045710E+02 -0.58788721101E+00  0.15945844731E+02  0.24439197795E+02  0.00000000000E+00 0.  1.
</event>
<event>
 7    1  0.1874105E-013  0.7246145E+02  0.7816164E-02  0.1226708E+00
        -11   -1    0    0    0    0  0.00000000000E+00  0.00000000000E+00  0.45593999997E+02  0.45594000000E+02  0.51100000000E-03 0.  1.
         11   -1    0    0    0    0 -0.00000000000E+00 -0.00000000000E+00 -0.45593999997E+02  0.45594000000E+02  0.51100000000E-03 0. -1.
    9900012    2    1    2    0    0  0.94621173098E+01 -0.11121548151E+02  0.11724467848E+02  0.72461450836E+02  0.69999844383E+02 0.  0.
        -12    1    1    2    0    0 -0.94621173098E+01  0.11121548151E+02 -0.11724467848E+02  0.18726549164E+02  0.00000000000E+00 0.  1.
         11    1    3    3    0    0 -0.91263740147E+01 -0.13579756470E+02 -0.14628240984E+02  0.21947344327E+02  0.51100000000E-03 0. -1.
        -11    1    3    3    0    0  0.16704990653E+02  0.16893811501E+02  0.43836594196E+01  0.24159347050E+02  0.51100000000E-03 0.  1.
         12    1    3    3    0    0  0.18835006718E+01 -0.14435603182E+02  0.21969049413E+02  0.26354759459E+02  0.00000000000E+00 0. -1.
</event>
<event>
 7    1  0.1874105E-013  0.7246161E+02  0.7816164E-02  0.1226708E+00
        -11   -1    0    0    0    0  0.00000000000E+00  0.00000000000E+00  0.45593999997E+02  0.45594000000E+02  0.51100000000E-03 0. -1.
         11   -1    0    0    0    0 -0.00000000000E+00 -0.00000000000E+00 -0.45593999997E+02  0.45594000000E+02  0.51100000000E-03 0.  1.
    9900012    2    1    2    0    0  0.29385597056E+01 -0.64107388872E+01  0.17347766864E+02  0.72461608960E+02  0.70000050369E+02 0.  0.
        -12    1    1    2    0    0 -0.29385597056E+01  0.64107388872E+01 -0.17347766864E+02  0.18726391040E+02  0.00000000000E+00 0.  1.
         11    1    3    3    0    0 -0.20837475484E+02 -0.20636619100E+02 -0.10857222324E+02  0.31272187472E+02  0.51100000000E-03 0. -1.
        -11    1    3    3    0    0  0.10699731796E+02  0.37527120767E+01  0.45838903561E+01  0.12230255905E+02  0.51100000000E-03 0.  1.
         12    1    3    3    0    0  0.13076303394E+02  0.10473168136E+02  0.23621098832E+02  0.28959165583E+02  0.00000000000E+00 0. -1.
</event>
<event>
 7    1  0.1874105E-013  0.7246156E+02  0.7816164E-02  0.1226708E+00
        -11   -1    0    0    0    0  0.00000000000E+00  0.00000000000E+00  0.45593999997E+02  0.45594000000E+02  0.51100000000E-03 0.  1.
         11   -1    0    0    0    0 -0.00000000000E+00 -0.00000000000E+00 -0.45593999997E+02  0.45594000000E+02  0.51100000000E-03 0. -1.
    9900012    2    1    2    0    0  0.12299987954E+02 -0.15722220826E+01 -0.14032743948E+02  0.72461561773E+02  0.69999988900E+02 0.  0.
        -12    1    1    2    0    0 -0.12299987954E+02  0.15722220826E+01  0.14032743948E+02  0.18726438227E+02  0.00000000000E+00 0.  1.
         11    1    3    3    0    0 -0.76710382989E+01 -0.16901412681E+00  0.14154384557E+02  0.16100310457E+02  0.51100000000E-03 0.  1.
        -11    1    3    3    0    0  0.63615472059E+01  0.11300928454E+02 -0.34376921467E+02  0.36741706501E+02  0.51100000000E-03 0. -1.
         12    1    3    3    0    0  0.13609479047E+02 -0.12704136410E+02  0.61897929617E+01  0.19619544815E+02  0.00000000000E+00 0. -1.
</event>
<event>
 7    1  0.1874105E-013  0.7246164E+02  0.7816164E-02  0.1226708E+00
        -11   -1    0    0    0    0  0.00000000000E+00  0.00000000000E+00  0.45593999997E+02  0.45594000000E+02  0.51100000000E-03 0.  1.
         11   -1    0    0    0    0 -0.00000000000E+00 -0.00000000000E+00 -0.45593999997E+02  0.45594000000E+02  0.51100000000E-03 0. -1.
    9900012    2    1    2    0    0 -0.11149224417E+02  0.33818763144E+01 -0.14660632559E+02  0.72461643185E+02  0.70000094954E+02 0.  0.
        -12    1    1    2    0    0  0.11149224417E+02 -0.33818763144E+01  0.14660632559E+02  0.18726356815E+02  0.00000000000E+00 0.  1.
         11    1    3    3    0    0  0.52561841153E+01 -0.13298100184E+02 -0.85417139891E+01  0.16656164567E+02  0.51100000000E-03 0. -1.
        -11    1    3    3    0    0 -0.65839867112E+01  0.33389829636E+02  0.34176732612E+01  0.34203948528E+02  0.51100000000E-03 0.  1.
        -12    1    3    3    0    0 -0.98214218216E+01 -0.16709853138E+02 -0.95365918315E+01  0.21601530090E+02  0.00000000000E+00 0.  1.
</event>
<event>
 7    1  0.1874105E-013  0.7246162E+02  0.7816164E-02  0.1226708E+00
        -11   -1    0    0    0    0  0.00000000000E+00  0.00000000000E+00  0.45593999997E+02  0.45594000000E+02  0.51100000000E-03 0.  1.
         11   -1    0    0    0    0 -0.00000000000E+00 -0.00000000000E+00 -0.45593999997E+02  0.45594000000E+02  0.51100000000E-03 0. -1.
    9900012    2    1    2    0    0  0.17353577332E+02  0.68830409612E+00 -0.70040634540E+01  0.72461619848E+02  0.70000064553E+02 0.  0.
        -12    1    1    2    0    0 -0.17353577332E+02 -0.68830409612E+00  0.70040634540E+01  0.18726380152E+02  0.00000000000E+00 0.  1.
         11    1    3    3    0    0  0.19259337415E+01 -0.17472390010E+02  0.16779839011E+02  0.24301370968E+02  0.51100000000E-03 0. -1.
        -11    1    3    3    0    0  0.22542771479E+02  0.25415197081E+01 -0.20723291285E+02  0.30726058490E+02  0.51100000000E-03 0.  1.
         12    1    3    3    0    0 -0.71151278893E+01  0.15619174398E+02 -0.30606111801E+01  0.17434190390E+02  0.00000000000E+00 0. -1.
</event>
<event>
 7    1  0.1874105E-013  0.7246156E+02  0.7816164E-02  0.1226708E+00
        -11   -1    0    0    0    0  0.00000000000E+00  0.00000000000E+00  0.45593999997E+02  0.45594000000E+02  0.51100000000E-03 0. -1.
         11   -1    0    0    0    0 -0.00000000000E+00 -0.00000000000E+00 -0.45593999997E+02  0.45594000000E+02  0.51100000000E-03 0.  1.
    9900012    2    1    2    0    0 -0.77143248318E+01 -0.16696418637E+02  0.35211251567E+01  0.72461560795E+02  0.69999987626E+02 0.  0.
        -12    1    1    2    0    0  0.77143248318E+01  0.16696418637E+02 -0.35211251567E+01  0.18726439205E+02  0.00000000000E+00 0.  1.
         11    1    3    3    0    0  0.14331085687E+01 -0.28693448494E+02 -0.60157783082E+01  0.29352297619E+02  0.51100000000E-03 0. -1.
        -11    1    3    3    0    0  0.13385437641E+02  0.61124894853E+01  0.12912690975E+02  0.19577284210E+02  0.51100000000E-03 0.  1.
        -12    1    3    3    0    0 -0.22532871042E+02  0.58845403713E+01 -0.33757875099E+01  0.23531978966E+02  0.00000000000E+00 0.  1.
</event>
<event>
 7    1  0.1874105E-013  0.7246155E+02  0.7816164E-02  0.1226708E+00
        -11   -1    0    0    0    0  0.00000000000E+00  0.00000000000E+00  0.45593999997E+02  0.45594000000E+02  0.51100000000E-03 0.  1.
         11   -1    0    0    0    0 -0.00000000000E+00 -0.00000000000E+00 -0.45593999997E+02  0.45594000000E+02  0.51100000000E-03 0. -1.
    9900012    2    1    2    0    0  0.32150005770E+01 -0.10166123577E+02 -0.15394597562E+02  0.72461549952E+02  0.69999973500E+02 0.  0.
        -12    1    1    2    0    0 -0.32150005770E+01  0.10166123577E+02  0.15394597562E+02  0.18726450048E+02  0.00000000000E+00 0.  1.
         11    1    3    3    0    0  0.35856700660E+01 -0.34652017661E+02 -0.74689213744E+00  0.34845045643E+02  0.51100000000E-03 0.  1.
        -11    1    3    3    0    0 -0.56297694431E+01  0.17445224946E+01  0.45086155547E+01  0.74205981698E+01  0.51100000000E-03 0. -1.
         12    1    3    3    0    0  0.52590999541E+01  0.22741371589E+02 -0.19156320980E+02  0.30195906139E+02  0.00000000000E+00 0. -1.
</event>
<event>
 7    1  0.1874105E-013  0.7246158E+02  0.7816164E-02  0.1226708E+00
        -11   -1    0    0    0    0  0.00000000000E+00  0.00000000000E+00  0.45593999997E+02  0.45594000000E+02  0.51100000000E-03 0. -1.
         11   -1    0    0    0    0 -0.00000000000E+00 -0.00000000000E+00 -0.45593999997E+02  0.45594000000E+02  0.51100000000E-03 0.  1.
    9900012    2    1    2    0    0  0.48582187836E+01 -0.96833424123E+01  0.15274463519E+02  0.72461584277E+02  0.70000018215E+02 0.  0.
        -12    1    1    2    0    0 -0.48582187836E+01  0.96833424123E+01 -0.15274463519E+02  0.18726415723E+02  0.00000000000E+00 0.  1.
         11    1    3    3    0    0 -0.20347264200E+02  0.78878181428E+01 -0.14740031915E+02  0.26334338355E+02  0.51100000000E-03 0. -1.
        -11    1    3    3    0    0  0.11307287368E+02 -0.44137448597E+01  0.21559294483E+01  0.12328175995E+02  0.51100000000E-03 0.  1.
         12    1    3    3    0    0  0.13898195615E+02 -0.13157415695E+02  0.27858565986E+02  0.33799069927E+02  0.00000000000E+00 0. -1.
</event>
<event>
 7    1  0.1874105E-013  0.7246155E+02  0.7816164E-02  0.1226708E+00
        -11   -1    0    0    0    0  0.00000000000E+00  0.00000000000E+00  0.45593999997E+02  0.45594000000E+02  0.51100000000E-03 0. -1.
         11   -1    0    0    0    0 -0.00000000000E+00 -0.00000000000E+00 -0.45593999997E+02  0.45594000000E+02  0.51100000000E-03 0.  1.
    9900012    2    1    2    0    0  0.14235935603E+02 -0.97635622873E+01 -0.72588405602E+01  0.72461554066E+02  0.69999978860E+02 0.  0.
        -12    1    1    2    0    0 -0.14235935603E+02  0.97635622873E+01  0.72588405602E+01  0.18726445934E+02  0.00000000000E+00 0.  1.
         11    1    3    3    0    0  0.56452660372E+01  0.24682441082E+02  0.86457195172E+01  0.26755193750E+02  0.51100000000E-03 0. -1.
        -11    1    3    3    0    0  0.15593460701E+02 -0.14785871591E+02 -0.11514586773E+02  0.24379575963E+02  0.51100000000E-03 0.  1.
         12    1    3    3    0    0 -0.70027911352E+01 -0.19660131778E+02 -0.43899733048E+01  0.21326784353E+02  0.00000000000E+00 0. -1.
</event>
<event>
 7    1  0.1874105E-013  0.7246158E+02  0.7816164E-02  0.1226708E+00
        -11   -1    0    0    0    0  0.00000000000E+00  0.00000000000E+00  0.45593999997E+02  0.45594000000E+02  0.51100000000E-03 0.  1.
         11   -1    0    0    0    0 -0.00000000000E+00 -0.00000000000E+00 -0.45593999997E+02  0.45594000000E+02  0.51100000000E-03 0. -1.
    9900012    2    1    2    0    0 -0.14186714756E+02 -0.10564523701E+02 -0.61487064626E+01  0.72461584760E+02  0.70000018844E+02 0.  0.
        -12    1    1    2    0    0  0.14186714756E+02  0.10564523701E+02  0.61487064626E+01  0.18726415240E+02  0.00000000000E+00 0.  1.
         11    1    3    3    0    0 -0.58553890520E+01  0.12633171256E+02 -0.64825668404E+01  0.15359240542E+02  0.51100000000E-03 0. -1.
        -11    1    3    3    0    0 -0.99852463453E+01 -0.25194278059E+02  0.22230879821E+02  0.35052372379E+02  0.51100000000E-03 0.  1.
        -12    1    3    3    0    0  0.16539206414E+01  0.19965831025E+01 -0.21897019444E+02  0.22049971839E+02  0.00000000000E+00 0.  1.
</event>
<event>
 7    1  0.1874105E-013  0.7246155E+02  0.7816164E-02  0.1226708E+00
        -11   -1    0    0    0    0  0.00000000000E+00  0.00000000000E+00  0.45593999997E+02  0.45594000000E+02  0.51100000000E-03 0.  1.
         11   -1    0    0    0    0 -0.00000000000E+00 -0.00000000000E+00 -0.45593999997E+02  0.45594000000E+02  0.51100000000E-03 0. -1.
    9900012    2    1    2    0    0 -0.11315285813E+02  0.92018184199E+01 -0.11746101810E+02  0.72461546439E+02  0.69999968924E+02 0.  0.
        -12    1    1    2    0    0  0.11315285813E+02 -0.92018184199E+01  0.11746101810E+02  0.18726453561E+02  0.00000000000E+00 0.  1.
         11    1    3    3    0    0  0.13374633818E+02  0.14591655019E+02 -0.13705214406E+02  0.24075508886E+02  0.51100000000E-03 0. -1.
        -11    1    3    3    0    0 -0.22480737285E+02  0.28209849014E+01  0.18851704313E+02  0.29474196520E+02  0.51100000000E-03 0.  1.
        -12    1    3    3    0    0 -0.22091823460E+01 -0.82108215003E+01 -0.16892591717E+02  0.18911841033E+02  0.00000000000E+00 0.  1.
</event>
<event>
 7    1  0.1874105E-013  0.7246153E+02  0.7816164E-02  0.1226708E+00
        -11   -1    0    0    0    0  0.00000000000E+00  0.00000000000E+00  0.45593999997E+02  0.45594000000E+02  0.51100000000E-03 0. -1.
         11   -1    0    0    0    0 -0.00000000000E+00 -0.00000000000E+00 -0.45593999997E+02  0.45594000000E+02  0.51100000000E-03 0.  1.
    9900012    2    1    2    0    0  0.15421899312E+02 -0.80117732262E+00  0.10592639008E+02  0.72461525034E+02  0.69999941040E+02 0.  0.
        -12    1    1    2    0    0 -0.15421899312E+02  0.80117732262E+00 -0.10592639008E+02  0.18726474966E+02  0.00000000000E+00 0.  1.
         11    1    3    3    0    0  0.66285091407E+00  0.19669284103E+02 -0.12838168397E+02  0.23497631296E+02  0.51100000000E-03 0.  1.
        -11    1    3    3    0    0  0.20840865742E+02 -0.26808017529E+02  0.20688359321E+02  0.39762038433E+02  0.51100000000E-03 0. -1.
         12    1    3    3    0    0 -0.60818173440E+01  0.63375561034E+01  0.27424480844E+01  0.92018553056E+01  0.00000000000E+00 0. -1.
</event>
<event>
 7    1  0.1874105E-013  0.7246134E+02  0.7816164E-02  0.1226709E+00
        -11   -1    0    0    0    0  0.00000000000E+00  0.00000000000E+00  0.45593999997E+02  0.45594000000E+02  0.51100000000E-03 0. -1.
         11   -1    0    0    0    0 -0.00000000000E+00 -0.00000000000E+00 -0.45593999997E+02  0.45594000000E+02  0.51100000000E-03 0.  1.
    9900012    2    1    2    0    0 -0.46270750570E+01  0.13847911666E+02  0.11726605082E+02  0.72461341253E+02  0.69999701630E+02 0.  0.
        -12    1    1    2    0    0  0.46270750570E+01 -0.13847911666E+02 -0.11726605082E+02  0.18726658747E+02  0.00000000000E+00 0.  1.
         11    1    3    3    0    0  0.43228904142E+01  0.27632036455E+02  0.25613079207E+02  0.37924222430E+02  0.51100000000E-03 0. -1.
        -11    1    3    3    0    0  0.31697673799E+01  0.38181297926E+01 -0.12115843552E+02  0.13092715746E+02  0.51100000000E-03 0.  1.
         12    1    3    3    0    0 -0.12119732851E+02 -0.17602254581E+02 -0.17706305729E+01  0.21444403077E+02  0.00000000000E+00 0. -1.
</event>
<event>
 7    1  0.1874105E-013  0.7246159E+02  0.7816164E-02  0.1226708E+00
        -11   -1    0    0    0    0  0.00000000000E+00  0.00000000000E+00  0.45593999997E+02  0.45594000000E+02  0.51100000000E-03 0. -1.
         11   -1    0    0    0    0 -0.00000000000E+00 -0.00000000000E+00 -0.45593999997E+02  0.45594000000E+02  0.51100000000E-03 0.  1.
    9900012    2    1    2    0    0 -0.24650109832E+01 -0.17270511310E+02  0.68067372909E+01  0.72461587835E+02  0.70000022849E+02 0.  0.
        -12    1    1    2    0    0  0.24650109832E+01  0.17270511310E+02 -0.68067372909E+01  0.18726412165E+02  0.00000000000E+00 0.  1.
         11    1    3    3    0    0 -0.18604434185E+01  0.71539153623E+01 -0.15295963944E+02  0.16988415699E+02  0.51100000000E-03 0.  1.
        -11    1    3    3    0    0 -0.16146844025E+02 -0.24420348068E+02  0.26321268468E+02  0.39368555291E+02  0.51100000000E-03 0. -1.
        -12    1    3    3    0    0  0.15542276460E+02 -0.40786039316E-02 -0.42185672328E+01  0.16104616844E+02  0.00000000000E+00 0.  1.
</event>
<event>
 7    1  0.1874105E-013  0.7246159E+02  0.7816164E-02  0.1226708E+00
        -11   -1    0    0    0    0  0.00000000000E+00  0.00000000000E+00  0.45593999997E+02  0.45594000000E+02  0.51100000000E-03 0.  1.
         11   -1    0    0    0    0 -0.00000000000E+00 -0.00000000000E+00 -0.45593999997E+02  0.45594000000E+02  0.51100000000E-03 0. -1.
    9900012    2    1    2    0    0 -0.54228635105E+01  0.17348283281E+02 -0.45064647155E+01  0.72461585349E+02  0.70000019612E+02 0.  0.
        -12    1    1    2    0    0  0.54228635105E+01 -0.17348283281E+02  0.45064647155E+01  0.18726414651E+02  0.00000000000E+00 0.  1.
         11    1    3    3    0    0 -0.32169459294E+02  0.74978488819E+01 -0.60397742721E+01  0.33579319866E+02  0.51100000000E-03 0. -1.
        -11    1    3    3    0    0  0.18135373530E+02  0.12621457760E+02  0.11922596644E+02  0.25106598337E+02  0.51100000000E-03 0.  1.
         12    1    3    3    0    0  0.86112222531E+01 -0.27710233608E+01 -0.10389287087E+02  0.13775667147E+02  0.00000000000E+00 0. -1.
</event>
<event>
 7    1  0.1874105E-013  0.7246152E+02  0.7816164E-02  0.1226708E+00
        -11   -1    0    0    0    0  0.00000000000E+00  0.00000000000E+00  0.45593999997E+02  0.45594000000E+02  0.51100000000E-03 0.  1.
         11   -1    0    0    0    0 -0.00000000000E+00 -0.00000000000E+00 -0.45593999997E+02  0.45594000000E+02  0.51100000000E-03 0. -1.
    9900012    2    1    2    0    0 -0.78626397799E+00  0.17785688171E+02  0.58079233589E+01  0.72461524397E+02  0.69999940210E+02 0.  0.
        -12    1    1    2    0    0  0.78626397799E+00 -0.17785688171E+02 -0.58079233589E+01  0.18726475603E+02  0.00000000000E+00 0.  1.
         11    1    3    3    0    0 -0.63564956581E+01  0.14217339252E+02 -0.60491473738E+00  0.15585367964E+02  0.51100000000E-03 0. -1.
        -11    1    3    3    0    0  0.36967610317E+01 -0.10604248652E+02  0.28462370941E+02  0.30597756314E+02  0.51100000000E-03 0.  1.
        -12    1    3    3    0    0  0.18734706483E+01  0.14172597571E+02 -0.22049532845E+02  0.26278400119E+02  0.00000000000E+00 0.  1.
</event>
<event>
 7    1  0.1874105E-013  0.7246153E+02  0.7816164E-02  0.1226708E+00
        -11   -1    0    0    0    0  0.00000000000E+00  0.00000000000E+00  0.45593999997E+02  0.45594000000E+02  0.51100000000E-03 0. -1.
         11   -1    0    0    0    0 -0.00000000000E+00 -0.00000000000E+00 -0.45593999997E+02  0.45594000000E+02  0.51100000000E-03 0.  1.
    9900012    2    1    2    0    0  0.10779866074E+02  0.14184645136E+02 -0.57680945366E+01  0.72461532506E+02  0.69999950774E+02 0.  0.
        -12    1    1    2    0    0 -0.10779866074E+02 -0.14184645136E+02  0.57680945366E+01  0.18726467494E+02  0.00000000000E+00 0.  1.
         11    1    3    3    0    0 -0.20769955849E+02  0.22762633656E+02 -0.84205533373E+01  0.31944236972E+02  0.51100000000E-03 0. -1.
        -11    1    3    3    0    0  0.31205272059E+02 -0.69852458434E+01 -0.52875908719E+01  0.32411746038E+02  0.51100000000E-03 0.  1.
        -12    1    3    3    0    0  0.34454986390E+00 -0.15927426763E+01  0.79400496726E+01  0.81055494968E+01  0.00000000000E+00 0.  1.
</event>
<event>
 7    1  0.1874105E-013  0.7246160E+02  0.7816164E-02  0.1226708E+00
        -11   -1    0    0    0    0  0.00000000000E+00  0.00000000000E+00  0.45593999997E+02  0.45594000000E+02  0.51100000000E-03 0.  1.
         11   -1    0    0    0    0 -0.00000000000E+00 -0.00000000000E+00 -0.45593999997E+02  0.45594000000E+02  0.51100000000E-03 0. -1.
    9900012    2    1    2    0    0 -0.10311957696E+02  0.12210816222E+02 -0.97589654982E+01  0.72461603872E+02  0.70000043742E+02 0.  0.
        -12    1    1    2    0    0  0.10311957696E+02 -0.12210816222E+02  0.97589654982E+01  0.18726396128E+02  0.00000000000E+00 0.  1.
         11    1    3    3    0    0 -0.22855177575E+01  0.11028883628E+02 -0.23609493032E+02  0.26158517294E+02  0.51100000000E-03 0. -1.
        -11    1    3    3    0    0  0.11902433771E+02 -0.10673883725E+02  0.16486091315E+02  0.22964993590E+02  0.51100000000E-03 0.  1.
        -12    1    3    3    0    0 -0.19928873709E+02  0.11855816319E+02 -0.26355637806E+01  0.23338092989E+02  0.00000000000E+00 0.  1.
</event>
<event>
 7    1  0.1874105E-013  0.7246156E+02  0.7816164E-02  0.1226708E+00
        -11   -1    0    0    0    0  0.00000000000E+00  0.00000000000E+00  0.45593999997E+02  0.45594000000E+02  0.51100000000E-03 0. -1.
         11   -1    0    0    0    0 -0.00000000000E+00 -0.00000000000E+00 -0.45593999997E+02  0.45594000000E+02  0.51100000000E-03 0.  1.
    9900012    2    1    2    0    0 -0.41746604036E+01  0.66595462812E+01  0.16997121498E+02  0.72461561861E+02  0.69999989014E+02 0.  0.
        -12    1    1    2    0    0  0.41746604036E+01 -0.66595462812E+01 -0.16997121498E+02  0.18726438139E+02  0.00000000000E+00 0.  1.
         11    1    3    3    0    0  0.19411742676E+02 -0.17703153447E+02  0.22615207116E+02  0.34665039865E+02  0.51100000000E-03 0. -1.
        -11    1    3    3    0    0 -0.12656263342E+02  0.31045243942E+01 -0.47730399189E+01  0.13878075653E+02  0.51100000000E-03 0.  1.
         12    1    3    3    0    0 -0.10930139738E+02  0.21258175334E+02 -0.84504569922E+00  0.23918446343E+02  0.00000000000E+00 0. -1.
</event>
<event>
 7    1  0.1874105E-013  0.7246154E+02  0.7816164E-02  0.1226708E+00
        -11   -1    0    0    0    0  0.00000000000E+00  0.00000000000E+00  0.45593999997E+02  0.45594000000E+02  0.51100000000E-03 0.  1.
         11   -1    0    0    0    0 -0.00000000000E+00 -0.00000000000E+00 -0.45593999997E+02  0.45594000000E+02  0.51100000000E-03 0. -1.
    9900012    2    1    2    0    0 -0.10765352616E+02 -0.13079561966E+02 -0.79820044997E+01  0.72461544008E+02  0.69999965757E+02 0.  0.
        -12    1    1    2    0    0  0.10765352616E+02  0.13079561966E+02  0.79820044997E+01  0.18726455992E+02  0.00000000000E+00 0.  1.
         11    1    3    3    0    0 -0.10584243046E+01  0.12551360460E+02  0.18294580785E+02  0.22211451951E+02  0.51100000000E-03 0. -1.
        -11    1    3    3    0    0  0.41669733344E+01 -0.17375466419E+02  0.17007169193E+01  0.17948897970E+02  0.51100000000E-03 0.  1.
         12    1    3    3    0    0 -0.13873901646E+02 -0.82554560073E+01 -0.27977302204E+02  0.32301194086E+02  0.00000000000E+00 0. -1.
</event>
<event>
 7    1  0.1874105E-013  0.7246148E+02  0.7816164E-02  0.1226708E+00
        -11   -1    0    0    0    0  0.00000000000E+00  0.00000000000E+00  0.45593999997E+02  0.45594000000E+02  0.51100000000E-03 0.  1.
         11   -1    0    0    0    0 -0.00000000000E+00 -0.00000000000E+00 -0.45593999997E+02  0.45594000000E+02  0.51100000000E-03 0. -1.
    9900012    2    1    2    0    0 -0.84114762378E+01  0.15011187731E+01 -0.16663615512E+02  0.72461484787E+02  0.69999888611E+02 0.  0.
        -12    1    1    2    0    0  0.84114762378E+01 -0.15011187731E+01  0.16663615512E+02  0.18726515213E+02  0.00000000000E+00 0.  1.
         11    1    3    3    0    0  0.20670629369E+01 -0.71913957955E+01 -0.44769387172E+01  0.87196274697E+01  0.51100000000E-03 0. -1.
        -11    1    3    3    0    0 -0.16063170761E+02  0.27281209162E+02  0.10989153977E+02  0.33511958069E+02  0.51100000000E-03 0.  1.
        -12    1    3    3    0    0  0.55846315860E+01 -0.18588694593E+02 -0.23175830772E+02  0.30229899249E+02  0.00000000000E+00 0.  1.
</event>
<event>
 7    1  0.1874105E-013  0.7246156E+02  0.7816164E-02  0.1226708E+00
        -11   -1    0    0    0    0  0.00000000000E+00  0.00000000000E+00  0.45593999997E+02  0.45594000000E+02  0.51100000000E-03 0. -1.
         11   -1    0    0    0    0 -0.00000000000E+00 -0.00000000000E+00 -0.45593999997E+02  0.45594000000E+02  0.51100000000E-03 0.  1.
    9900012    2    1    2    0    0 -0.16130023063E+02  0.84256574019E+01  0.44170320235E+01  0.72461560975E+02  0.69999987859E+02 0.  0.
        -12    1    1    2    0    0  0.16130023063E+02 -0.84256574019E+01 -0.44170320235E+01  0.18726439025E+02  0.00000000000E+00 0.  1.
         11    1    3    3    0    0 -0.79709330485E+01 -0.74897482650E+00  0.29390867209E+02  0.30461776253E+02  0.51100000000E-03 0. -1.
        -11    1    3    3    0    0  0.56911905536E+01 -0.90536508261E+01 -0.10025185421E+02  0.14658191778E+02  0.51100000000E-03 0.  1.
         12    1    3    3    0    0 -0.13850280568E+02  0.18228283055E+02 -0.14948649764E+02  0.27341592944E+02  0.00000000000E+00 0. -1.
</event>
<event>
 7    1  0.1874105E-013  0.7246154E+02  0.7816164E-02  0.1226708E+00
        -11   -1    0    0    0    0  0.00000000000E+00  0.00000000000E+00  0.45593999997E+02  0.45594000000E+02  0.51100000000E-03 0.  1.
         11   -1    0    0    0    0 -0.00000000000E+00 -0.00000000000E+00 -0.45593999997E+02  0.45594000000E+02  0.51100000000E-03 0. -1.
    9900012    2    1    2    0    0  0.15338705022E+02 -0.72454737235E+01  0.79314325535E+01  0.72461537879E+02  0.69999957773E+02 0.  0.
        -12    1    1    2    0    0 -0.15338705022E+02  0.72454737235E+01 -0.79314325535E+01  0.18726462121E+02  0.00000000000E+00 0.  1.
         11    1    3    3    0    0  0.12954412429E+02 -0.13158928191E+02  0.11574690120E+02  0.21793293559E+02  0.51100000000E-03 0.  1.
        -11    1    3    3    0    0  0.99848697764E+01 -0.46954890987E+00 -0.25105404846E+02  0.27022202971E+02  0.51100000000E-03 0. -1.
        -12    1    3    3    0    0 -0.76005771835E+01  0.63830033773E+01  0.21462147280E+02  0.23646041349E+02  0.00000000000E+00 0.  1.
</event>
<event>
 7    1  0.1874105E-013  0.7246154E+02  0.7816164E-02  0.1226708E+00
        -11   -1    0    0    0    0  0.00000000000E+00  0.00000000000E+00  0.45593999997E+02  0.45594000000E+02  0.51100000000E-03 0.  1.
         11   -1    0    0    0    0 -0.00000000000E+00 -0.00000000000E+00 -0.45593999997E+02  0.45594000000E+02  0.51100000000E-03 0. -1.
    9900012    2    1    2    0    0  0.92031311018E+01  0.15186356088E+02 -0.59461830280E+01  0.72461544758E+02  0.69999966734E+02 0.  0.
        -12    1    1    2    0    0 -0.92031311018E+01 -0.15186356088E+02  0.59461830280E+01  0.18726455242E+02  0.00000000000E+00 0.  1.
         11    1    3    3    0    0  0.30523711963E+02 -0.90275944493E+01 -0.12374758020E+02  0.34151560577E+02  0.51100000000E-03 0. -1.
        -11    1    3    3    0    0 -0.13069680899E+02  0.12192898839E+02  0.13213956144E+02  0.22228179820E+02  0.51100000000E-03 0.  1.
         12    1    3    3    0    0 -0.82508999621E+01  0.12021051699E+02 -0.67853811518E+01  0.16081804361E+02  0.00000000000E+00 0. -1.
</event>
<event>
 7    1  0.1874105E-013  0.7246146E+02  0.7816164E-02  0.1226708E+00
        -11   -1    0    0    0    0  0.00000000000E+00  0.00000000000E+00  0.45593999997E+02  0.45594000000E+02  0.51100000000E-03 0. -1.
         11   -1    0    0    0    0 -0.00000000000E+00 -0.00000000000E+00 -0.45593999997E+02  0.45594000000E+02  0.51100000000E-03 0.  1.
    9900012    2    1    2    0    0  0.10619732004E+02 -0.13974712212E+02 -0.65277979366E+01  0.72461456401E+02  0.69999851633E+02 0.  0.
        -12    1    1    2    0    0 -0.10619732004E+02  0.13974712212E+02  0.65277979366E+01  0.18726543599E+02  0.00000000000E+00 0.  1.
         11    1    3    3    0    0  0.30920445677E+01  0.41810229743E+01 -0.17987343865E+01  0.55024665718E+01  0.51100000000E-03 0. -1.
        -11    1    3    3    0    0  0.18289995873E+02 -0.35015101013E+02  0.11563088411E+02  0.41161708685E+02  0.51100000000E-03 0.  1.
        -12    1    3    3    0    0 -0.10762308436E+02  0.16859365827E+02 -0.16292151961E+02  0.25797281145E+02  0.00000000000E+00 0.  1.
</event>
<event>
 7    1  0.1874105E-013  0.7246148E+02  0.7816164E-02  0.1226708E+00
        -11   -1    0    0    0    0  0.00000000000E+00  0.00000000000E+00  0.45593999997E+02  0.45594000000E+02  0.51100000000E-03 0. -1.
         11   -1    0    0    0    0 -0.00000000000E+00 -0.00000000000E+00 -0.45593999997E+02  0.45594000000E+02  0.51100000000E-03 0.  1.
    9900012    2    1    2    0    0 -0.92909934772E+01  0.89358116621E+01 -0.13583497181E+02  0.72461476417E+02  0.69999877707E+02 0.  0.
        -12    1    1    2    0    0  0.92909934772E+01 -0.89358116621E+01  0.13583497181E+02  0.18726523583E+02  0.00000000000E+00 0.  1.
         11    1    3    3    0    0  0.83259977178E+01  0.15102693654E+02  0.14124692475E+02  0.22291714411E+02  0.51100000000E-03 0. -1.
        -11    1    3    3    0    0 -0.22795867341E+02 -0.17888041229E+02 -0.18278499362E+02  0.34259847140E+02  0.51100000000E-03 0.  1.
        -12    1    3    3    0    0  0.51788761460E+01  0.11721159237E+02 -0.94296902936E+01  0.15909914866E+02  0.00000000000E+00 0.  1.
</event>
<event>
 7    1  0.1874105E-013  0.7246153E+02  0.7816164E-02  0.1226708E+00
        -11   -1    0    0    0    0  0.00000000000E+00  0.00000000000E+00  0.45593999997E+02  0.45594000000E+02  0.51100000000E-03 0.  1.
         11   -1    0    0    0    0 -0.00000000000E+00 -0.00000000000E+00 -0.45593999997E+02  0.45594000000E+02  0.51100000000E-03 0. -1.
    9900012    2    1    2    0    0 -0.10502230623E+02  0.15226978593E+02 -0.29193841344E+01  0.72461534000E+02  0.69999952720E+02 0.  0.
        -12    1    1    2    0    0  0.10502230623E+02 -0.15226978593E+02  0.29193841344E+01  0.18726466000E+02  0.00000000000E+00 0.  1.
         11    1    3    3    0    0  0.66868194888E+01  0.13649722392E+02  0.17361974525E+01  0.15298459338E+02  0.51100000000E-03 0. -1.
        -11    1    3    3    0    0 -0.18811677489E+02 -0.19067759912E+02  0.13161768764E+02  0.29844443960E+02  0.51100000000E-03 0.  1.
        -12    1    3    3    0    0  0.16226273773E+01  0.20645016113E+02 -0.17817350351E+02  0.27318630702E+02  0.00000000000E+00 0.  1.
</event>
<event>
 7    1  0.1874105E-013  0.7246158E+02  0.7816164E-02  0.1226708E+00
        -11   -1    0    0    0    0  0.00000000000E+00  0.00000000000E+00  0.45593999997E+02  0.45594000000E+02  0.51100000000E-03 0.  1.
         11   -1    0    0    0    0 -0.00000000000E+00 -0.00000000000E+00 -0.45593999997E+02  0.45594000000E+02  0.51100000000E-03 0. -1.
    9900012    2    1    2    0    0  0.16432226015E+02  0.57952823077E+01  0.68611686323E+01  0.72461575252E+02  0.70000006459E+02 0.  0.
        -12    1    1    2    0    0 -0.16432226015E+02 -0.57952823077E+01 -0.68611686323E+01  0.18726424748E+02  0.00000000000E+00 0.  1.
         11    1    3    3    0    0 -0.46309799991E+00  0.63951971084E+01 -0.96989968755E+01  0.11626845938E+02  0.51100000000E-03 0. -1.
        -11    1    3    3    0    0  0.16053490154E+02  0.17102499076E+02  0.30365228930E+02  0.38370003244E+02  0.51100000000E-03 0.  1.
        -12    1    3    3    0    0  0.84183386119E+00 -0.17702413877E+02 -0.13805063422E+02  0.22464726070E+02  0.00000000000E+00 0.  1.
</event>
<event>
 8    1  0.1874105E-013  0.7246142E+02  0.7816164E-02  0.1226708E+00
        -11   -1    0    0    0    0  0.00000000000E+00  0.00000000000E+00  0.45593999997E+02  0.45594000000E+02  0.51100000000E-03 0.  1.
         11   -1    0    0    0    0 -0.00000000000E+00 -0.00000000000E+00 -0.45593999997E+02  0.45594000000E+02  0.51100000000E-03 0. -1.
    9900012    2    1    2    0    0  0.14860376876E+02 -0.95163810431E+01 -0.62683714569E+01  0.72461420233E+02  0.69999804517E+02 0.  0.
         24    2    3    3    0    0  0.22730599950E+02 -0.16806762734E+02 -0.13980210576E+02  0.59249208484E+02  0.50158498487E+02 0.  0.
        -12    1    1    2    0    0 -0.14860376876E+02  0.95163810431E+01  0.62683714569E+01  0.18726579767E+02  0.00000000000E+00 0.  1.
         11    1    3    3    0    0 -0.78702230748E+01  0.72903816909E+01  0.77118391192E+01  0.13212211749E+02  0.51100000000E-03 0.  1.
        -11    1    4    4    0    0  0.20328382348E+02 -0.25274412606E+02 -0.27897548683E+02  0.42782149131E+02  0.51100000000E-03 0. -1.
         12    1    4    4    0    0  0.24022176021E+01  0.84676498719E+01  0.13917338107E+02  0.16467059353E+02  0.00000000000E+00 0. -1.
</event>
<event>
 7    1  0.1874105E-013  0.7246159E+02  0.7816164E-02  0.1226708E+00
        -11   -1    0    0    0    0  0.00000000000E+00  0.00000000000E+00  0.45593999997E+02  0.45594000000E+02  0.51100000000E-03 0.  1.
         11   -1    0    0    0    0 -0.00000000000E+00 -0.00000000000E+00 -0.45593999997E+02  0.45594000000E+02  0.51100000000E-03 0. -1.
    9900012    2    1    2    0    0 -0.23980762105E+01 -0.18423305733E+02 -0.23472625596E+01  0.72461585363E+02  0.70000019629E+02 0.  0.
        -12    1    1    2    0    0  0.23980762105E+01  0.18423305733E+02  0.23472625596E+01  0.18726414637E+02  0.00000000000E+00 0.  1.
         11    1    3    3    0    0  0.91805040510E+01 -0.33581360464E+01  0.17690219675E+02  0.20211447369E+02  0.51100000000E-03 0. -1.
        -11    1    3    3    0    0 -0.26320623654E+02 -0.19017396511E+02 -0.99776960924E+01  0.33970443317E+02  0.51100000000E-03 0.  1.
         12    1    3    3    0    0  0.14742043392E+02  0.39522268243E+01 -0.10059786142E+02  0.18279694677E+02  0.00000000000E+00 0. -1.
</event>
<event>
 7    1  0.1874105E-013  0.7246157E+02  0.7816164E-02  0.1226708E+00
        -11   -1    0    0    0    0  0.00000000000E+00  0.00000000000E+00  0.45593999997E+02  0.45594000000E+02  0.51100000000E-03 0.  1.
         11   -1    0    0    0    0 -0.00000000000E+00 -0.00000000000E+00 -0.45593999997E+02  0.45594000000E+02  0.51100000000E-03 0. -1.
    9900012    2    1    2    0    0  0.10521679307E+02  0.78743082562E+01 -0.13340488691E+02  0.72461572031E+02  0.70000002263E+02 0.  0.
        -12    1    1    2    0    0 -0.10521679307E+02 -0.78743082562E+01  0.13340488691E+02  0.18726427969E+02  0.00000000000E+00 0.  1.
         11    1    3    3    0    0 -0.75333361991E+01 -0.23423203566E+01 -0.29343624548E+02  0.30385620297E+02  0.51100000000E-03 0. -1.
        -11    1    3    3    0    0  0.22993400083E+02 -0.34596566714E+01  0.14627333043E+02  0.27470430354E+02  0.51100000000E-03 0.  1.
        -12    1    3    3    0    0 -0.49383845765E+01  0.13676285284E+02  0.13758028142E+01  0.14605521380E+02  0.00000000000E+00 0.  1.
</event>
<event>
 7    1  0.1874105E-013  0.7246159E+02  0.7816164E-02  0.1226708E+00
        -11   -1    0    0    0    0  0.00000000000E+00  0.00000000000E+00  0.45593999997E+02  0.45594000000E+02  0.51100000000E-03 0.  1.
         11   -1    0    0    0    0 -0.00000000000E+00 -0.00000000000E+00 -0.45593999997E+02  0.45594000000E+02  0.51100000000E-03 0. -1.
    9900012    2    1    2    0    0  0.12401899204E+02  0.95789666556E+01 -0.10252555589E+02  0.72461585443E+02  0.70000019734E+02 0.  0.
        -12    1    1    2    0    0 -0.12401899204E+02 -0.95789666556E+01  0.10252555589E+02  0.18726414557E+02  0.00000000000E+00 0.  1.
         11    1    3    3    0    0  0.12550564564E+02  0.11235640762E+00 -0.24009005235E+02  0.27091726181E+02  0.51100000000E-03 0. -1.
        -11    1    3    3    0    0 -0.57736934303E+01 -0.10735021224E+02  0.20059852645E+02  0.23472833338E+02  0.51100000000E-03 0.  1.
        -12    1    3    3    0    0  0.56250280711E+01  0.20201631472E+02 -0.63034029987E+01  0.21897025924E+02  0.00000000000E+00 0.  1.
</event>
<event>
 7    1  0.1874105E-013  0.7246156E+02  0.7816164E-02  0.1226708E+00
        -11   -1    0    0    0    0  0.00000000000E+00  0.00000000000E+00  0.45593999997E+02  0.45594000000E+02  0.51100000000E-03 0.  1.
         11   -1    0    0    0    0 -0.00000000000E+00 -0.00000000000E+00 -0.45593999997E+02  0.45594000000E+02  0.51100000000E-03 0. -1.
    9900012    2    1    2    0    0  0.14829712381E+02  0.42216251697E+01 -0.10627186968E+02  0.72461559034E+02  0.69999985332E+02 0.  0.
        -12    1    1    2    0    0 -0.14829712381E+02 -0.42216251697E+01  0.10627186968E+02  0.18726440966E+02  0.00000000000E+00 0.  1.
         11    1    3    3    0    0 -0.24843092859E+01  0.83786776848E+01 -0.38339133710E+02  0.39322553405E+02  0.51100000000E-03 0.  1.
        -11    1    3    3    0    0  0.13846728148E+02 -0.45991567337E+01  0.23555232760E+02  0.27707997288E+02  0.51100000000E-03 0. -1.
        -12    1    3    3    0    0  0.34672935186E+01  0.44210421855E+00  0.41567139813E+01  0.54310083416E+01  0.00000000000E+00 0.  1.
</event>
<event>
 7    1  0.1874105E-013  0.7246155E+02  0.7816164E-02  0.1226708E+00
        -11   -1    0    0    0    0  0.00000000000E+00  0.00000000000E+00  0.45593999997E+02  0.45594000000E+02  0.51100000000E-03 0. -1.
         11   -1    0    0    0    0 -0.00000000000E+00 -0.00000000000E+00 -0.45593999997E+02  0.45594000000E+02  0.51100000000E-03 0.  1.
    9900012    2    1    2    0    0 -0.17829691061E+02  0.52204771612E+01  0.23512945312E+01  0.72461552096E+02  0.69999976294E+02 0.  0.
        -12    1    1    2    0    0  0.17829691061E+02 -0.52204771612E+01 -0.23512945312E+01  0.18726447904E+02  0.00000000000E+00 0.  1.
         11    1    3    3    0    0 -0.16274767035E+02 -0.44507092107E+01  0.32206197583E+02  0.36358163011E+02  0.51100000000E-03 0. -1.
        -11    1    3    3    0    0 -0.63124632370E+01  0.65430491111E+01 -0.28942564519E+02  0.30336953126E+02  0.51100000000E-03 0.  1.
        -12    1    3    3    0    0  0.47575392113E+01  0.31281372608E+01 -0.91233853272E+00  0.57664359589E+01  0.00000000000E+00 0.  1.
</event>
<event>
 7    1  0.1874105E-013  0.7246160E+02  0.7816164E-02  0.1226708E+00
        -11   -1    0    0    0    0  0.00000000000E+00  0.00000000000E+00  0.45593999997E+02  0.45594000000E+02  0.51100000000E-03 0. -1.
         11   -1    0    0    0    0 -0.00000000000E+00 -0.00000000000E+00 -0.45593999997E+02  0.45594000000E+02  0.51100000000E-03 0.  1.
    9900012    2    1    2    0    0  0.63981108800E+01  0.13002923860E+02  0.11860280690E+02  0.72461598590E+02  0.70000036860E+02 0.  0.
        -12    1    1    2    0    0 -0.63981108800E+01 -0.13002923860E+02 -0.11860280690E+02  0.18726401410E+02  0.00000000000E+00 0.  1.
         11    1    3    3    0    0 -0.36927074843E+01  0.39616689906E+00  0.32661653257E+01  0.49457934624E+01  0.51100000000E-03 0. -1.
        -11    1    3    3    0    0  0.33794954143E+02  0.22715839604E+01 -0.10398225352E+02  0.35431371832E+02  0.51100000000E-03 0.  1.
        -12    1    3    3    0    0 -0.23704135778E+02  0.10335173001E+02  0.18992340716E+02  0.32084433295E+02  0.00000000000E+00 0.  1.
</event>
<event>
 7    1  0.1874105E-013  0.7246156E+02  0.7816164E-02  0.1226708E+00
        -11   -1    0    0    0    0  0.00000000000E+00  0.00000000000E+00  0.45593999997E+02  0.45594000000E+02  0.51100000000E-03 0.  1.
         11   -1    0    0    0    0 -0.00000000000E+00 -0.00000000000E+00 -0.45593999997E+02  0.45594000000E+02  0.51100000000E-03 0. -1.
    9900012    2    1    2    0    0 -0.37863366529E+01 -0.16400029581E+02 -0.82086684143E+01  0.72461560065E+02  0.69999986675E+02 0.  0.
        -12    1    1    2    0    0  0.37863366529E+01  0.16400029581E+02  0.82086684143E+01  0.18726439935E+02  0.00000000000E+00 0.  1.
         11    1    3    3    0    0  0.12469042762E+02 -0.58141601530E+01 -0.29554057228E+02  0.32599444544E+02  0.51100000000E-03 0. -1.
        -11    1    3    3    0    0 -0.14091188903E+02 -0.66438839229E+01 -0.23399285438E+01  0.15753668275E+02  0.51100000000E-03 0.  1.
         12    1    3    3    0    0 -0.21641905123E+01 -0.39419855047E+01  0.23685317357E+02  0.24108447246E+02  0.00000000000E+00 0. -1.
</event>
<event>
 7    1  0.1874105E-013  0.7246148E+02  0.7816164E-02  0.1226708E+00
        -11   -1    0    0    0    0  0.00000000000E+00  0.00000000000E+00  0.45593999997E+02  0.45594000000E+02  0.51100000000E-03 0.  1.
         11   -1    0    0    0    0 -0.00000000000E+00 -0.00000000000E+00 -0.45593999997E+02  0.45594000000E+02  0.51100000000E-03 0. -1.
    9900012    2    1    2    0    0  0.74452452982E+01 -0.54388511456E+01 -0.16299375008E+02  0.72461483907E+02  0.69999887464E+02 0.  0.
        -12    1    1    2    0    0 -0.74452452982E+01  0.54388511456E+01  0.16299375008E+02  0.18726516093E+02  0.00000000000E+00 0.  1.
         11    1    3    3    0    0  0.73394895520E+01 -0.51277281069E+01 -0.85195989236E+01  0.12359015677E+02  0.51100000000E-03 0.  1.
        -11    1    3    3    0    0 -0.25712524043E+02  0.11739051493E+02 -0.13040951378E+02  0.31128855355E+02  0.51100000000E-03 0. -1.
        -12    1    3    3    0    0  0.25818279789E+02 -0.12050174531E+02  0.52611752940E+01  0.28973612874E+02  0.00000000000E+00 0.  1.
</event>
<event>
 7    1  0.1874105E-013  0.7246163E+02  0.7816164E-02  0.1226708E+00
        -11   -1    0    0    0    0  0.00000000000E+00  0.00000000000E+00  0.45593999997E+02  0.45594000000E+02  0.51100000000E-03 0.  1.
         11   -1    0    0    0    0 -0.00000000000E+00 -0.00000000000E+00 -0.45593999997E+02  0.45594000000E+02  0.51100000000E-03 0. -1.
    9900012    2    1    2    0    0  0.18545529799E+02 -0.10712868639E+01 -0.23648883652E+01  0.72461627472E+02  0.70000074484E+02 0.  0.
        -12    1    1    2    0    0 -0.18545529799E+02  0.10712868639E+01  0.23648883652E+01  0.18726372528E+02  0.00000000000E+00 0.  1.
         11    1    3    3    0    0  0.41894009993E+00  0.28362275688E+02  0.88523508165E+01  0.29714614389E+02  0.51100000000E-03 0.  1.
        -11    1    3    3    0    0  0.21092604739E+02 -0.26439657131E+02 -0.35633379202E+01  0.34009569555E+02  0.51100000000E-03 0. -1.
         12    1    3    3    0    0 -0.29660150401E+01 -0.29939054210E+01 -0.76539012616E+01  0.87374435283E+01  0.00000000000E+00 0. -1.
</event>
<event>
 7    1  0.1874105E-013  0.7246160E+02  0.7816164E-02  0.1226708E+00
        -11   -1    0    0    0    0  0.00000000000E+00  0.00000000000E+00  0.45593999997E+02  0.45594000000E+02  0.51100000000E-03 0.  1.
         11   -1    0    0    0    0 -0.00000000000E+00 -0.00000000000E+00 -0.45593999997E+02  0.45594000000E+02  0.51100000000E-03 0. -1.
    9900012    2    1    2    0    0  0.61651655524E+01  0.14379443257E+02 -0.10290798349E+02  0.72461596572E+02  0.70000034232E+02 0.  0.
        -12    1    1    2    0    0 -0.61651655524E+01 -0.14379443257E+02  0.10290798349E+02  0.18726403428E+02  0.00000000000E+00 0.  1.
         11    1    3    3    0    0 -0.16652575953E+02 -0.52701556615E+01  0.14141328500E+02  0.22473539966E+02  0.51100000000E-03 0. -1.
        -11    1    3    3    0    0  0.16759927300E+02  0.72675924147E-02  0.15804559612E+01  0.16834282201E+02  0.51100000000E-03 0.  1.
         12    1    3    3    0    0  0.60578142054E+01  0.19642331326E+02 -0.26012582810E+02  0.33153774406E+02  0.00000000000E+00 0. -1.
</event>
<event>
 7    1  0.1874105E-013  0.7246089E+02  0.7816164E-02  0.1226710E+00
        -11   -1    0    0    0    0  0.00000000000E+00  0.00000000000E+00  0.45593999997E+02  0.45594000000E+02  0.51100000000E-03 0.  1.
         11   -1    0    0    0    0 -0.00000000000E+00 -0.00000000000E+00 -0.45593999997E+02  0.45594000000E+02  0.51100000000E-03 0. -1.
    9900012    2    1    2    0    0 -0.42864084770E+01 -0.88298519513E+01 -0.15948831177E+02  0.72460885994E+02  0.69999108565E+02 0.  0.
        -12    1    1    2    0    0  0.42864084770E+01  0.88298519513E+01  0.15948831177E+02  0.18727114006E+02  0.00000000000E+00 0.  1.
         11    1    3    3    0    0 -0.14666455515E+02 -0.99004899763E+01 -0.37516403981E+02  0.41480178243E+02  0.51100000000E-03 0. -1.
        -11    1    3    3    0    0  0.15158576757E+02  0.26641055569E+01  0.99740379416E+01  0.18340156510E+02  0.51100000000E-03 0.  1.
         12    1    3    3    0    0 -0.47785297187E+01 -0.15934675319E+01  0.11593534863E+02  0.12640551240E+02  0.00000000000E+00 0. -1.
</event>
<event>
 7    1  0.1980651E-013  0.7246169E+02  0.7816164E-02  0.1226708E+00
        -11   -1    0    0    0    0  0.00000000000E+00  0.00000000000E+00  0.45593999997E+02  0.45594000000E+02  0.51100000000E-03 0. -1.
         11   -1    0    0    0    0 -0.00000000000E+00 -0.00000000000E+00 -0.45593999997E+02  0.45594000000E+02  0.51100000000E-03 0.  1.
    9900012    2    1    2    0    0 -0.18679574508E+02 -0.13171210952E+01  0.11549555642E+00  0.72461690941E+02  0.70000157164E+02 0.  0.
        -12    1    1    2    0    0  0.18679574508E+02  0.13171210952E+01 -0.11549555642E+00  0.18726309059E+02  0.00000000000E+00 0.  1.
         11    1    3    3    0    0 -0.17779882323E+02  0.49347164552E+01  0.24516353021E+02  0.30684315336E+02  0.51100000000E-03 0. -1.
        -11    1    3    3    0    0  0.16023279818E+02 -0.34616673855E+01 -0.88685309750E+01  0.18638118980E+02  0.51100000000E-03 0.  1.
        -12    1    3    3    0    0 -0.16922972002E+02 -0.27901701649E+01 -0.15532326490E+02  0.23139256624E+02  0.00000000000E+00 0.  1.
</event>
<event>
 7    1  0.2056763E-013  0.7246152E+02  0.7816164E-02  0.1226708E+00
        -11   -1    0    0    0    0  0.00000000000E+00  0.00000000000E+00  0.45593999997E+02  0.45594000000E+02  0.51100000000E-03 0. -1.
         11   -1    0    0    0    0 -0.00000000000E+00 -0.00000000000E+00 -0.45593999997E+02  0.45594000000E+02  0.51100000000E-03 0.  1.
    9900012    2    1    2    0    0 -0.51973738121E+00  0.71605948271E+01  0.17295570411E+02  0.72461521392E+02  0.69999936295E+02 0.  0.
        -12    1    1    2    0    0  0.51973738121E+00 -0.71605948271E+01 -0.17295570411E+02  0.18726478608E+02  0.00000000000E+00 0.  1.
         11    1    3    3    0    0 -0.25236897708E+02 -0.60368294822E+01  0.21494525164E+02  0.33695087601E+02  0.51100000000E-03 0. -1.
        -11    1    3    3    0    0  0.81535875029E+01 -0.16286690344E+01 -0.12520716720E+02  0.15030033248E+02  0.51100000000E-03 0.  1.
         12    1    3    3    0    0  0.16563572824E+02  0.14826093344E+02  0.83217619664E+01  0.23736400543E+02  0.00000000000E+00 0. -1.
</event>
<event>
 7    1  0.1874105E-013  0.7246124E+02  0.7816164E-02  0.1226709E+00
        -11   -1    0    0    0    0  0.00000000000E+00  0.00000000000E+00  0.45593999997E+02  0.45594000000E+02  0.51100000000E-03 0.  1.
         11   -1    0    0    0    0 -0.00000000000E+00 -0.00000000000E+00 -0.45593999997E+02  0.45594000000E+02  0.51100000000E-03 0. -1.
    9900012    2    1    2    0    0  0.13221191493E+02 -0.13005974133E+02  0.25954685435E+01  0.72461235074E+02  0.69999563311E+02 0.  0.
        -12    1    1    2    0    0 -0.13221191493E+02  0.13005974133E+02 -0.25954685435E+01  0.18726764926E+02  0.00000000000E+00 0.  1.
         11    1    3    3    0    0 -0.15961117692E+02  0.14788110862E+02  0.12529826963E+02  0.25108605394E+02  0.51100000000E-03 0. -1.
        -11    1    3    3    0    0  0.28228917854E+02 -0.23125333354E+02 -0.17516365372E+00  0.36492239291E+02  0.51100000000E-03 0.  1.
         12    1    3    3    0    0  0.95339133054E+00 -0.46687516418E+01 -0.97591947655E+01  0.10860390389E+02  0.00000000000E+00 0. -1.
</event>
<event>
 7    1  0.1874105E-013  0.7246148E+02  0.7816164E-02  0.1226708E+00
        -11   -1    0    0    0    0  0.00000000000E+00  0.00000000000E+00  0.45593999997E+02  0.45594000000E+02  0.51100000000E-03 0.  1.
         11   -1    0    0    0    0 -0.00000000000E+00 -0.00000000000E+00 -0.45593999997E+02  0.45594000000E+02  0.51100000000E-03 0. -1.
    9900012    2    1    2    0    0  0.18447834539E+02 -0.16346846534E+01 -0.27726661394E+01  0.72461482155E+02  0.69999885182E+02 0.  0.
        -12    1    1    2    0    0 -0.18447834539E+02  0.16346846534E+01  0.27726661394E+01  0.18726517845E+02  0.00000000000E+00 0.  1.
         11    1    3    3    0    0  0.60314016011E+01  0.14315012612E+02 -0.18662553205E+02  0.24281439079E+02  0.51100000000E-03 0. -1.
        -11    1    3    3    0    0  0.23304737177E+02 -0.41420808055E+01  0.20667295546E+02  0.31422996575E+02  0.51100000000E-03 0.  1.
        -12    1    3    3    0    0 -0.10888304240E+02 -0.11807616459E+02 -0.47774084798E+01  0.16757046502E+02  0.00000000000E+00 0.  1.
</event>
<event>
 7    1  0.1874105E-013  0.7246157E+02  0.7816164E-02  0.1226708E+00
        -11   -1    0    0    0    0  0.00000000000E+00  0.00000000000E+00  0.45593999997E+02  0.45594000000E+02  0.51100000000E-03 0. -1.
         11   -1    0    0    0    0 -0.00000000000E+00 -0.00000000000E+00 -0.45593999997E+02  0.45594000000E+02  0.51100000000E-03 0.  1.
    9900012    2    1    2    0    0 -0.74820176423E+01 -0.87303949913E+01 -0.14781028594E+02  0.72461569721E+02  0.69999999253E+02 0.  0.
        -12    1    1    2    0    0  0.74820176423E+01  0.87303949913E+01  0.14781028594E+02  0.18726430279E+02  0.00000000000E+00 0.  1.
         11    1    3    3    0    0  0.13919787620E+02  0.13024599284E+02  0.32194179306E+01  0.19333011301E+02  0.51100000000E-03 0. -1.
        -11    1    3    3    0    0 -0.26833576816E+02 -0.16549417843E+02  0.21695387951E+01  0.31601122995E+02  0.51100000000E-03 0.  1.
        -12    1    3    3    0    0  0.54317715540E+01 -0.52055764320E+01 -0.20169985320E+02  0.21527435426E+02  0.00000000000E+00 0.  1.
</event>
<event>
 7    1  0.1874105E-013  0.7246155E+02  0.7816164E-02  0.1226708E+00
        -11   -1    0    0    0    0  0.00000000000E+00  0.00000000000E+00  0.45593999997E+02  0.45594000000E+02  0.51100000000E-03 0.  1.
         11   -1    0    0    0    0 -0.00000000000E+00 -0.00000000000E+00 -0.45593999997E+02  0.45594000000E+02  0.51100000000E-03 0. -1.
    9900012    2    1    2    0    0 -0.18489629100E+02 -0.28576108061E+01 -0.80462599072E+00  0.72461554882E+02  0.69999979923E+02 0.  0.
        -12    1    1    2    0    0  0.18489629100E+02  0.28576108061E+01  0.80462599072E+00  0.18726445118E+02  0.00000000000E+00 0.  1.
         11    1    3    3    0    0 -0.35743762706E+01  0.12329345472E+02  0.90380757165E+01  0.15699545803E+02  0.51100000000E-03 0. -1.
        -11    1    3    3    0    0  0.66152609999E+01 -0.16725612914E+02 -0.24702029325E+02  0.30556473266E+02  0.51100000000E-03 0.  1.
        -12    1    3    3    0    0 -0.21530513829E+02  0.15386566358E+01  0.14859327618E+02  0.26205535813E+02  0.00000000000E+00 0.  1.
</event>
<event>
 7    1  0.1874105E-013  0.7246160E+02  0.7816164E-02  0.1226708E+00
        -11   -1    0    0    0    0  0.00000000000E+00  0.00000000000E+00  0.45593999997E+02  0.45594000000E+02  0.51100000000E-03 0. -1.
         11   -1    0    0    0    0 -0.00000000000E+00 -0.00000000000E+00 -0.45593999997E+02  0.45594000000E+02  0.51100000000E-03 0.  1.
    9900012    2    1    2    0    0  0.21892437144E+01  0.15380417356E+02  0.10456008846E+02  0.72461597594E+02  0.70000035562E+02 0.  0.
        -12    1    1    2    0    0 -0.21892437144E+01 -0.15380417356E+02 -0.10456008846E+02  0.18726402406E+02  0.00000000000E+00 0.  1.
         11    1    3    3    0    0  0.37869328929E+00 -0.99667269579E+01 -0.26068063240E+02  0.27910983075E+02  0.51100000000E-03 0.  1.
        -11    1    3    3    0    0  0.14478357420E+01  0.13469802936E+02  0.21203635726E+02  0.25161994908E+02  0.51100000000E-03 0. -1.
        -12    1    3    3    0    0  0.36271468315E+00  0.11877341378E+02  0.15320436361E+02  0.19388619611E+02  0.00000000000E+00 0.  1.
</event>
<event>
 7    1  0.1874105E-013  0.7246156E+02  0.7816164E-02  0.1226708E+00
        -11   -1    0    0    0    0  0.00000000000E+00  0.00000000000E+00  0.45593999997E+02  0.45594000000E+02  0.51100000000E-03 0. -1.
         11   -1    0    0    0    0 -0.00000000000E+00 -0.00000000000E+00 -0.45593999997E+02  0.45594000000E+02  0.51100000000E-03 0.  1.
    9900012    2    1    2    0    0 -0.53917045721E+01 -0.87360714259E+01  0.15661736457E+02  0.72461563847E+02  0.69999991601E+02 0.  0.
        -12    1    1    2    0    0  0.53917045721E+01  0.87360714259E+01 -0.15661736457E+02  0.18726436153E+02  0.00000000000E+00 0.  1.
         11    1    3    3    0    0  0.16454982065E+02  0.70563823615E+01  0.72530777412E+01  0.19317507701E+02  0.51100000000E-03 0. -1.
        -11    1    3    3    0    0 -0.27807955329E+02 -0.87653238948E+01 -0.11392706361E+02  0.31303466917E+02  0.51100000000E-03 0.  1.
        -12    1    3    3    0    0  0.59612686921E+01 -0.70271298926E+01  0.19801365077E+02  0.21840589229E+02  0.00000000000E+00 0.  1.
</event>
<event>
 7    1  0.1874105E-013  0.7246157E+02  0.7816164E-02  0.1226708E+00
        -11   -1    0    0    0    0  0.00000000000E+00  0.00000000000E+00  0.45593999997E+02  0.45594000000E+02  0.51100000000E-03 0. -1.
         11   -1    0    0    0    0 -0.00000000000E+00 -0.00000000000E+00 -0.45593999997E+02  0.45594000000E+02  0.51100000000E-03 0.  1.
    9900012    2    1    2    0    0 -0.16460432850E+02 -0.19508266186E+01  0.87136384217E+01  0.72461572987E+02  0.70000003508E+02 0.  0.
        -12    1    1    2    0    0  0.16460432850E+02  0.19508266186E+01 -0.87136384217E+01  0.18726427013E+02  0.00000000000E+00 0.  1.
         11    1    3    3    0    0 -0.89246701324E+01  0.18818455167E+01  0.35788709243E+02  0.36932679148E+02  0.51100000000E-03 0. -1.
        -11    1    3    3    0    0 -0.14704291195E+02 -0.50697042277E+01 -0.16319472667E+02  0.22544251350E+02  0.51100000000E-03 0.  1.
         12    1    3    3    0    0  0.71685284771E+01  0.12370320923E+01 -0.10755598154E+02  0.12984642489E+02  0.00000000000E+00 0. -1.
</event>
<event>
 7    1  0.1874105E-013  0.7246158E+02  0.7816164E-02  0.1226708E+00
        -11   -1    0    0    0    0  0.00000000000E+00  0.00000000000E+00  0.45593999997E+02  0.45594000000E+02  0.51100000000E-03 0.  1.
         11   -1    0    0    0    0 -0.00000000000E+00 -0.00000000000E+00 -0.45593999997E+02  0.45594000000E+02  0.51100000000E-03 0. -1.
    9900012    2    1    2    0    0 -0.11298578774E+02  0.38091193928E+01 -0.14439934159E+02  0.72461575585E+02  0.70000006892E+02 0.  0.
        -12    1    1    2    0    0  0.11298578774E+02 -0.38091193928E+01  0.14439934159E+02  0.18726424415E+02  0.00000000000E+00 0.  1.
         11    1    3    3    0    0 -0.14402957791E+02 -0.86648253347E+01 -0.21049482570E+02  0.26937058265E+02  0.51100000000E-03 0. -1.
        -11    1    3    3    0    0  0.20780407366E+02  0.12622127430E+02 -0.43876914709E+01  0.24706178738E+02  0.51100000000E-03 0.  1.
        -12    1    3    3    0    0 -0.17676028349E+02 -0.14818270246E+00  0.10997239883E+02  0.20818338582E+02  0.00000000000E+00 0.  1.
</event>
<event>
 7    1  0.1874105E-013  0.7246155E+02  0.7816164E-02  0.1226708E+00
        -11   -1    0    0    0    0  0.00000000000E+00  0.00000000000E+00  0.45593999997E+02  0.45594000000E+02  0.51100000000E-03 0.  1.
         11   -1    0    0    0    0 -0.00000000000E+00 -0.00000000000E+00 -0.45593999997E+02  0.45594000000E+02  0.51100000000E-03 0. -1.
    9900012    2    1    2    0    0 -0.66890178183E+01  0.17487912029E+02 -0.33140901963E+00  0.72461551900E+02  0.69999976037E+02 0.  0.
        -12    1    1    2    0    0  0.66890178183E+01 -0.17487912029E+02  0.33140901963E+00  0.18726448100E+02  0.00000000000E+00 0.  1.
         11    1    3    3    0    0 -0.26188054497E+02  0.11027027657E+02  0.70000741678E+01  0.29264493433E+02  0.51100000000E-03 0. -1.
        -11    1    3    3    0    0  0.24196218398E+01 -0.41524804502E+01 -0.19237138236E+02  0.19828392560E+02  0.51100000000E-03 0.  1.
        -12    1    3    3    0    0  0.17079414839E+02  0.10613364823E+02  0.11905655049E+02  0.23368665906E+02  0.00000000000E+00 0.  1.
</event>
<event>
 7    1  0.1874105E-013  0.7246158E+02  0.7816164E-02  0.1226708E+00
        -11   -1    0    0    0    0  0.00000000000E+00  0.00000000000E+00  0.45593999997E+02  0.45594000000E+02  0.51100000000E-03 0. -1.
         11   -1    0    0    0    0 -0.00000000000E+00 -0.00000000000E+00 -0.45593999997E+02  0.45594000000E+02  0.51100000000E-03 0.  1.
    9900012    2    1    2    0    0  0.14346791989E+02 -0.46526746536E+01  0.11099602227E+02  0.72461575050E+02  0.70000006196E+02 0.  0.
        -12    1    1    2    0    0 -0.14346791989E+02  0.46526746536E+01 -0.11099602227E+02  0.18726424950E+02  0.00000000000E+00 0.  1.
         11    1    3    3    0    0  0.20661106147E+02 -0.18664981562E+02  0.14803904634E+02  0.31534400843E+02  0.51100000000E-03 0. -1.
        -11    1    3    3    0    0 -0.23977475551E+01  0.43822385306E+01 -0.20540902950E+02  0.21139581409E+02  0.51100000000E-03 0.  1.
        -12    1    3    3    0    0 -0.39165666026E+01  0.96300683774E+01  0.16836600543E+02  0.19787592798E+02  0.00000000000E+00 0.  1.
</event>
<event>
 7    1  0.1874105E-013  0.7246155E+02  0.7816164E-02  0.1226708E+00
        -11   -1    0    0    0    0  0.00000000000E+00  0.00000000000E+00  0.45593999997E+02  0.45594000000E+02  0.51100000000E-03 0.  1.
         11   -1    0    0    0    0 -0.00000000000E+00 -0.00000000000E+00 -0.45593999997E+02  0.45594000000E+02  0.51100000000E-03 0. -1.
    9900012    2    1    2    0    0  0.58473174566E+01  0.72859959543E+01 -0.16229692902E+02  0.72461553723E+02  0.69999978413E+02 0.  0.
        -12    1    1    2    0    0 -0.58473174566E+01 -0.72859959543E+01  0.16229692902E+02  0.18726446277E+02  0.00000000000E+00 0.  1.
         11    1    3    3    0    0 -0.11983275608E+02  0.89303264379E+01  0.18181107263E+02  0.23535128769E+02  0.51100000000E-03 0. -1.
        -11    1    3    3    0    0  0.10550942925E+02 -0.13968629412E+02 -0.88138442312E+01  0.19599205460E+02  0.51100000000E-03 0.  1.
         12    1    3    3    0    0  0.72796501393E+01  0.12324298929E+02 -0.25596955934E+02  0.29327219495E+02  0.00000000000E+00 0. -1.
</event>
<event>
 7    1  0.1874105E-013  0.7246160E+02  0.7816164E-02  0.1226708E+00
        -11   -1    0    0    0    0  0.00000000000E+00  0.00000000000E+00  0.45593999997E+02  0.45594000000E+02  0.51100000000E-03 0.  1.
         11   -1    0    0    0    0 -0.00000000000E+00 -0.00000000000E+00 -0.45593999997E+02  0.45594000000E+02  0.51100000000E-03 0. -1.
    9900012    2    1    2    0    0  0.12133402977E+02  0.11217080446E+02 -0.88111200193E+01  0.72461596247E+02  0.70000033808E+02 0.  0.
        -12    1    1    2    0    0 -0.12133402977E+02 -0.11217080446E+02  0.88111200193E+01  0.18726403753E+02  0.00000000000E+00 0.  1.
         11    1    3    3    0    0  0.92817622202E+01  0.19803097251E+02 -0.29098509938E+02  0.36401058385E+02  0.51100000000E-03 0. -1.
        -11    1    3    3    0    0  0.41985080645E+01 -0.17650705805E+01  0.26407866781E+02  0.26797730730E+02  0.51100000000E-03 0.  1.
        -12    1    3    3    0    0 -0.13468673080E+01 -0.68209462248E+01 -0.61204768623E+01  0.92628071322E+01  0.00000000000E+00 0.  1.
</event>
<event>
 7    1  0.1874105E-013  0.7246157E+02  0.7816164E-02  0.1226708E+00
        -11   -1    0    0    0    0  0.00000000000E+00  0.00000000000E+00  0.45593999997E+02  0.45594000000E+02  0.51100000000E-03 0.  1.
         11   -1    0    0    0    0 -0.00000000000E+00 -0.00000000000E+00 -0.45593999997E+02  0.45594000000E+02  0.51100000000E-03 0. -1.
    9900012    2    1    2    0    0  0.11708834722E+02 -0.14098415654E+02 -0.38492796424E+01  0.72461572464E+02  0.70000002826E+02 0.  0.
        -12    1    1    2    0    0 -0.11708834722E+02  0.14098415654E+02  0.38492796424E+01  0.18726427536E+02  0.00000000000E+00 0.  1.
         11    1    3    3    0    0 -0.18018943328E+02 -0.20358716339E+02  0.55082608221E-01  0.27187546487E+02  0.51100000000E-03 0. -1.
        -11    1    3    3    0    0  0.46851868029E+01  0.17154875006E+02 -0.10203918539E+01  0.17812408923E+02  0.51100000000E-03 0.  1.
         12    1    3    3    0    0  0.25042591247E+02 -0.10894574320E+02 -0.28839703968E+01  0.27461617054E+02  0.00000000000E+00 0. -1.
</event>
<event>
 7    1  0.1874105E-013  0.7246155E+02  0.7816164E-02  0.1226708E+00
        -11   -1    0    0    0    0  0.00000000000E+00  0.00000000000E+00  0.45593999997E+02  0.45594000000E+02  0.51100000000E-03 0. -1.
         11   -1    0    0    0    0 -0.00000000000E+00 -0.00000000000E+00 -0.45593999997E+02  0.45594000000E+02  0.51100000000E-03 0.  1.
    9900012    2    1    2    0    0  0.16909332630E+02  0.79020431438E+01  0.15205086719E+01  0.72461554463E+02  0.69999979377E+02 0.  0.
        -12    1    1    2    0    0 -0.16909332630E+02 -0.79020431438E+01 -0.15205086719E+01  0.18726445537E+02  0.00000000000E+00 0.  1.
         11    1    3    3    0    0 -0.49837202452E+01  0.43816354672E+01  0.17629664367E+02  0.18837230763E+02  0.51100000000E-03 0. -1.
        -11    1    3    3    0    0  0.23171411678E+02  0.59604113443E+01 -0.30617343503E+02  0.38856949777E+02  0.51100000000E-03 0.  1.
        -12    1    3    3    0    0 -0.12783588033E+01 -0.24400036677E+01  0.14508187808E+02  0.14767373923E+02  0.00000000000E+00 0.  1.
</event>
<event>
 7    1  0.1874105E-013  0.7246152E+02  0.7816164E-02  0.1226708E+00
        -11   -1    0    0    0    0  0.00000000000E+00  0.00000000000E+00  0.45593999997E+02  0.45594000000E+02  0.51100000000E-03 0.  1.
         11   -1    0    0    0    0 -0.00000000000E+00 -0.00000000000E+00 -0.45593999997E+02  0.45594000000E+02  0.51100000000E-03 0. -1.
    9900012    2    1    2    0    0  0.57472494683E+01 -0.26517740739E+01 -0.17624365691E+02  0.72461520134E+02  0.69999934656E+02 0.  0.
        -12    1    1    2    0    0 -0.57472494683E+01  0.26517740739E+01  0.17624365691E+02  0.18726479866E+02  0.00000000000E+00 0.  1.
         11    1    3    3    0    0  0.83063154693E+00 -0.11375273296E+02 -0.93966723742E+01  0.14777829451E+02  0.51100000000E-03 0. -1.
        -11    1    3    3    0    0  0.18562691785E+02  0.27927375381E+02 -0.46180006266E+01  0.33850225287E+02  0.51100000000E-03 0.  1.
        -12    1    3    3    0    0 -0.13646073864E+02 -0.19203876158E+02 -0.36096926898E+01  0.23833465395E+02  0.00000000000E+00 0.  1.
</event>
<event>
 7    1  0.1874105E-013  0.7246145E+02  0.7816164E-02  0.1226708E+00
        -11   -1    0    0    0    0  0.00000000000E+00  0.00000000000E+00  0.45593999997E+02  0.45594000000E+02  0.51100000000E-03 0.  1.
         11   -1    0    0    0    0 -0.00000000000E+00 -0.00000000000E+00 -0.45593999997E+02  0.45594000000E+02  0.51100000000E-03 0. -1.
    9900012    2    1    2    0    0 -0.68574727902E+01 -0.13794216573E+02 -0.10647931831E+02  0.72461446761E+02  0.69999839075E+02 0.  0.
        -12    1    1    2    0    0  0.68574727902E+01  0.13794216573E+02  0.10647931831E+02  0.18726553239E+02  0.00000000000E+00 0.  1.
         11    1    3    3    0    0 -0.78442509931E+01  0.59031697267E+01  0.18364846322E+02  0.20824199076E+02  0.51100000000E-03 0.  1.
        -11    1    3    3    0    0  0.18440265627E+02 -0.91025167522E+01 -0.72726749116E+01  0.21812634143E+02  0.51100000000E-03 0. -1.
         12    1    3    3    0    0 -0.17453487424E+02 -0.10594869548E+02 -0.21740103241E+02  0.29824613542E+02  0.00000000000E+00 0. -1.
</event>
<event>
 7    1  0.1874105E-013  0.7246138E+02  0.7816164E-02  0.1226709E+00
        -11   -1    0    0    0    0  0.00000000000E+00  0.00000000000E+00  0.45593999997E+02  0.45594000000E+02  0.51100000000E-03 0. -1.
         11   -1    0    0    0    0 -0.00000000000E+00 -0.00000000000E+00 -0.45593999997E+02  0.45594000000E+02  0.51100000000E-03 0.  1.
    9900012    2    1    2    0    0  0.43273345447E+01  0.66710382988E+00  0.18207565805E+02  0.72461379795E+02  0.69999751838E+02 0.  0.
        -12    1    1    2    0    0 -0.43273345447E+01 -0.66710382988E+00 -0.18207565805E+02  0.18726620205E+02  0.00000000000E+00 0.  1.
         11    1    3    3    0    0  0.20020389034E+01 -0.15464558437E+02 -0.14370948070E+01  0.15659692499E+02  0.51100000000E-03 0. -1.
        -11    1    3    3    0    0 -0.54364275399E+01  0.32625473686E+02  0.19844513125E+02  0.38571764013E+02  0.51100000000E-03 0.  1.
        -12    1    3    3    0    0  0.77617231813E+01 -0.16493811419E+02 -0.19985251325E+00  0.18229923283E+02  0.00000000000E+00 0.  1.
</event>
<event>
 7    1  0.1874105E-013  0.7246157E+02  0.7816164E-02  0.1226708E+00
        -11   -1    0    0    0    0  0.00000000000E+00  0.00000000000E+00  0.45593999997E+02  0.45594000000E+02  0.51100000000E-03 0.  1.
         11   -1    0    0    0    0 -0.00000000000E+00 -0.00000000000E+00 -0.45593999997E+02  0.45594000000E+02  0.51100000000E-03 0. -1.
    9900012    2    1    2    0    0  0.99687620753E+01  0.15348507960E+02 -0.39656323807E+01  0.72461570706E+02  0.70000000537E+02 0.  0.
        -12    1    1    2    0    0 -0.99687620753E+01 -0.15348507960E+02  0.39656323807E+01  0.18726429294E+02  0.00000000000E+00 0.  1.
         11    1    3    3    0    0 -0.16385241131E+02  0.33267808400E+02 -0.22649575548E+01  0.37153105330E+02  0.51100000000E-03 0. -1.
        -11    1    3    3    0    0  0.21733823809E+02 -0.17738484377E+02 -0.63370531376E+01  0.28760583584E+02  0.51100000000E-03 0.  1.
         12    1    3    3    0    0  0.46201793976E+01 -0.18081606315E+00  0.46363783117E+01  0.65478817921E+01  0.00000000000E+00 0. -1.
</event>
<event>
 7    1  0.1874105E-013  0.7246157E+02  0.7816164E-02  0.1226708E+00
        -11   -1    0    0    0    0  0.00000000000E+00  0.00000000000E+00  0.45593999997E+02  0.45594000000E+02  0.51100000000E-03 0.  1.
         11   -1    0    0    0    0 -0.00000000000E+00 -0.00000000000E+00 -0.45593999997E+02  0.45594000000E+02  0.51100000000E-03 0. -1.
    9900012    2    1    2    0    0 -0.15930442509E+01 -0.89686971355E+01 -0.16361660904E+02  0.72461567723E+02  0.69999996650E+02 0.  0.
        -12    1    1    2    0    0  0.15930442509E+01  0.89686971355E+01  0.16361660904E+02  0.18726432277E+02  0.00000000000E+00 0.  1.
         11    1    3    3    0    0  0.16679223969E+02 -0.19654804864E+02  0.64237498171E+00  0.25786052670E+02  0.51100000000E-03 0. -1.
        -11    1    3    3    0    0 -0.67768531352E+01  0.20627943027E+02  0.26027296200E+01  0.21868058297E+02  0.51100000000E-03 0.  1.
         12    1    3    3    0    0 -0.11495415084E+02 -0.99418352985E+01 -0.19606765506E+02  0.24807456755E+02  0.00000000000E+00 0. -1.
</event>
<event>
 7    1  0.1874105E-013  0.7246155E+02  0.7816164E-02  0.1226708E+00
        -11   -1    0    0    0    0  0.00000000000E+00  0.00000000000E+00  0.45593999997E+02  0.45594000000E+02  0.51100000000E-03 0.  1.
         11   -1    0    0    0    0 -0.00000000000E+00 -0.00000000000E+00 -0.45593999997E+02  0.45594000000E+02  0.51100000000E-03 0. -1.
    9900012    2    1    2    0    0  0.79419076395E+01  0.13526709931E+02 -0.10229075443E+02  0.72461554450E+02  0.69999979360E+02 0.  0.
        -12    1    1    2    0    0 -0.79419076395E+01 -0.13526709931E+02  0.10229075443E+02  0.18726445550E+02  0.00000000000E+00 0.  1.
         11    1    3    3    0    0 -0.25113087169E+02  0.11043808316E+02  0.60689875293E+01  0.28097427982E+02  0.51100000000E-03 0. -1.
        -11    1    3    3    0    0  0.22472416587E+02 -0.43665158410E+01  0.10534966553E+01  0.22916933113E+02  0.51100000000E-03 0.  1.
         12    1    3    3    0    0  0.10582578221E+02  0.68494174560E+01 -0.17351559628E+02  0.21447193355E+02  0.00000000000E+00 0. -1.
</event>
<event>
 7    1  0.1874105E-013  0.7246157E+02  0.7816164E-02  0.1226708E+00
        -11   -1    0    0    0    0  0.00000000000E+00  0.00000000000E+00  0.45593999997E+02  0.45594000000E+02  0.51100000000E-03 0. -1.
         11   -1    0    0    0    0 -0.00000000000E+00 -0.00000000000E+00 -0.45593999997E+02  0.45594000000E+02  0.51100000000E-03 0.  1.
    9900012    2    1    2    0    0 -0.11376135442E+02  0.14747348514E+02 -0.19438222064E+01  0.72461569733E+02  0.69999999269E+02 0.  0.
        -12    1    1    2    0    0  0.11376135442E+02 -0.14747348514E+02  0.19438222064E+01  0.18726430267E+02  0.00000000000E+00 0.  1.
         11    1    3    3    0    0 -0.16300255686E+02 -0.90696146236E+01  0.15369425988E+02  0.24169722802E+02  0.51100000000E-03 0. -1.
        -11    1    3    3    0    0  0.14790661360E+02  0.29454137018E+01 -0.20001256904E+02  0.25049738588E+02  0.51100000000E-03 0.  1.
        -12    1    3    3    0    0 -0.98665411152E+01  0.20871549436E+02  0.26880087098E+01  0.23242108343E+02  0.00000000000E+00 0.  1.
</event>
<event>
 7    1  0.1874105E-013  0.7246153E+02  0.7816164E-02  0.1226708E+00
        -11   -1    0    0    0    0  0.00000000000E+00  0.00000000000E+00  0.45593999997E+02  0.45594000000E+02  0.51100000000E-03 0. -1.
         11   -1    0    0    0    0 -0.00000000000E+00 -0.00000000000E+00 -0.45593999997E+02  0.45594000000E+02  0.51100000000E-03 0.  1.
    9900012    2    1    2    0    0 -0.13898183805E+02  0.11208416551E+02  0.56473375708E+01  0.72461533801E+02  0.69999952460E+02 0.  0.
        -12    1    1    2    0    0  0.13898183805E+02 -0.11208416551E+02 -0.56473375708E+01  0.18726466199E+02  0.00000000000E+00 0.  1.
         11    1    3    3    0    0  0.62883137398E+01  0.12060129483E+02 -0.12185013383E+02  0.18261001184E+02  0.51100000000E-03 0. -1.
        -11    1    3    3    0    0 -0.12881185982E+02 -0.14750719318E+02  0.28956855782E+02  0.34957233439E+02  0.51100000000E-03 0.  1.
        -12    1    3    3    0    0 -0.73053115630E+01  0.13899006387E+02 -0.11124504828E+02  0.19243299178E+02  0.00000000000E+00 0.  1.
</event>
<event>
 7    1  0.1874105E-013  0.7246155E+02  0.7816164E-02  0.1226708E+00
        -11   -1    0    0    0    0  0.00000000000E+00  0.00000000000E+00  0.45593999997E+02  0.45594000000E+02  0.51100000000E-03 0.  1.
         11   -1    0    0    0    0 -0.00000000000E+00 -0.00000000000E+00 -0.45593999997E+02  0.45594000000E+02  0.51100000000E-03 0. -1.
    9900012    2    1    2    0    0  0.14666045958E+02 -0.34068148911E+01 -0.11134666113E+02  0.72461545952E+02  0.69999968290E+02 0.  0.
        -12    1    1    2    0    0 -0.14666045958E+02  0.34068148911E+01  0.11134666113E+02  0.18726454048E+02  0.00000000000E+00 0.  1.
         11    1    3    3    0    0 -0.12030540853E+02  0.13935639550E+02 -0.15581084915E+02  0.24118585578E+02  0.51100000000E-03 0. -1.
        -11    1    3    3    0    0  0.11970803801E+01 -0.19692121482E+02  0.10033045046E+02  0.22133111915E+02  0.51100000000E-03 0.  1.
         12    1    3    3    0    0  0.25499506432E+02  0.23496670411E+01 -0.55866262432E+01  0.26209848459E+02  0.00000000000E+00 0. -1.
</event>
<event>
 7    1  0.1874105E-013  0.7246153E+02  0.7816164E-02  0.1226708E+00
        -11   -1    0    0    0    0  0.00000000000E+00  0.00000000000E+00  0.45593999997E+02  0.45594000000E+02  0.51100000000E-03 0.  1.
         11   -1    0    0    0    0 -0.00000000000E+00 -0.00000000000E+00 -0.45593999997E+02  0.45594000000E+02  0.51100000000E-03 0. -1.
    9900012    2    1    2    0    0  0.39774090454E+01  0.52305950105E+01 -0.17535723792E+02  0.72461534349E+02  0.69999953175E+02 0.  0.
        -12    1    1    2    0    0 -0.39774090454E+01 -0.52305950105E+01  0.17535723792E+02  0.18726465651E+02  0.00000000000E+00 0.  1.
         11    1    3    3    0    0 -0.13087729699E+02  0.23748575502E+01 -0.27306877783E+02  0.30374235654E+02  0.51100000000E-03 0. -1.
        -11    1    3    3    0    0  0.28011006531E+02 -0.27770589213E+01  0.97128946461E+01  0.29776985505E+02  0.51100000000E-03 0.  1.
         12    1    3    3    0    0 -0.10945867786E+02  0.56327963816E+01  0.58259345579E-01  0.12310313189E+02  0.00000000000E+00 0. -1.
</event>
<event>
 7    1  0.1874105E-013  0.7246152E+02  0.7816164E-02  0.1226708E+00
        -11   -1    0    0    0    0  0.00000000000E+00  0.00000000000E+00  0.45593999997E+02  0.45594000000E+02  0.51100000000E-03 0.  1.
         11   -1    0    0    0    0 -0.00000000000E+00 -0.00000000000E+00 -0.45593999997E+02  0.45594000000E+02  0.51100000000E-03 0. -1.
    9900012    2    1    2    0    0 -0.31755015841E+00  0.14364720465E+02 -0.12009788424E+02  0.72461520082E+02  0.69999934589E+02 0.  0.
        -12    1    1    2    0    0  0.31755015841E+00 -0.14364720465E+02  0.12009788424E+02  0.18726479918E+02  0.00000000000E+00 0.  1.
         11    1    3    3    0    0 -0.18045882704E+02  0.12654656507E+02  0.46417600630E+01  0.22524212542E+02  0.51100000000E-03 0. -1.
        -11    1    3    3    0    0  0.14394052760E+02 -0.17980465214E+02 -0.18961561004E+02  0.29833314937E+02  0.51100000000E-03 0.  1.
         12    1    3    3    0    0  0.33342797860E+01  0.19690529172E+02  0.23100125166E+01  0.20103992603E+02  0.00000000000E+00 0. -1.
</event>
<event>
 7    1  0.1874105E-013  0.7246159E+02  0.7816164E-02  0.1226708E+00
        -11   -1    0    0    0    0  0.00000000000E+00  0.00000000000E+00  0.45593999997E+02  0.45594000000E+02  0.51100000000E-03 0. -1.
         11   -1    0    0    0    0 -0.00000000000E+00 -0.00000000000E+00 -0.45593999997E+02  0.45594000000E+02  0.51100000000E-03 0.  1.
    9900012    2    1    2    0    0 -0.23230871286E+01 -0.13654915534E+02 -0.12602578331E+02  0.72461589969E+02  0.70000025630E+02 0.  0.
        -12    1    1    2    0    0  0.23230871286E+01  0.13654915534E+02  0.12602578331E+02  0.18726410031E+02  0.00000000000E+00 0.  1.
         11    1    3    3    0    0  0.30411305841E+02 -0.80322775417E+01 -0.11343827470E+02  0.33437216203E+02  0.51100000000E-03 0. -1.
        -11    1    3    3    0    0 -0.48687713520E+01 -0.96727817426E+01 -0.86028075690E+00  0.10863136028E+02  0.51100000000E-03 0.  1.
         12    1    3    3    0    0 -0.27865621618E+02  0.40501437501E+01 -0.39847010444E+00  0.28161237738E+02  0.00000000000E+00 0. -1.
</event>
<event>
 7    1  0.1874105E-013  0.7246163E+02  0.7816164E-02  0.1226708E+00
        -11   -1    0    0    0    0  0.00000000000E+00  0.00000000000E+00  0.45593999997E+02  0.45594000000E+02  0.51100000000E-03 0. -1.
         11   -1    0    0    0    0 -0.00000000000E+00 -0.00000000000E+00 -0.45593999997E+02  0.45594000000E+02  0.51100000000E-03 0.  1.
    9900012    2    1    2    0    0 -0.18628776881E+00 -0.16322920322E+02  0.91763031587E+01  0.72461629005E+02  0.70000076481E+02 0.  0.
        -12    1    1    2    0    0  0.18628776881E+00  0.16322920322E+02 -0.91763031587E+01  0.18726370995E+02  0.00000000000E+00 0.  1.
         11    1    3    3    0    0  0.17795823979E+02 -0.68669121757E+01  0.15399069190E+02  0.24514835633E+02  0.51100000000E-03 0. -1.
        -11    1    3    3    0    0 -0.10841876973E+02 -0.14957958361E+01 -0.24464957039E+02  0.26801451913E+02  0.51100000000E-03 0.  1.
        -12    1    3    3    0    0 -0.71402347747E+01 -0.79602123107E+01  0.18242191007E+02  0.21145341459E+02  0.00000000000E+00 0.  1.
</event>
<event>
 7    1  0.1874105E-013  0.7246180E+02  0.7816164E-02  0.1226707E+00
        -11   -1    0    0    0    0  0.00000000000E+00  0.00000000000E+00  0.45593999997E+02  0.45594000000E+02  0.51100000000E-03 0. -1.
         11   -1    0    0    0    0 -0.00000000000E+00 -0.00000000000E+00 -0.45593999997E+02  0.45594000000E+02  0.51100000000E-03 0.  1.
    9900012    2    1    2    0    0  0.13388782767E+02  0.10057460116E+02  0.83820311850E+01  0.72461802983E+02  0.70000303119E+02 0.  0.
        -12    1    1    2    0    0 -0.13388782767E+02 -0.10057460116E+02 -0.83820311850E+01  0.18726197017E+02  0.00000000000E+00 0.  1.
         11    1    3    3    0    0 -0.88439093763E+01  0.32463338843E+02  0.67365951465E+01  0.34314207209E+02  0.51100000000E-03 0.  1.
        -11    1    3    3    0    0  0.17190451936E+02 -0.18055386279E+02 -0.82151577434E+01  0.26248760512E+02  0.51100000000E-03 0. -1.
        -12    1    3    3    0    0  0.50422402069E+01 -0.43504924491E+01  0.98605937819E+01  0.11898835262E+02  0.00000000000E+00 0.  1.
</event>
<event>
 7    1  0.1874105E-013  0.7246157E+02  0.7816164E-02  0.1226708E+00
        -11   -1    0    0    0    0  0.00000000000E+00  0.00000000000E+00  0.45593999997E+02  0.45594000000E+02  0.51100000000E-03 0.  1.
         11   -1    0    0    0    0 -0.00000000000E+00 -0.00000000000E+00 -0.45593999997E+02  0.45594000000E+02  0.51100000000E-03 0. -1.
    9900012    2    1    2    0    0  0.46522948915E+01 -0.16476358986E+02  0.75871634013E+01  0.72461566766E+02  0.69999995404E+02 0.  0.
        -12    1    1    2    0    0 -0.46522948915E+01  0.16476358986E+02 -0.75871634013E+01  0.18726433234E+02  0.00000000000E+00 0.  1.
         11    1    3    3    0    0  0.23165021573E+02 -0.18390570891E+02  0.64006202291E+01  0.30262175430E+02  0.51100000000E-03 0. -1.
        -11    1    3    3    0    0 -0.19669940089E+02  0.70816002579E+01 -0.14632251522E+02  0.25517805355E+02  0.51100000000E-03 0.  1.
         12    1    3    3    0    0  0.11572134066E+01 -0.51673883529E+01  0.15818794694E+02  0.16681585981E+02  0.00000000000E+00 0. -1.
</event>
<event>
 7    1  0.1874105E-013  0.7246158E+02  0.7816164E-02  0.1226708E+00
        -11   -1    0    0    0    0  0.00000000000E+00  0.00000000000E+00  0.45593999997E+02  0.45594000000E+02  0.51100000000E-03 0.  1.
         11   -1    0    0    0    0 -0.00000000000E+00 -0.00000000000E+00 -0.45593999997E+02  0.45594000000E+02  0.51100000000E-03 0. -1.
    9900012    2    1    2    0    0 -0.13085469430E+02  0.11128291319E+02 -0.74572482424E+01  0.72461576710E+02  0.70000008358E+02 0.  0.
        -12    1    1    2    0    0  0.13085469430E+02 -0.11128291319E+02  0.74572482424E+01  0.18726423290E+02  0.00000000000E+00 0.  1.
         11    1    3    3    0    0 -0.17240784449E+02  0.14013040360E+02 -0.15024410372E+02  0.26820567776E+02  0.51100000000E-03 0. -1.
        -11    1    3    3    0    0  0.11910325686E+02  0.61943071483E+01  0.22695245783E+02  0.26368532011E+02  0.51100000000E-03 0.  1.
        -12    1    3    3    0    0 -0.77550106665E+01 -0.90790561887E+01 -0.15128083653E+02  0.19272476923E+02  0.00000000000E+00 0.  1.
</event>
<event>
 7    1  0.1874105E-013  0.7246148E+02  0.7816164E-02  0.1226708E+00
        -11   -1    0    0    0    0  0.00000000000E+00  0.00000000000E+00  0.45593999997E+02  0.45594000000E+02  0.51100000000E-03 0. -1.
         11   -1    0    0    0    0 -0.00000000000E+00 -0.00000000000E+00 -0.45593999997E+02  0.45594000000E+02  0.51100000000E-03 0.  1.
    9900012    2    1    2    0    0 -0.13402366077E+01  0.16759214430E+02  0.82471209708E+01  0.72461481189E+02  0.69999883924E+02 0.  0.
        -12    1    1    2    0    0  0.13402366077E+01 -0.16759214430E+02 -0.82471209708E+01  0.18726518811E+02  0.00000000000E+00 0.  1.
         11    1    3    3    0    0 -0.15371637708E+02  0.46238821604E+01  0.26247077503E+02  0.30766485171E+02  0.51100000000E-03 0. -1.
        -11    1    3    3    0    0 -0.44196035620E+01 -0.80718035480E+01 -0.90447400043E+01  0.12903264322E+02  0.51100000000E-03 0.  1.
         12    1    3    3    0    0  0.18451004662E+02  0.20207135817E+02 -0.89552165283E+01  0.28791731696E+02  0.00000000000E+00 0. -1.
</event>
<event>
 7    1  0.1874105E-013  0.7246157E+02  0.7816164E-02  0.1226708E+00
        -11   -1    0    0    0    0  0.00000000000E+00  0.00000000000E+00  0.45593999997E+02  0.45594000000E+02  0.51100000000E-03 0.  1.
         11   -1    0    0    0    0 -0.00000000000E+00 -0.00000000000E+00 -0.45593999997E+02  0.45594000000E+02  0.51100000000E-03 0. -1.
    9900012    2    1    2    0    0 -0.67515683105E+01  0.17437130004E+02  0.10207537479E+01  0.72461571733E+02  0.70000001874E+02 0.  0.
        -12    1    1    2    0    0  0.67515683105E+01 -0.17437130004E+02 -0.10207537479E+01  0.18726428267E+02  0.00000000000E+00 0.  1.
         11    1    3    3    0    0 -0.14705837204E+02 -0.18274158419E+02 -0.17719625443E+02  0.29397136593E+02  0.51100000000E-03 0. -1.
        -11    1    3    3    0    0  0.57500761035E+01  0.61527569151E+01  0.77715844562E+01  0.11459376862E+02  0.51100000000E-03 0.  1.
         12    1    3    3    0    0  0.22041927898E+01  0.29558531508E+02  0.10968794735E+02  0.31605058277E+02  0.00000000000E+00 0. -1.
</event>
<event>
 7    1  0.1874105E-013  0.7246157E+02  0.7816164E-02  0.1226708E+00
        -11   -1    0    0    0    0  0.00000000000E+00  0.00000000000E+00  0.45593999997E+02  0.45594000000E+02  0.51100000000E-03 0.  1.
         11   -1    0    0    0    0 -0.00000000000E+00 -0.00000000000E+00 -0.45593999997E+02  0.45594000000E+02  0.51100000000E-03 0. -1.
    9900012    2    1    2    0    0 -0.89007042205E+01 -0.51832831385E+01 -0.15639382239E+02  0.72461568505E+02  0.69999997669E+02 0.  0.
        -12    1    1    2    0    0  0.89007042205E+01  0.51832831385E+01  0.15639382239E+02  0.18726431495E+02  0.00000000000E+00 0.  1.
         11    1    3    3    0    0 -0.31945352346E+02 -0.73713437440E+01 -0.29756380423E+02  0.44275099337E+02  0.51100000000E-03 0. -1.
        -11    1    3    3    0    0  0.82194166363E+01  0.23142208059E+01  0.13983823471E+01  0.86527395216E+01  0.51100000000E-03 0.  1.
         12    1    3    3    0    0  0.14825231489E+02 -0.12616020042E+00  0.12718615837E+02  0.19533729647E+02  0.00000000000E+00 0. -1.
</event>
<event>
 7    1  0.1874105E-013  0.7246154E+02  0.7816164E-02  0.1226708E+00
        -11   -1    0    0    0    0  0.00000000000E+00  0.00000000000E+00  0.45593999997E+02  0.45594000000E+02  0.51100000000E-03 0. -1.
         11   -1    0    0    0    0 -0.00000000000E+00 -0.00000000000E+00 -0.45593999997E+02  0.45594000000E+02  0.51100000000E-03 0.  1.
    9900012    2    1    2    0    0 -0.54594214720E+01  0.17248201938E+02  0.48347382103E+01  0.72461536199E+02  0.69999955585E+02 0.  0.
        -12    1    1    2    0    0  0.54594214720E+01 -0.17248201938E+02 -0.48347382103E+01  0.18726463801E+02  0.00000000000E+00 0.  1.
         11    1    3    3    0    0  0.19837290195E+02  0.61497318302E+01  0.14899193075E+02  0.25560188545E+02  0.51100000000E-03 0. -1.
        -11    1    3    3    0    0 -0.27881912599E+02  0.17450138689E+01  0.55831529123E+01  0.28488905214E+02  0.51100000000E-03 0.  1.
         12    1    3    3    0    0  0.25852009320E+01  0.93534562392E+01 -0.15647607777E+02  0.18412442441E+02  0.00000000000E+00 0. -1.
</event>
<event>
 7    1  0.1874105E-013  0.7246156E+02  0.7816164E-02  0.1226708E+00
        -11   -1    0    0    0    0  0.00000000000E+00  0.00000000000E+00  0.45593999997E+02  0.45594000000E+02  0.51100000000E-03 0.  1.
         11   -1    0    0    0    0 -0.00000000000E+00 -0.00000000000E+00 -0.45593999997E+02  0.45594000000E+02  0.51100000000E-03 0. -1.
    9900012    2    1    2    0    0 -0.10790523490E+02  0.12685440616E+02 -0.85629288499E+01  0.72461560101E+02  0.69999986722E+02 0.  0.
        -12    1    1    2    0    0  0.10790523490E+02 -0.12685440616E+02  0.85629288499E+01  0.18726439899E+02  0.00000000000E+00 0.  1.
         11    1    3    3    0    0  0.66192558150E+01  0.21600181363E+02  0.13829411941E+02  0.26488394012E+02  0.51100000000E-03 0.  1.
        -11    1    3    3    0    0  0.48370817272E+01 -0.68066402835E+01 -0.22099779434E+02  0.23624732017E+02  0.51100000000E-03 0. -1.
        -12    1    3    3    0    0 -0.22246861032E+02 -0.21081004633E+01 -0.29256135679E+00  0.22348434072E+02  0.00000000000E+00 0.  1.
</event>
<event>
 7    1  0.1874105E-013  0.7246155E+02  0.7816164E-02  0.1226708E+00
        -11   -1    0    0    0    0  0.00000000000E+00  0.00000000000E+00  0.45593999997E+02  0.45594000000E+02  0.51100000000E-03 0.  1.
         11   -1    0    0    0    0 -0.00000000000E+00 -0.00000000000E+00 -0.45593999997E+02  0.45594000000E+02  0.51100000000E-03 0. -1.
    9900012    2    1    2    0    0 -0.13541352329E+02 -0.12934717457E+02 -0.70419386485E-01  0.72461545518E+02  0.69999967724E+02 0.  0.
        -12    1    1    2    0    0  0.13541352329E+02  0.12934717457E+02  0.70419386485E-01  0.18726454482E+02  0.00000000000E+00 0.  1.
         11    1    3    3    0    0 -0.23976901987E+02  0.30912524632E+01  0.45123597130E+01  0.24592866062E+02  0.51100000000E-03 0.  1.
        -11    1    3    3    0    0  0.16834196390E+02 -0.14914476984E+02  0.15134900123E+02  0.27108983637E+02  0.51100000000E-03 0. -1.
         12    1    3    3    0    0 -0.63986467328E+01 -0.11114929359E+01 -0.19717679223E+02  0.20759695819E+02  0.00000000000E+00 0. -1.
</event>
<event>
 7    1  0.1874105E-013  0.7246176E+02  0.7816164E-02  0.1226708E+00
        -11   -1    0    0    0    0  0.00000000000E+00  0.00000000000E+00  0.45593999997E+02  0.45594000000E+02  0.51100000000E-03 0. -1.
         11   -1    0    0    0    0 -0.00000000000E+00 -0.00000000000E+00 -0.45593999997E+02  0.45594000000E+02  0.51100000000E-03 0.  1.
    9900012    2    1    2    0    0  0.44566114833E+00 -0.12850042243E+02  0.13614321909E+02  0.72461762777E+02  0.70000250744E+02 0.  0.
        -12    1    1    2    0    0 -0.44566114833E+00  0.12850042243E+02 -0.13614321909E+02  0.18726237223E+02  0.00000000000E+00 0.  1.
         11    1    3    3    0    0 -0.17776793401E+01 -0.70723518942E+01  0.17873597609E+02  0.19303983965E+02  0.51100000000E-03 0. -1.
        -11    1    3    3    0    0  0.20181220500E+01 -0.77511715274E+00 -0.28410704440E+02  0.28492836823E+02  0.51100000000E-03 0.  1.
        -12    1    3    3    0    0  0.20521843840E+00 -0.50025731962E+01  0.24151428739E+02  0.24664941989E+02  0.00000000000E+00 0.  1.
</event>
<event>
 7    1  0.1874105E-013  0.7246156E+02  0.7816164E-02  0.1226708E+00
        -11   -1    0    0    0    0  0.00000000000E+00  0.00000000000E+00  0.45593999997E+02  0.45594000000E+02  0.51100000000E-03 0.  1.
         11   -1    0    0    0    0 -0.00000000000E+00 -0.00000000000E+00 -0.45593999997E+02  0.45594000000E+02  0.51100000000E-03 0. -1.
    9900012    2    1    2    0    0  0.14401771403E+02  0.98428429139E+01 -0.68108022481E+01  0.72461558709E+02  0.69999984908E+02 0.  0.
        -12    1    1    2    0    0 -0.14401771403E+02 -0.98428429139E+01  0.68108022481E+01  0.18726441291E+02  0.00000000000E+00 0.  1.
         11    1    3    3    0    0  0.13007761917E+02  0.29465335242E+02  0.20695973181E+02  0.38284868515E+02  0.51100000000E-03 0.  1.
        -11    1    3    3    0    0  0.16819600755E+00 -0.14930822691E+02 -0.17140064929E+02  0.22731906699E+02  0.51100000000E-03 0. -1.
        -12    1    3    3    0    0  0.12258134786E+01 -0.46916696371E+01 -0.10366710500E+02  0.11444783496E+02  0.00000000000E+00 0.  1.
</event>
<event>
 7    1  0.1874105E-013  0.7246155E+02  0.7816164E-02  0.1226708E+00
        -11   -1    0    0    0    0  0.00000000000E+00  0.00000000000E+00  0.45593999997E+02  0.45594000000E+02  0.51100000000E-03 0.  1.
         11   -1    0    0    0    0 -0.00000000000E+00 -0.00000000000E+00 -0.45593999997E+02  0.45594000000E+02  0.51100000000E-03 0. -1.
    9900012    2    1    2    0    0  0.79677218756E+01  0.16079927850E+02 -0.53508050462E+01  0.72461553829E+02  0.69999978551E+02 0.  0.
        -12    1    1    2    0    0 -0.79677218756E+01 -0.16079927850E+02  0.53508050462E+01  0.18726446171E+02  0.00000000000E+00 0.  1.
         11    1    3    3    0    0 -0.93463956456E+01  0.11080253096E+02 -0.96294342344E+01  0.17402675776E+02  0.51100000000E-03 0. -1.
        -11    1    3    3    0    0  0.23508393771E+02  0.23804029210E+02  0.91217088239E+01  0.34676821602E+02  0.51100000000E-03 0.  1.
        -12    1    3    3    0    0 -0.61942762495E+01 -0.18804354457E+02 -0.48430796356E+01  0.20382056450E+02  0.00000000000E+00 0.  1.
</event>
<event>
 7    1  0.1874105E-013  0.7246141E+02  0.7816164E-02  0.1226708E+00
        -11   -1    0    0    0    0  0.00000000000E+00  0.00000000000E+00  0.45593999997E+02  0.45594000000E+02  0.51100000000E-03 0.  1.
         11   -1    0    0    0    0 -0.00000000000E+00 -0.00000000000E+00 -0.45593999997E+02  0.45594000000E+02  0.51100000000E-03 0. -1.
    9900012    2    1    2    0    0 -0.99419766090E+01  0.84059663255E+00 -0.15847254830E+02  0.72461414960E+02  0.69999797648E+02 0.  0.
        -12    1    1    2    0    0  0.99419766090E+01 -0.84059663255E+00  0.15847254830E+02  0.18726585040E+02  0.00000000000E+00 0.  1.
         11    1    3    3    0    0 -0.10096788259E+02 -0.23951299129E+02 -0.55031753391E+01  0.26568680851E+02  0.51100000000E-03 0. -1.
        -11    1    3    3    0    0 -0.95631941784E+01  0.31454705125E+02 -0.66269555120E+01  0.33537586333E+02  0.51100000000E-03 0.  1.
        -12    1    3    3    0    0  0.97180058281E+01 -0.66628093643E+01 -0.37171239792E+01  0.12355147776E+02  0.00000000000E+00 0.  1.
</event>
<event>
 7    1  0.1874105E-013  0.7246164E+02  0.7816164E-02  0.1226708E+00
        -11   -1    0    0    0    0  0.00000000000E+00  0.00000000000E+00  0.45593999997E+02  0.45594000000E+02  0.51100000000E-03 0.  1.
         11   -1    0    0    0    0 -0.00000000000E+00 -0.00000000000E+00 -0.45593999997E+02  0.45594000000E+02  0.51100000000E-03 0. -1.
    9900012    2    1    2    0    0 -0.64431001609E+01  0.48405555623E+01 -0.16903609045E+02  0.72461641129E+02  0.70000092275E+02 0.  0.
        -12    1    1    2    0    0  0.64431001609E+01 -0.48405555623E+01  0.16903609045E+02  0.18726358871E+02  0.00000000000E+00 0.  1.
         11    1    3    3    0    0 -0.10538336549E+02 -0.53445551407E+01 -0.38553997867E+02  0.40324081622E+02  0.51100000000E-03 0. -1.
        -11    1    3    3    0    0 -0.31162915415E+01 -0.44798053931E+01  0.11940464409E+02  0.13128389844E+02  0.51100000000E-03 0.  1.
         12    1    3    3    0    0  0.72115279296E+01  0.14664916096E+02  0.97099244131E+01  0.19009169663E+02  0.00000000000E+00 0. -1.
</event>
<event>
 7    1  0.1874105E-013  0.7246161E+02  0.7816164E-02  0.1226708E+00
        -11   -1    0    0    0    0  0.00000000000E+00  0.00000000000E+00  0.45593999997E+02  0.45594000000E+02  0.51100000000E-03 0. -1.
         11   -1    0    0    0    0 -0.00000000000E+00 -0.00000000000E+00 -0.45593999997E+02  0.45594000000E+02  0.51100000000E-03 0.  1.
    9900012    2    1    2    0    0  0.68881040053E+01 -0.54526534161E+01  0.16537846137E+02  0.72461607905E+02  0.70000048995E+02 0.  0.
        -12    1    1    2    0    0 -0.68881040053E+01  0.54526534161E+01 -0.16537846137E+02  0.18726392095E+02  0.00000000000E+00 0.  1.
         11    1    3    3    0    0  0.17306624381E+02 -0.72000191701E+01  0.28118867639E+02  0.33793937934E+02  0.51100000000E-03 0. -1.
        -11    1    3    3    0    0 -0.17401377202E+02 -0.17967711613E+01  0.67368070939E+01  0.18746223225E+02  0.51100000000E-03 0.  1.
         12    1    3    3    0    0  0.69828568266E+01  0.35441369153E+01 -0.18317828597E+02  0.19921446745E+02  0.00000000000E+00 0. -1.
</event>
<event>
 7    1  0.1874105E-013  0.7246155E+02  0.7816164E-02  0.1226708E+00
        -11   -1    0    0    0    0  0.00000000000E+00  0.00000000000E+00  0.45593999997E+02  0.45594000000E+02  0.51100000000E-03 0.  1.
         11   -1    0    0    0    0 -0.00000000000E+00 -0.00000000000E+00 -0.45593999997E+02  0.45594000000E+02  0.51100000000E-03 0. -1.
    9900012    2    1    2    0    0  0.41318270323E+01  0.11000944892E+02 -0.14580374358E+02  0.72461545463E+02  0.69999967652E+02 0.  0.
        -12    1    1    2    0    0 -0.41318270323E+01 -0.11000944892E+02  0.14580374358E+02  0.18726454537E+02  0.00000000000E+00 0.  1.
         11    1    3    3    0    0  0.17980010552E+02  0.78176556291E+01 -0.30236999077E+02  0.36037100777E+02  0.51100000000E-03 0. -1.
        -11    1    3    3    0    0 -0.41800223976E+00 -0.79320722351E+01  0.17177308936E+02  0.18924915808E+02  0.51100000000E-03 0.  1.
        -12    1    3    3    0    0 -0.13430181280E+02  0.11115361498E+02 -0.15206842158E+01  0.17499528877E+02  0.00000000000E+00 0.  1.
</event>
<event>
 7    1  0.1874105E-013  0.7246154E+02  0.7816164E-02  0.1226708E+00
        -11   -1    0    0    0    0  0.00000000000E+00  0.00000000000E+00  0.45593999997E+02  0.45594000000E+02  0.51100000000E-03 0. -1.
         11   -1    0    0    0    0 -0.00000000000E+00 -0.00000000000E+00 -0.45593999997E+02  0.45594000000E+02  0.51100000000E-03 0.  1.
    9900012    2    1    2    0    0  0.80852532763E+01  0.14599872527E+02  0.84942696505E+01  0.72461542374E+02  0.69999963628E+02 0.  0.
        -12    1    1    2    0    0 -0.80852532763E+01 -0.14599872527E+02 -0.84942696505E+01  0.18726457626E+02  0.00000000000E+00 0.  1.
         11    1    3    3    0    0  0.41674910872E+01  0.35609394644E+02  0.19082203998E+02  0.40614375270E+02  0.51100000000E-03 0. -1.
        -11    1    3    3    0    0  0.29499979807E+01  0.15966100971E+01 -0.84836192206E+01  0.91226885965E+01  0.51100000000E-03 0.  1.
         12    1    3    3    0    0  0.96776420840E+00 -0.22606132215E+02 -0.21043151267E+01  0.22724478507E+02  0.00000000000E+00 0. -1.
</event>
<event>
 7    1  0.1874105E-013  0.7246146E+02  0.7816164E-02  0.1226708E+00
        -11   -1    0    0    0    0  0.00000000000E+00  0.00000000000E+00  0.45593999997E+02  0.45594000000E+02  0.51100000000E-03 0.  1.
         11   -1    0    0    0    0 -0.00000000000E+00 -0.00000000000E+00 -0.45593999997E+02  0.45594000000E+02  0.51100000000E-03 0. -1.
    9900012    2    1    2    0    0 -0.17057075666E+02  0.57134949231E+01 -0.52053459199E+01  0.72461455186E+02  0.69999850050E+02 0.  0.
        -12    1    1    2    0    0  0.17057075666E+02 -0.57134949231E+01  0.52053459199E+01  0.18726544814E+02  0.00000000000E+00 0.  1.
         11    1    3    3    0    0  0.17372050055E+02  0.78956194569E+01 -0.12973629759E+02  0.23074748084E+02  0.51100000000E-03 0. -1.
        -11    1    3    3    0    0 -0.16755298603E+02  0.12524454199E+02 -0.70010802200E+01  0.22059399556E+02  0.51100000000E-03 0.  1.
         12    1    3    3    0    0 -0.17673827118E+02 -0.14706578732E+02  0.14769364059E+02  0.27327307546E+02  0.00000000000E+00 0. -1.
</event>
<event>
 7    1  0.1874105E-013  0.7246160E+02  0.7816164E-02  0.1226708E+00
        -11   -1    0    0    0    0  0.00000000000E+00  0.00000000000E+00  0.45593999997E+02  0.45594000000E+02  0.51100000000E-03 0. -1.
         11   -1    0    0    0    0 -0.00000000000E+00 -0.00000000000E+00 -0.45593999997E+02  0.45594000000E+02  0.51100000000E-03 0.  1.
    9900012    2    1    2    0    0  0.17950270882E+02 -0.18529420158E+01  0.50032595435E+01  0.72461595515E+02  0.70000032855E+02 0.  0.
        -12    1    1    2    0    0 -0.17950270882E+02  0.18529420158E+01 -0.50032595435E+01  0.18726404485E+02  0.00000000000E+00 0.  1.
         11    1    3    3    0    0  0.28566141355E+02  0.63358109917E+01  0.84914618275E+01  0.30467554170E+02  0.51100000000E-03 0. -1.
        -11    1    3    3    0    0 -0.22396114600E+02 -0.11473930511E+02 -0.11191262449E+02  0.27540540772E+02  0.51100000000E-03 0.  1.
        -12    1    3    3    0    0  0.11780244127E+02  0.32851775036E+01  0.77030601648E+01  0.14453500574E+02  0.00000000000E+00 0.  1.
</event>
<event>
 7    1  0.1874105E-013  0.7246150E+02  0.7816164E-02  0.1226708E+00
        -11   -1    0    0    0    0  0.00000000000E+00  0.00000000000E+00  0.45593999997E+02  0.45594000000E+02  0.51100000000E-03 0.  1.
         11   -1    0    0    0    0 -0.00000000000E+00 -0.00000000000E+00 -0.45593999997E+02  0.45594000000E+02  0.51100000000E-03 0. -1.
    9900012    2    1    2    0    0 -0.17314699439E+02  0.49592363448E+00 -0.71159654790E+01  0.72461502153E+02  0.69999911233E+02 0.  0.
        -12    1    1    2    0    0  0.17314699439E+02 -0.49592363448E+00  0.71159654790E+01  0.18726497847E+02  0.00000000000E+00 0.  1.
         11    1    3    3    0    0 -0.66215324414E+01 -0.15883776835E+02 -0.20205121966E+02  0.26540271519E+02  0.51100000000E-03 0. -1.
        -11    1    3    3    0    0 -0.16135153281E+02  0.35898032250E+01  0.23375521788E+02  0.28629440751E+02  0.51100000000E-03 0.  1.
        -12    1    3    3    0    0  0.54419862830E+01  0.12789897244E+02 -0.10286365302E+02  0.17291789883E+02  0.00000000000E+00 0.  1.
</event>
<event>
 7    1  0.1874105E-013  0.7246158E+02  0.7816164E-02  0.1226708E+00
        -11   -1    0    0    0    0  0.00000000000E+00  0.00000000000E+00  0.45593999997E+02  0.45594000000E+02  0.51100000000E-03 0. -1.
         11   -1    0    0    0    0 -0.00000000000E+00 -0.00000000000E+00 -0.45593999997E+02  0.45594000000E+02  0.51100000000E-03 0.  1.
    9900012    2    1    2    0    0 -0.14123128389E+02 -0.10658111852E+02  0.61335750555E+01  0.72461578913E+02  0.70000011228E+02 0.  0.
        -12    1    1    2    0    0  0.14123128389E+02  0.10658111852E+02 -0.61335750555E+01  0.18726421087E+02  0.00000000000E+00 0.  1.
         11    1    3    3    0    0 -0.18585611001E+02 -0.20671959115E+02  0.58253763228E+01  0.28402285815E+02  0.51100000000E-03 0. -1.
        -11    1    3    3    0    0 -0.49581929339E+01  0.24043910173E+02 -0.71754583375E+01  0.25576952442E+02  0.51100000000E-03 0.  1.
        -12    1    3    3    0    0  0.94206755460E+01 -0.14030062910E+02  0.74836570702E+01  0.18482340657E+02  0.00000000000E+00 0.  1.
</event>
<event>
 7    1  0.1874105E-013  0.7246155E+02  0.7816164E-02  0.1226708E+00
        -11   -1    0    0    0    0  0.00000000000E+00  0.00000000000E+00  0.45593999997E+02  0.45594000000E+02  0.51100000000E-03 0.  1.
         11   -1    0    0    0    0 -0.00000000000E+00 -0.00000000000E+00 -0.45593999997E+02  0.45594000000E+02  0.51100000000E-03 0. -1.
    9900012    2    1    2    0    0 -0.96020418885E+00 -0.11081220600E+02 -0.15065336098E+02  0.72461553626E+02  0.69999978286E+02 0.  0.
        -12    1    1    2    0    0  0.96020418885E+00  0.11081220600E+02  0.15065336098E+02  0.18726446374E+02  0.00000000000E+00 0.  1.
         11    1    3    3    0    0 -0.40375327739E+01  0.17515474290E+02  0.11746939036E+02  0.21472868636E+02  0.51100000000E-03 0. -1.
        -11    1    3    3    0    0  0.23882587990E+01 -0.21442277143E+02  0.16452528429E+01  0.21637511094E+02  0.51100000000E-03 0.  1.
         12    1    3    3    0    0  0.68906978602E+00 -0.71544177465E+01 -0.28457527977E+02  0.29351173895E+02  0.00000000000E+00 0. -1.
</event>
<event>
 7    1  0.1874105E-013  0.7246158E+02  0.7816164E-02  0.1226708E+00
        -11   -1    0    0    0    0  0.00000000000E+00  0.00000000000E+00  0.45593999997E+02  0.45594000000E+02  0.51100000000E-03 0.  1.
         11   -1    0    0    0    0 -0.00000000000E+00 -0.00000000000E+00 -0.45593999997E+02  0.45594000000E+02  0.51100000000E-03 0. -1.
    9900012    2    1    2    0    0 -0.78920964672E+01  0.41848092879E+01 -0.16458461702E+02  0.72461580774E+02  0.70000013652E+02 0.  0.
        -12    1    1    2    0    0  0.78920964672E+01 -0.41848092879E+01  0.16458461702E+02  0.18726419226E+02  0.00000000000E+00 0.  1.
         11    1    3    3    0    0  0.12722087171E+02 -0.17905621636E+02 -0.21677010503E+02  0.30860258793E+02  0.51100000000E-03 0. -1.
        -11    1    3    3    0    0 -0.22138823523E+02  0.56163157327E+01  0.91356784011E+01  0.24599413194E+02  0.51100000000E-03 0.  1.
        -12    1    3    3    0    0  0.15246398845E+01  0.16474115191E+02 -0.39171295998E+01  0.17001908787E+02  0.00000000000E+00 0.  1.
</event>
<event>
 7    1  0.1874105E-013  0.7246157E+02  0.7816164E-02  0.1226708E+00
        -11   -1    0    0    0    0  0.00000000000E+00  0.00000000000E+00  0.45593999997E+02  0.45594000000E+02  0.51100000000E-03 0.  1.
         11   -1    0    0    0    0 -0.00000000000E+00 -0.00000000000E+00 -0.45593999997E+02  0.45594000000E+02  0.51100000000E-03 0. -1.
    9900012    2    1    2    0    0  0.15168161825E+02 -0.66681101648E+01 -0.87259577493E+01  0.72461570416E+02  0.70000000159E+02 0.  0.
        -12    1    1    2    0    0 -0.15168161825E+02  0.66681101648E+01  0.87259577493E+01  0.18726429584E+02  0.00000000000E+00 0.  1.
         11    1    3    3    0    0 -0.95133685859E-01  0.17504210856E+02  0.49641878730E+01  0.18194768743E+02  0.51100000000E-03 0. -1.
        -11    1    3    3    0    0 -0.58540399274E+01 -0.29914090518E+02 -0.99577056268E+01  0.32066781825E+02  0.51100000000E-03 0.  1.
         12    1    3    3    0    0  0.21117335438E+02  0.57417694971E+01 -0.37324399954E+01  0.22200019849E+02  0.00000000000E+00 0. -1.
</event>
<event>
 7    1  0.1874105E-013  0.7246156E+02  0.7816164E-02  0.1226708E+00
        -11   -1    0    0    0    0  0.00000000000E+00  0.00000000000E+00  0.45593999997E+02  0.45594000000E+02  0.51100000000E-03 0.  1.
         11   -1    0    0    0    0 -0.00000000000E+00 -0.00000000000E+00 -0.45593999997E+02  0.45594000000E+02  0.51100000000E-03 0. -1.
    9900012    2    1    2    0    0  0.12785124445E+01 -0.80823846079E+01 -0.16843993672E+02  0.72461557256E+02  0.69999983015E+02 0.  0.
        -12    1    1    2    0    0 -0.12785124445E+01  0.80823846079E+01  0.16843993672E+02  0.18726442744E+02  0.00000000000E+00 0.  1.
         11    1    3    3    0    0 -0.19672910442E+02 -0.97320390956E+01  0.62685416876E+01  0.22826094834E+02  0.51100000000E-03 0. -1.
        -11    1    3    3    0    0  0.28972527592E+02 -0.60503389925E+01 -0.76142389931E+01  0.30561259671E+02  0.51100000000E-03 0.  1.
        -12    1    3    3    0    0 -0.80211047053E+01  0.76999934802E+01 -0.15498296367E+02  0.19074202750E+02  0.00000000000E+00 0.  1.
</event>
<event>
 7    1  0.1874105E-013  0.7246157E+02  0.7816164E-02  0.1226708E+00
        -11   -1    0    0    0    0  0.00000000000E+00  0.00000000000E+00  0.45593999997E+02  0.45594000000E+02  0.51100000000E-03 0.  1.
         11   -1    0    0    0    0 -0.00000000000E+00 -0.00000000000E+00 -0.45593999997E+02  0.45594000000E+02  0.51100000000E-03 0. -1.
    9900012    2    1    2    0    0 -0.16318595354E+02  0.91468903252E+01 -0.84679324162E+00  0.72461569060E+02  0.69999998392E+02 0.  0.
        -12    1    1    2    0    0  0.16318595354E+02 -0.91468903252E+01  0.84679324162E+00  0.18726430940E+02  0.00000000000E+00 0.  1.
         11    1    3    3    0    0 -0.15408470429E+02 -0.56359891856E+01 -0.51982304677E+01  0.17210663418E+02  0.51100000000E-03 0. -1.
        -11    1    3    3    0    0  0.21542475366E+02  0.14999126459E+02  0.15179497892E+02  0.30322750468E+02  0.51100000000E-03 0.  1.
        -12    1    3    3    0    0 -0.22452600291E+02 -0.21624694786E+00 -0.10828060666E+02  0.24928155174E+02  0.00000000000E+00 0.  1.
</event>
<event>
 7    1  0.1874105E-013  0.7246157E+02  0.7816164E-02  0.1226708E+00
        -11   -1    0    0    0    0  0.00000000000E+00  0.00000000000E+00  0.45593999997E+02  0.45594000000E+02  0.51100000000E-03 0.  1.
         11   -1    0    0    0    0 -0.00000000000E+00 -0.00000000000E+00 -0.45593999997E+02  0.45594000000E+02  0.51100000000E-03 0. -1.
    9900012    2    1    2    0    0  0.56991508114E+01 -0.15564417182E+02  0.87147925761E+01  0.72461574505E+02  0.70000005485E+02 0.  0.
        -12    1    1    2    0    0 -0.56991508114E+01  0.15564417182E+02 -0.87147925761E+01  0.18726425495E+02  0.00000000000E+00 0.  1.
         11    1    3    3    0    0  0.59999909871E+01  0.76158459908E+01  0.20900901797E+01  0.99181388991E+01  0.51100000000E-03 0. -1.
        -11    1    3    3    0    0 -0.25234038812E+02 -0.25486763327E+02 -0.23540497320E+01  0.35942639998E+02  0.51100000000E-03 0.  1.
        -12    1    3    3    0    0  0.24933198636E+02  0.23065001545E+01  0.89787521284E+01  0.26600795608E+02  0.00000000000E+00 0.  1.
</event>
<event>
 7    1  0.1874105E-013  0.7246157E+02  0.7816164E-02  0.1226708E+00
        -11   -1    0    0    0    0  0.00000000000E+00  0.00000000000E+00  0.45593999997E+02  0.45594000000E+02  0.51100000000E-03 0.  1.
         11   -1    0    0    0    0 -0.00000000000E+00 -0.00000000000E+00 -0.45593999997E+02  0.45594000000E+02  0.51100000000E-03 0. -1.
    9900012    2    1    2    0    0 -0.10788881279E+02  0.15302235573E+02  0.34776022010E+00  0.72461566544E+02  0.69999995115E+02 0.  0.
        -12    1    1    2    0    0  0.10788881279E+02 -0.15302235573E+02 -0.34776022010E+00  0.18726433456E+02  0.00000000000E+00 0.  1.
         11    1    3    3    0    0  0.12956241053E+02 -0.17318357195E+02  0.11480287336E+02  0.24486459028E+02  0.51100000000E-03 0. -1.
        -11    1    3    3    0    0 -0.24702802230E+02  0.15289831874E+02 -0.93853876636E+01  0.30530196505E+02  0.51100000000E-03 0.  1.
         12    1    3    3    0    0  0.95767989806E+00  0.17330760894E+02 -0.17471394520E+01  0.17444911012E+02  0.00000000000E+00 0. -1.
</event>
<event>
 7    1  0.1874105E-013  0.7246159E+02  0.7816164E-02  0.1226708E+00
        -11   -1    0    0    0    0  0.00000000000E+00  0.00000000000E+00  0.45593999997E+02  0.45594000000E+02  0.51100000000E-03 0.  1.
         11   -1    0    0    0    0 -0.00000000000E+00 -0.00000000000E+00 -0.45593999997E+02  0.45594000000E+02  0.51100000000E-03 0. -1.
    9900012    2    1    2    0    0 -0.15339818170E+01 -0.15769228325E+02 -0.99828194445E+01  0.72461592276E+02  0.70000028635E+02 0.  0.
        -12    1    1    2    0    0  0.15339818170E+01  0.15769228325E+02  0.99828194445E+01  0.18726407724E+02  0.00000000000E+00 0.  1.
         11    1    3    3    0    0  0.11316425145E+01 -0.30727351216E+02  0.14489011824E+02  0.33990913366E+02  0.51100000000E-03 0. -1.
        -11    1    3    3    0    0  0.36388448789E+01  0.11605395751E+02  0.82008160928E+00  0.12190116353E+02  0.51100000000E-03 0.  1.
         12    1    3    3    0    0 -0.63044692104E+01  0.33527271394E+01 -0.25291912878E+02  0.26280562557E+02  0.00000000000E+00 0. -1.
</event>
<event>
 7    1  0.1874105E-013  0.7246162E+02  0.7816164E-02  0.1226708E+00
        -11   -1    0    0    0    0  0.00000000000E+00  0.00000000000E+00  0.45593999997E+02  0.45594000000E+02  0.51100000000E-03 0.  1.
         11   -1    0    0    0    0 -0.00000000000E+00 -0.00000000000E+00 -0.45593999997E+02  0.45594000000E+02  0.51100000000E-03 0. -1.
    9900012    2    1    2    0    0  0.14158690195E+02  0.11249201767E+02 -0.48645975504E+01  0.72461618668E+02  0.70000063016E+02 0.  0.
        -12    1    1    2    0    0 -0.14158690195E+02 -0.11249201767E+02  0.48645975504E+01  0.18726381332E+02  0.00000000000E+00 0.  1.
         11    1    3    3    0    0 -0.13393400071E+01  0.10270460691E+01 -0.88820520114E+00  0.19072398966E+01  0.51100000000E-03 0. -1.
        -11    1    3    3    0    0  0.36771673172E+02  0.10997135160E+02 -0.20586326002E+02  0.43553297787E+02  0.51100000000E-03 0.  1.
        -12    1    3    3    0    0 -0.21273642970E+02 -0.77497946198E+00  0.16609933653E+02  0.27001080984E+02  0.00000000000E+00 0.  1.
</event>
<event>
 7    1  0.1874105E-013  0.7246151E+02  0.7816164E-02  0.1226708E+00
        -11   -1    0    0    0    0  0.00000000000E+00  0.00000000000E+00  0.45593999997E+02  0.45594000000E+02  0.51100000000E-03 0. -1.
         11   -1    0    0    0    0 -0.00000000000E+00 -0.00000000000E+00 -0.45593999997E+02  0.45594000000E+02  0.51100000000E-03 0.  1.
    9900012    2    1    2    0    0  0.77442645580E+01  0.14116886270E+02  0.95614478322E+01  0.72461510843E+02  0.69999922553E+02 0.  0.
        -12    1    1    2    0    0 -0.77442645580E+01 -0.14116886270E+02 -0.95614478322E+01  0.18726489157E+02  0.00000000000E+00 0.  1.
         11    1    3    3    0    0 -0.36652109348E+01  0.33979542058E+02  0.20939809524E+02  0.40081400584E+02  0.51100000000E-03 0. -1.
        -11    1    3    3    0    0  0.10511818196E+02 -0.61187596516E+01  0.29393846843E+01  0.12513094103E+02  0.51100000000E-03 0.  1.
         12    1    3    3    0    0  0.89765729733E+00 -0.13743896136E+02 -0.14317746376E+02  0.19867016155E+02  0.00000000000E+00 0. -1.
</event>
<event>
 7    1  0.1874105E-013  0.7246156E+02  0.7816164E-02  0.1226708E+00
        -11   -1    0    0    0    0  0.00000000000E+00  0.00000000000E+00  0.45593999997E+02  0.45594000000E+02  0.51100000000E-03 0.  1.
         11   -1    0    0    0    0 -0.00000000000E+00 -0.00000000000E+00 -0.45593999997E+02  0.45594000000E+02  0.51100000000E-03 0. -1.
    9900012    2    1    2    0    0  0.10463126022E+02  0.39681850874E+01 -0.15015192713E+02  0.72461561170E+02  0.69999988114E+02 0.  0.
        -12    1    1    2    0    0 -0.10463126022E+02 -0.39681850874E+01  0.15015192713E+02  0.18726438830E+02  0.00000000000E+00 0.  1.
         11    1    3    3    0    0  0.71472970327E+01 -0.26809573669E+02  0.90580610895E+01  0.29187078753E+02  0.51100000000E-03 0. -1.
        -11    1    3    3    0    0  0.10434445615E+02  0.17769870665E+02 -0.17579290356E+02  0.27086480178E+02  0.51100000000E-03 0.  1.
         12    1    3    3    0    0 -0.71186166251E+01  0.13007888092E+02 -0.64939634457E+01  0.16188002239E+02  0.00000000000E+00 0. -1.
</event>
<event>
 7    1  0.1874105E-013  0.7246154E+02  0.7816164E-02  0.1226708E+00
        -11   -1    0    0    0    0  0.00000000000E+00  0.00000000000E+00  0.45593999997E+02  0.45594000000E+02  0.51100000000E-03 0. -1.
         11   -1    0    0    0    0 -0.00000000000E+00 -0.00000000000E+00 -0.45593999997E+02  0.45594000000E+02  0.51100000000E-03 0.  1.
    9900012    2    1    2    0    0  0.49777846385E+01  0.15696955724E+02 -0.89166981263E+01  0.72461541061E+02  0.69999961918E+02 0.  0.
        -12    1    1    2    0    0 -0.49777846385E+01 -0.15696955724E+02  0.89166981263E+01  0.18726458939E+02  0.00000000000E+00 0.  1.
         11    1    3    3    0    0  0.22318251557E+02  0.11801535965E+02 -0.10436636301E+02  0.27318564773E+02  0.51100000000E-03 0. -1.
        -11    1    3    3    0    0  0.24395318782E+01 -0.15754739515E+02 -0.46099009005E+01  0.16595611454E+02  0.51100000000E-03 0.  1.
        -12    1    3    3    0    0 -0.19779998797E+02  0.19650159274E+02  0.61298390755E+01  0.28547364834E+02  0.00000000000E+00 0.  1.
</event>
<event>
 7    1  0.1874105E-013  0.7246143E+02  0.7816164E-02  0.1226708E+00
        -11   -1    0    0    0    0  0.00000000000E+00  0.00000000000E+00  0.45593999997E+02  0.45594000000E+02  0.51100000000E-03 0.  1.
         11   -1    0    0    0    0 -0.00000000000E+00 -0.00000000000E+00 -0.45593999997E+02  0.45594000000E+02  0.51100000000E-03 0. -1.
    9900012    2    1    2    0    0  0.12323200255E+00  0.11127296503E+02  0.15061619168E+02  0.72461433696E+02  0.69999822055E+02 0.  0.
        -12    1    1    2    0    0 -0.12323200255E+00 -0.11127296503E+02 -0.15061619168E+02  0.18726566304E+02  0.00000000000E+00 0.  1.
         11    1    3    3    0    0  0.89085785317E+01  0.63111160381E+01 -0.57389255616E+01  0.12334027078E+02  0.51100000000E-03 0. -1.
        -11    1    3    3    0    0  0.36109951386E+00 -0.21037917969E+02  0.24678000096E+02  0.32430357296E+02  0.51100000000E-03 0.  1.
        -12    1    3    3    0    0 -0.91464460431E+01  0.25854098433E+02 -0.38774553664E+01  0.27697049322E+02  0.00000000000E+00 0.  1.
</event>
<event>
 7    1  0.1874105E-013  0.7246157E+02  0.7816164E-02  0.1226708E+00
        -11   -1    0    0    0    0  0.00000000000E+00  0.00000000000E+00  0.45593999997E+02  0.45594000000E+02  0.51100000000E-03 0.  1.
         11   -1    0    0    0    0 -0.00000000000E+00 -0.00000000000E+00 -0.45593999997E+02  0.45594000000E+02  0.51100000000E-03 0. -1.
    9900012    2    1    2    0    0 -0.24318583355E+01 -0.45411116010E+01 -0.18003982207E+02  0.72461574691E+02  0.70000005728E+02 0.  0.
        -12    1    1    2    0    0  0.24318583355E+01  0.45411116010E+01  0.18003982207E+02  0.18726425309E+02  0.00000000000E+00 0.  1.
         11    1    3    3    0    0  0.14870931811E+01  0.10632806256E+02 -0.29819800003E+02  0.31693666363E+02  0.51100000000E-03 0. -1.
        -11    1    3    3    0    0 -0.19191153976E+02 -0.13557646473E+02  0.89585339353E+01  0.25146878522E+02  0.51100000000E-03 0.  1.
         12    1    3    3    0    0  0.15272202460E+02 -0.16162713841E+01  0.28572838609E+01  0.15621029807E+02  0.00000000000E+00 0. -1.
</event>
<event>
 7    1  0.1874105E-013  0.7246157E+02  0.7816164E-02  0.1226708E+00
        -11   -1    0    0    0    0  0.00000000000E+00  0.00000000000E+00  0.45593999997E+02  0.45594000000E+02  0.51100000000E-03 0. -1.
         11   -1    0    0    0    0 -0.00000000000E+00 -0.00000000000E+00 -0.45593999997E+02  0.45594000000E+02  0.51100000000E-03 0.  1.
    9900012    2    1    2    0    0 -0.94903020488E+01  0.12384045116E+02  0.10356093004E+02  0.72461572986E+02  0.70000003506E+02 0.  0.
        -12    1    1    2    0    0  0.94903020488E+01 -0.12384045116E+02 -0.10356093004E+02  0.18726427014E+02  0.00000000000E+00 0.  1.
         11    1    3    3    0    0  0.18228315994E+02  0.20528928798E+02  0.23015090386E+02  0.35824611754E+02  0.51100000000E-03 0. -1.
        -11    1    3    3    0    0 -0.23302400153E+02  0.43607387979E+00 -0.13526562421E+02  0.26947354314E+02  0.51100000000E-03 0.  1.
         12    1    3    3    0    0 -0.44162178896E+01 -0.85809575623E+01  0.86756503890E+00  0.96896069183E+01  0.00000000000E+00 0. -1.
</event>
<event>
 7    1  0.1874105E-013  0.7246147E+02  0.7816164E-02  0.1226708E+00
        -11   -1    0    0    0    0  0.00000000000E+00  0.00000000000E+00  0.45593999997E+02  0.45594000000E+02  0.51100000000E-03 0.  1.
         11   -1    0    0    0    0 -0.00000000000E+00 -0.00000000000E+00 -0.45593999997E+02  0.45594000000E+02  0.51100000000E-03 0. -1.
    9900012    2    1    2    0    0  0.71420137148E+01  0.15519428011E+02 -0.76695559006E+01  0.72461465526E+02  0.69999863519E+02 0.  0.
        -12    1    1    2    0    0 -0.71420137148E+01 -0.15519428011E+02  0.76695559006E+01  0.18726534474E+02  0.00000000000E+00 0.  1.
         11    1    3    3    0    0 -0.61333466670E+01 -0.14444237719E+02 -0.16844162925E+02  0.23021289484E+02  0.51100000000E-03 0. -1.
        -11    1    3    3    0    0  0.24682003917E+02  0.26825915547E+02  0.92546308662E+01  0.37609563345E+02  0.51100000000E-03 0.  1.
        -12    1    3    3    0    0 -0.11406643535E+02  0.31377501835E+01 -0.80023842149E-01  0.11830612696E+02  0.00000000000E+00 0.  1.
</event>
<event>
 7    1  0.1874105E-013  0.7246160E+02  0.7816164E-02  0.1226708E+00
        -11   -1    0    0    0    0  0.00000000000E+00  0.00000000000E+00  0.45593999997E+02  0.45594000000E+02  0.51100000000E-03 0. -1.
         11   -1    0    0    0    0 -0.00000000000E+00 -0.00000000000E+00 -0.45593999997E+02  0.45594000000E+02  0.51100000000E-03 0.  1.
    9900012    2    1    2    0    0 -0.33310943922E+01 -0.11175847003E+02  0.14652041644E+02  0.72461599641E+02  0.70000038229E+02 0.  0.
        -12    1    1    2    0    0  0.33310943922E+01  0.11175847003E+02 -0.14652041644E+02  0.18726400359E+02  0.00000000000E+00 0.  1.
         11    1    3    3    0    0  0.18409780430E+02 -0.67680614532E+01  0.11314801829E+02  0.22644014927E+02  0.51100000000E-03 0. -1.
        -11    1    3    3    0    0 -0.18926530752E+02 -0.19980941488E+02 -0.98361897665E+01  0.29226738074E+02  0.51100000000E-03 0.  1.
        -12    1    3    3    0    0 -0.28143440702E+01  0.15573155938E+02  0.13173429581E+02  0.20590846640E+02  0.00000000000E+00 0.  1.
</event>
<event>
 7    1  0.1874105E-013  0.7246160E+02  0.7816164E-02  0.1226708E+00
        -11   -1    0    0    0    0  0.00000000000E+00  0.00000000000E+00  0.45593999997E+02  0.45594000000E+02  0.51100000000E-03 0.  1.
         11   -1    0    0    0    0 -0.00000000000E+00 -0.00000000000E+00 -0.45593999997E+02  0.45594000000E+02  0.51100000000E-03 0. -1.
    9900012    2    1    2    0    0 -0.15823227159E+02  0.60879059670E+01 -0.79524273458E+01  0.72461595714E+02  0.70000033114E+02 0.  0.
        -12    1    1    2    0    0  0.15823227159E+02 -0.60879059670E+01  0.79524273458E+01  0.18726404286E+02  0.00000000000E+00 0.  1.
         11    1    3    3    0    0 -0.20433533601E+02  0.16587017273E+02  0.21379685571E+01  0.26405100781E+02  0.51100000000E-03 0.  1.
        -11    1    3    3    0    0 -0.41783939046E+01 -0.26236057481E+02 -0.31963575988E+01  0.26758295721E+02  0.51100000000E-03 0. -1.
        -12    1    3    3    0    0  0.87887003470E+01  0.15736946174E+02 -0.68940383041E+01  0.19298199212E+02  0.00000000000E+00 0.  1.
</event>
<event>
 7    1  0.1874105E-013  0.7246160E+02  0.7816164E-02  0.1226708E+00
        -11   -1    0    0    0    0  0.00000000000E+00  0.00000000000E+00  0.45593999997E+02  0.45594000000E+02  0.51100000000E-03 0. -1.
         11   -1    0    0    0    0 -0.00000000000E+00 -0.00000000000E+00 -0.45593999997E+02  0.45594000000E+02  0.51100000000E-03 0.  1.
    9900012    2    1    2    0    0 -0.59997671710E+01  0.14885722144E+02  0.96486417347E+01  0.72461595722E+02  0.70000033124E+02 0.  0.
        -12    1    1    2    0    0  0.59997671710E+01 -0.14885722144E+02 -0.96486417347E+01  0.18726404278E+02  0.00000000000E+00 0.  1.
         11    1    3    3    0    0 -0.23570346753E+02 -0.18144871492E+01  0.28465758022E+02  0.37002067371E+02  0.51100000000E-03 0.  1.
        -11    1    3    3    0    0  0.18128848089E+02  0.11636948073E+02 -0.20845302007E+02  0.29976662748E+02  0.51100000000E-03 0. -1.
        -12    1    3    3    0    0 -0.55826850743E+00  0.50632612201E+01  0.20281857193E+01  0.54828656031E+01  0.00000000000E+00 0.  1.
</event>
<event>
 7    1  0.1874105E-013  0.7246154E+02  0.7816164E-02  0.1226708E+00
        -11   -1    0    0    0    0  0.00000000000E+00  0.00000000000E+00  0.45593999997E+02  0.45594000000E+02  0.51100000000E-03 0. -1.
         11   -1    0    0    0    0 -0.00000000000E+00 -0.00000000000E+00 -0.45593999997E+02  0.45594000000E+02  0.51100000000E-03 0.  1.
    9900012    2    1    2    0    0  0.13222602015E+02 -0.13177013774E+02 -0.14864594687E+01  0.72461535897E+02  0.69999955191E+02 0.  0.
        -12    1    1    2    0    0 -0.13222602015E+02  0.13177013774E+02  0.14864594687E+01  0.18726464103E+02  0.00000000000E+00 0.  1.
         11    1    3    3    0    0  0.45274908584E+01  0.26535153993E+02  0.11428759985E+02  0.29244300744E+02  0.51100000000E-03 0. -1.
        -11    1    3    3    0    0  0.89751841727E+00 -0.13665755746E+02 -0.70498163198E+01  0.15403192196E+02  0.51100000000E-03 0.  1.
         12    1    3    3    0    0  0.77975927396E+01 -0.26046412021E+02 -0.58654031337E+01  0.27814042957E+02  0.00000000000E+00 0. -1.
</event>
<event>
 7    1  0.1874105E-013  0.7246138E+02  0.7816164E-02  0.1226709E+00
        -11   -1    0    0    0    0  0.00000000000E+00  0.00000000000E+00  0.45593999997E+02  0.45594000000E+02  0.51100000000E-03 0.  1.
         11   -1    0    0    0    0 -0.00000000000E+00 -0.00000000000E+00 -0.45593999997E+02  0.45594000000E+02  0.51100000000E-03 0. -1.
    9900012    2    1    2    0    0  0.75843817580E+01  0.13693218945E+02 -0.10279075166E+02  0.72461375157E+02  0.69999745797E+02 0.  0.
        -12    1    1    2    0    0 -0.75843817580E+01 -0.13693218945E+02  0.10279075166E+02  0.18726624843E+02  0.00000000000E+00 0.  1.
         11    1    3    3    0    0  0.27496708024E+02 -0.10657187282E+00 -0.60036705876E+01  0.28144704129E+02  0.51100000000E-03 0. -1.
        -11    1    3    3    0    0 -0.54731379012E+01  0.90769561735E+01  0.15870601278E+02  0.19084610477E+02  0.51100000000E-03 0.  1.
         12    1    3    3    0    0 -0.14439188365E+02  0.47228346445E+01 -0.20146005856E+02  0.25232060552E+02  0.00000000000E+00 0. -1.
</event>
<event>
 7    1  0.1874105E-013  0.7246163E+02  0.7816164E-02  0.1226708E+00
        -11   -1    0    0    0    0  0.00000000000E+00  0.00000000000E+00  0.45593999997E+02  0.45594000000E+02  0.51100000000E-03 0.  1.
         11   -1    0    0    0    0 -0.00000000000E+00 -0.00000000000E+00 -0.45593999997E+02  0.45594000000E+02  0.51100000000E-03 0. -1.
    9900012    2    1    2    0    0 -0.13833042847E+02 -0.12524626563E+02 -0.15677081423E+01  0.72461626785E+02  0.70000073590E+02 0.  0.
        -12    1    1    2    0    0  0.13833042847E+02  0.12524626563E+02  0.15677081423E+01  0.18726373215E+02  0.00000000000E+00 0.  1.
         11    1    3    3    0    0 -0.31097373091E+02 -0.18726036682E+02 -0.21959795286E+02  0.42425743037E+02  0.51100000000E-03 0. -1.
        -11    1    3    3    0    0  0.67382950727E+01  0.85411908648E+01  0.13053292507E+02  0.16992498563E+02  0.51100000000E-03 0.  1.
        -12    1    3    3    0    0  0.10526035172E+02 -0.23397807459E+01  0.73387946365E+01  0.13043385185E+02  0.00000000000E+00 0.  1.
</event>
<event>
 7    1  0.1874105E-013  0.7246154E+02  0.7816164E-02  0.1226708E+00
        -11   -1    0    0    0    0  0.00000000000E+00  0.00000000000E+00  0.45593999997E+02  0.45594000000E+02  0.51100000000E-03 0.  1.
         11   -1    0    0    0    0 -0.00000000000E+00 -0.00000000000E+00 -0.45593999997E+02  0.45594000000E+02  0.51100000000E-03 0. -1.
    9900012    2    1    2    0    0 -0.10548603184E+02  0.14987916548E+02  0.38431419636E+01  0.72461537127E+02  0.69999956793E+02 0.  0.
        -12    1    1    2    0    0  0.10548603184E+02 -0.14987916548E+02 -0.38431419636E+01  0.18726462873E+02  0.00000000000E+00 0.  1.
         11    1    3    3    0    0 -0.25181391082E+02  0.12455125161E+02  0.26241848291E+02  0.38443038402E+02  0.51100000000E-03 0.  1.
        -11    1    3    3    0    0  0.16643927265E+02  0.89147577345E+01 -0.17265873251E+02  0.25585222291E+02  0.51100000000E-03 0. -1.
         12    1    3    3    0    0 -0.20111393673E+01 -0.63819663479E+01 -0.51328330761E+01  0.84332764338E+01  0.00000000000E+00 0. -1.
</event>
<event>
 7    1  0.1874105E-013  0.7246155E+02  0.7816164E-02  0.1226708E+00
        -11   -1    0    0    0    0  0.00000000000E+00  0.00000000000E+00  0.45593999997E+02  0.45594000000E+02  0.51100000000E-03 0. -1.
         11   -1    0    0    0    0 -0.00000000000E+00 -0.00000000000E+00 -0.45593999997E+02  0.45594000000E+02  0.51100000000E-03 0.  1.
    9900012    2    1    2    0    0  0.10233295774E+02 -0.52283907199E+01  0.14785923100E+02  0.72461549887E+02  0.69999973416E+02 0.  0.
        -12    1    1    2    0    0 -0.10233295774E+02  0.52283907199E+01 -0.14785923100E+02  0.18726450113E+02  0.00000000000E+00 0.  1.
         11    1    3    3    0    0  0.62826815358E+01  0.25475766124E+02  0.15662371690E+02  0.30558086231E+02  0.51100000000E-03 0.  1.
        -11    1    3    3    0    0  0.39131250166E+01 -0.22918558389E+02 -0.13637623720E+02  0.26954733295E+02  0.51100000000E-03 0. -1.
         12    1    3    3    0    0  0.37489221460E-01 -0.77855984541E+01  0.12761175129E+02  0.14948730361E+02  0.00000000000E+00 0. -1.
</event>
<event>
 7    1  0.1874105E-013  0.7246157E+02  0.7816164E-02  0.1226708E+00
        -11   -1    0    0    0    0  0.00000000000E+00  0.00000000000E+00  0.45593999997E+02  0.45594000000E+02  0.51100000000E-03 0.  1.
         11   -1    0    0    0    0 -0.00000000000E+00 -0.00000000000E+00 -0.45593999997E+02  0.45594000000E+02  0.51100000000E-03 0. -1.
    9900012    2    1    2    0    0  0.12181186053E+02  0.85986983483E+01  0.11329619589E+02  0.72461569828E+02  0.69999999393E+02 0.  0.
        -12    1    1    2    0    0 -0.12181186053E+02 -0.85986983483E+01 -0.11329619589E+02  0.18726430172E+02  0.00000000000E+00 0.  1.
         11    1    3    3    0    0  0.79904788322E+01 -0.84301340075E+01 -0.12737099468E+00  0.11615986182E+02  0.51100000000E-03 0. -1.
        -11    1    3    3    0    0 -0.23265135620E+02  0.81573165555E+01 -0.81438994283E+01  0.25964041422E+02  0.51100000000E-03 0.  1.
        -12    1    3    3    0    0  0.27455842840E+02  0.88715158002E+01  0.19600890012E+02  0.34881542224E+02  0.00000000000E+00 0.  1.
</event>
<event>
 7    1  0.1874105E-013  0.7246168E+02  0.7816164E-02  0.1226708E+00
        -11   -1    0    0    0    0  0.00000000000E+00  0.00000000000E+00  0.45593999997E+02  0.45594000000E+02  0.51100000000E-03 0.  1.
         11   -1    0    0    0    0 -0.00000000000E+00 -0.00000000000E+00 -0.45593999997E+02  0.45594000000E+02  0.51100000000E-03 0. -1.
    9900012    2    1    2    0    0 -0.75727495847E+01  0.16718019390E+02  0.37197055192E+01  0.72461683818E+02  0.70000147886E+02 0.  0.
        -12    1    1    2    0    0  0.75727495847E+01 -0.16718019390E+02 -0.37197055192E+01  0.18726316182E+02  0.00000000000E+00 0.  1.
         11    1    3    3    0    0  0.13640503666E+02  0.77448951399E+01  0.12806329005E+02  0.20249661820E+02  0.51100000000E-03 0.  1.
        -11    1    3    3    0    0 -0.33975480721E+02  0.26966838326E+01 -0.14440845696E+02  0.37015448378E+02  0.51100000000E-03 0. -1.
         12    1    3    3    0    0  0.12762227470E+02  0.62764404171E+01  0.53542222104E+01  0.15196573620E+02  0.00000000000E+00 0. -1.
</event>
<event>
 7    1  0.1874105E-013  0.7246159E+02  0.7816164E-02  0.1226708E+00
        -11   -1    0    0    0    0  0.00000000000E+00  0.00000000000E+00  0.45593999997E+02  0.45594000000E+02  0.51100000000E-03 0.  1.
         11   -1    0    0    0    0 -0.00000000000E+00 -0.00000000000E+00 -0.45593999997E+02  0.45594000000E+02  0.51100000000E-03 0. -1.
    9900012    2    1    2    0    0  0.10325348753E+02  0.14835133784E+02 -0.48973810279E+01  0.72461591850E+02  0.70000028081E+02 0.  0.
        -12    1    1    2    0    0 -0.10325348753E+02 -0.14835133784E+02  0.48973810279E+01  0.18726408150E+02  0.00000000000E+00 0.  1.
         11    1    3    3    0    0  0.32096434412E+02  0.12519769950E+02 -0.20464383028E+01  0.34512514420E+02  0.51100000000E-03 0. -1.
        -11    1    3    3    0    0 -0.55214811199E+01  0.16500662946E+01  0.13628015183E+02  0.14796360047E+02  0.51100000000E-03 0.  1.
         12    1    3    3    0    0 -0.16249604540E+02  0.66529753963E+00 -0.16478957908E+02  0.23152717384E+02  0.00000000000E+00 0. -1.
</event>
<event>
 7    1  0.1874105E-013  0.7246156E+02  0.7816164E-02  0.1226708E+00
        -11   -1    0    0    0    0  0.00000000000E+00  0.00000000000E+00  0.45593999997E+02  0.45594000000E+02  0.51100000000E-03 0. -1.
         11   -1    0    0    0    0 -0.00000000000E+00 -0.00000000000E+00 -0.45593999997E+02  0.45594000000E+02  0.51100000000E-03 0.  1.
    9900012    2    1    2    0    0  0.96544059404E+00  0.11236261529E+02  0.14949707163E+02  0.72461564328E+02  0.69999992228E+02 0.  0.
        -12    1    1    2    0    0 -0.96544059404E+00 -0.11236261529E+02 -0.14949707163E+02  0.18726435672E+02  0.00000000000E+00 0.  1.
         11    1    3    3    0    0  0.86165471304E+00  0.94882391819E+01  0.28586357699E+02  0.30132191728E+02  0.51100000000E-03 0. -1.
        -11    1    3    3    0    0  0.63477111573E+01 -0.17394479394E+01 -0.26665991467E+02  0.27466237770E+02  0.51100000000E-03 0.  1.
        -12    1    3    3    0    0 -0.62439252763E+01  0.34874702869E+01  0.13029340931E+02  0.14863134830E+02  0.00000000000E+00 0.  1.
</event>
<event>
 7    1  0.1874105E-013  0.7246161E+02  0.7816164E-02  0.1226708E+00
        -11   -1    0    0    0    0  0.00000000000E+00  0.00000000000E+00  0.45593999997E+02  0.45594000000E+02  0.51100000000E-03 0. -1.
         11   -1    0    0    0    0 -0.00000000000E+00 -0.00000000000E+00 -0.45593999997E+02  0.45594000000E+02  0.51100000000E-03 0.  1.
    9900012    2    1    2    0    0 -0.10036314732E+02 -0.12324336039E+02  0.99025708478E+01  0.72461607352E+02  0.70000048274E+02 0.  0.
        -12    1    1    2    0    0  0.10036314732E+02  0.12324336039E+02 -0.99025708478E+01  0.18726392648E+02  0.00000000000E+00 0.  1.
         11    1    3    3    0    0  0.99516539381E+00 -0.50023066636E+01  0.11961860978E+02  0.13003828068E+02  0.51100000000E-03 0. -1.
        -11    1    3    3    0    0 -0.20761605451E+02 -0.20994547611E+01 -0.25854397378E+02  0.33225018213E+02  0.51100000000E-03 0.  1.
        -12    1    3    3    0    0  0.97301253247E+01 -0.52225746146E+01  0.23795107248E+02  0.26232761071E+02  0.00000000000E+00 0.  1.
</event>
<event>
 7    1  0.1874105E-013  0.7246157E+02  0.7816164E-02  0.1226708E+00
        -11   -1    0    0    0    0  0.00000000000E+00  0.00000000000E+00  0.45593999997E+02  0.45594000000E+02  0.51100000000E-03 0. -1.
         11   -1    0    0    0    0 -0.00000000000E+00 -0.00000000000E+00 -0.45593999997E+02  0.45594000000E+02  0.51100000000E-03 0.  1.
    9900012    2    1    2    0    0 -0.16781894794E+02 -0.82989081410E+01 -0.41861646696E+00  0.72461571912E+02  0.70000002107E+02 0.  0.
        -12    1    1    2    0    0  0.16781894794E+02  0.82989081410E+01  0.41861646696E+00  0.18726428088E+02  0.00000000000E+00 0.  1.
         11    1    3    3    0    0 -0.20461117477E+02  0.21542838996E+01  0.83135548813E+01  0.22190391221E+02  0.51100000000E-03 0. -1.
        -11    1    3    3    0    0  0.22955578303E+02 -0.82276815188E+01  0.69116560043E+01  0.25346090574E+02  0.51100000000E-03 0.  1.
        -12    1    3    3    0    0 -0.19276355620E+02 -0.22255105218E+01 -0.15643827353E+02  0.24925090116E+02  0.00000000000E+00 0.  1.
</event>
<event>
 7    1  0.1874105E-013  0.7246158E+02  0.7816164E-02  0.1226708E+00
        -11   -1    0    0    0    0  0.00000000000E+00  0.00000000000E+00  0.45593999997E+02  0.45594000000E+02  0.51100000000E-03 0.  1.
         11   -1    0    0    0    0 -0.00000000000E+00 -0.00000000000E+00 -0.45593999997E+02  0.45594000000E+02  0.51100000000E-03 0. -1.
    9900012    2    1    2    0    0  0.24567647911E+01  0.38780992155E+01 -0.18154982642E+02  0.72461581722E+02  0.70000014887E+02 0.  0.
        -12    1    1    2    0    0 -0.24567647911E+01 -0.38780992155E+01  0.18154982642E+02  0.18726418278E+02  0.00000000000E+00 0.  1.
         11    1    3    3    0    0  0.16625600041E+02 -0.23193349127E+02 -0.22328758630E+02  0.36234175617E+02  0.51100000000E-03 0. -1.
        -11    1    3    3    0    0 -0.17733346213E+01 -0.64944093037E+00  0.55174043621E+01  0.58316584569E+01  0.51100000000E-03 0.  1.
         12    1    3    3    0    0 -0.12395500629E+02  0.27720889272E+02 -0.13436283747E+01  0.30395747648E+02  0.00000000000E+00 0. -1.
</event>
<event>
 7    1  0.1874105E-013  0.7246158E+02  0.7816164E-02  0.1226708E+00
        -11   -1    0    0    0    0  0.00000000000E+00  0.00000000000E+00  0.45593999997E+02  0.45594000000E+02  0.51100000000E-03 0.  1.
         11   -1    0    0    0    0 -0.00000000000E+00 -0.00000000000E+00 -0.45593999997E+02  0.45594000000E+02  0.51100000000E-03 0. -1.
    9900012    2    1    2    0    0  0.14157357187E+01  0.43067360184E+01 -0.18169386551E+02  0.72461577747E+02  0.70000009708E+02 0.  0.
        -12    1    1    2    0    0 -0.14157357187E+01 -0.43067360184E+01  0.18169386551E+02  0.18726422253E+02  0.00000000000E+00 0.  1.
         11    1    3    3    0    0  0.83328807393E+01  0.20764825816E+02 -0.23554217384E+02  0.32487167458E+02  0.51100000000E-03 0. -1.
        -11    1    3    3    0    0 -0.15258770884E+02 -0.14854023182E+01  0.14026727101E+02  0.20779450964E+02  0.51100000000E-03 0.  1.
         12    1    3    3    0    0  0.83416258632E+01 -0.14972687479E+02 -0.86418962683E+01  0.19194959325E+02  0.00000000000E+00 0. -1.
</event>
<event>
 7    1  0.1874105E-013  0.7246156E+02  0.7816164E-02  0.1226708E+00
        -11   -1    0    0    0    0  0.00000000000E+00  0.00000000000E+00  0.45593999997E+02  0.45594000000E+02  0.51100000000E-03 0. -1.
         11   -1    0    0    0    0 -0.00000000000E+00 -0.00000000000E+00 -0.45593999997E+02  0.45594000000E+02  0.51100000000E-03 0.  1.
    9900012    2    1    2    0    0 -0.88747344138E+01 -0.10647005873E+02  0.12592054575E+02  0.72461561914E+02  0.69999989083E+02 0.  0.
        -12    1    1    2    0    0  0.88747344138E+01  0.10647005873E+02 -0.12592054575E+02  0.18726438086E+02  0.00000000000E+00 0.  1.
         11    1    3    3    0    0 -0.13719430925E+02 -0.13062983958E+02  0.21340520732E+02  0.28535629661E+02  0.51100000000E-03 0. -1.
        -11    1    3    3    0    0  0.22571173364E+02  0.80641069819E+01 -0.16920110904E+01  0.24028120822E+02  0.51100000000E-03 0.  1.
         12    1    3    3    0    0 -0.17726476852E+02 -0.56481288972E+01 -0.70564550668E+01  0.19897811431E+02  0.00000000000E+00 0. -1.
</event>
<event>
 7    1  0.1874105E-013  0.7246131E+02  0.7816164E-02  0.1226709E+00
        -11   -1    0    0    0    0  0.00000000000E+00  0.00000000000E+00  0.45593999997E+02  0.45594000000E+02  0.51100000000E-03 0.  1.
         11   -1    0    0    0    0 -0.00000000000E+00 -0.00000000000E+00 -0.45593999997E+02  0.45594000000E+02  0.51100000000E-03 0. -1.
    9900012    2    1    2    0    0  0.59754430970E+01 -0.10039809997E+02 -0.14635070628E+02  0.72461307893E+02  0.69999658173E+02 0.  0.
        -12    1    1    2    0    0 -0.59754430970E+01  0.10039809997E+02  0.14635070628E+02  0.18726692107E+02  0.00000000000E+00 0.  1.
         11    1    3    3    0    0 -0.12735278335E+02 -0.13844456202E+02 -0.26285193874E+01  0.18993825213E+02  0.51100000000E-03 0. -1.
        -11    1    3    3    0    0  0.11696496392E+02  0.25952238461E+02 -0.32959996883E+01  0.28656418534E+02  0.51100000000E-03 0.  1.
        -12    1    3    3    0    0  0.70142250405E+01 -0.22147592257E+02 -0.87105515523E+01  0.24811064146E+02  0.00000000000E+00 0.  1.
</event>
<event>
 7    1  0.1874105E-013  0.7246159E+02  0.7816164E-02  0.1226708E+00
        -11   -1    0    0    0    0  0.00000000000E+00  0.00000000000E+00  0.45593999997E+02  0.45594000000E+02  0.51100000000E-03 0.  1.
         11   -1    0    0    0    0 -0.00000000000E+00 -0.00000000000E+00 -0.45593999997E+02  0.45594000000E+02  0.51100000000E-03 0. -1.
    9900012    2    1    2    0    0  0.10436892064E+01  0.60315624110E+01 -0.17697718833E+02  0.72461593934E+02  0.70000030794E+02 0.  0.
        -12    1    1    2    0    0 -0.10436892064E+01 -0.60315624110E+01  0.17697718833E+02  0.18726406066E+02  0.00000000000E+00 0.  1.
         11    1    3    3    0    0 -0.13300911983E+02  0.23770307945E+02 -0.23235215964E+02  0.35802472827E+02  0.51100000000E-03 0. -1.
        -11    1    3    3    0    0  0.14765430076E+02 -0.12097578893E+02 -0.89676118974E+01  0.21089983494E+02  0.51100000000E-03 0.  1.
         12    1    3    3    0    0 -0.42082888629E+00 -0.56411666413E+01  0.14505109029E+02  0.15569137612E+02  0.00000000000E+00 0. -1.
</event>
<event>
 7    1  0.1874105E-013  0.7246164E+02  0.7816164E-02  0.1226708E+00
        -11   -1    0    0    0    0  0.00000000000E+00  0.00000000000E+00  0.45593999997E+02  0.45594000000E+02  0.51100000000E-03 0. -1.
         11   -1    0    0    0    0 -0.00000000000E+00 -0.00000000000E+00 -0.45593999997E+02  0.45594000000E+02  0.51100000000E-03 0.  1.
    9900012    2    1    2    0    0 -0.30571824528E+01 -0.44296231026E+01  0.17936242714E+02  0.72461635481E+02  0.70000084918E+02 0.  0.
        -12    1    1    2    0    0  0.30571824528E+01  0.44296231026E+01 -0.17936242714E+02  0.18726364519E+02  0.00000000000E+00 0.  1.
         11    1    3    3    0    0  0.12092036645E+02 -0.37782175341E+01  0.33351344910E+02  0.35676385544E+02  0.51100000000E-03 0. -1.
        -11    1    3    3    0    0 -0.10578594829E+02  0.14172723172E+02 -0.61933378603E+01  0.18738468048E+02  0.51100000000E-03 0.  1.
         12    1    3    3    0    0 -0.45706242684E+01 -0.14824128740E+02 -0.92217643354E+01  0.18046781890E+02  0.00000000000E+00 0. -1.
</event>
<event>
 7    1  0.1874105E-013  0.7246154E+02  0.7816164E-02  0.1226708E+00
        -11   -1    0    0    0    0  0.00000000000E+00  0.00000000000E+00  0.45593999997E+02  0.45594000000E+02  0.51100000000E-03 0.  1.
         11   -1    0    0    0    0 -0.00000000000E+00 -0.00000000000E+00 -0.45593999997E+02  0.45594000000E+02  0.51100000000E-03 0. -1.
    9900012    2    1    2    0    0 -0.10871396325E+02 -0.15194294590E+02 -0.12752642636E+01  0.72461544246E+02  0.69999966068E+02 0.  0.
        -12    1    1    2    0    0  0.10871396325E+02  0.15194294590E+02  0.12752642636E+01  0.18726455754E+02  0.00000000000E+00 0.  1.
         11    1    3    3    0    0  0.12066833811E+02  0.31431573380E+01 -0.10062217014E+02  0.16022987480E+02  0.51100000000E-03 0.  1.
        -11    1    3    3    0    0 -0.33844480864E+02 -0.19448564083E+02  0.17164096449E+02  0.42641549421E+02  0.51100000000E-03 0. -1.
         12    1    3    3    0    0  0.10906250728E+02  0.11111121543E+01 -0.83771436982E+01  0.13797007346E+02  0.00000000000E+00 0. -1.
</event>
<event>
 7    1  0.1874105E-013  0.7246155E+02  0.7816164E-02  0.1226708E+00
        -11   -1    0    0    0    0  0.00000000000E+00  0.00000000000E+00  0.45593999997E+02  0.45594000000E+02  0.51100000000E-03 0. -1.
         11   -1    0    0    0    0 -0.00000000000E+00 -0.00000000000E+00 -0.45593999997E+02  0.45594000000E+02  0.51100000000E-03 0.  1.
    9900012    2    1    2    0    0 -0.78714405279E+01 -0.13472836004E+02  0.10353898033E+02  0.72461545705E+02  0.69999967968E+02 0.  0.
        -12    1    1    2    0    0  0.78714405279E+01  0.13472836004E+02 -0.10353898033E+02  0.18726454295E+02  0.00000000000E+00 0.  1.
         11    1    3    3    0    0 -0.44822964778E+01 -0.14579437277E+02  0.54282198661E+01  0.16190013719E+02  0.51100000000E-03 0. -1.
        -11    1    3    3    0    0 -0.63336557283E+01  0.27459872290E+02  0.86857503262E+01  0.29489015583E+02  0.51100000000E-03 0.  1.
        -12    1    3    3    0    0  0.29445116781E+01 -0.26353271016E+02 -0.37600721592E+01  0.26782516404E+02  0.00000000000E+00 0.  1.
</event>
<event>
 7    1  0.1874105E-013  0.7246163E+02  0.7816164E-02  0.1226708E+00
        -11   -1    0    0    0    0  0.00000000000E+00  0.00000000000E+00  0.45593999997E+02  0.45594000000E+02  0.51100000000E-03 0. -1.
         11   -1    0    0    0    0 -0.00000000000E+00 -0.00000000000E+00 -0.45593999997E+02  0.45594000000E+02  0.51100000000E-03 0.  1.
    9900012    2    1    2    0    0 -0.20562400231E+01  0.78629916834E+01  0.16870749573E+02  0.72461629492E+02  0.70000077116E+02 0.  0.
        -12    1    1    2    0    0  0.20562400231E+01 -0.78629916834E+01 -0.16870749573E+02  0.18726370508E+02  0.00000000000E+00 0.  1.
         11    1    3    3    0    0 -0.18810880086E+02 -0.16962117351E+02  0.13168182096E+02  0.28547568279E+02  0.51100000000E-03 0.  1.
        -11    1    3    3    0    0 -0.18056521162E-01  0.24251916396E+02 -0.53655168995E+01  0.24838368440E+02  0.51100000000E-03 0. -1.
         12    1    3    3    0    0  0.16772696585E+02  0.57319263900E+00  0.90680843766E+01  0.19075692773E+02  0.00000000000E+00 0. -1.
</event>
<event>
 7    1  0.1874105E-013  0.7246155E+02  0.7816164E-02  0.1226708E+00
        -11   -1    0    0    0    0  0.00000000000E+00  0.00000000000E+00  0.45593999997E+02  0.45594000000E+02  0.51100000000E-03 0.  1.
         11   -1    0    0    0    0 -0.00000000000E+00 -0.00000000000E+00 -0.45593999997E+02  0.45594000000E+02  0.51100000000E-03 0. -1.
    9900012    2    1    2    0    0 -0.14717848557E+02 -0.11334106787E+02  0.23670224583E+01  0.72461552442E+02  0.69999976744E+02 0.  0.
        -12    1    1    2    0    0  0.14717848557E+02  0.11334106787E+02 -0.23670224583E+01  0.18726447558E+02  0.00000000000E+00 0.  1.
         11    1    3    3    0    0 -0.54697961460E+01  0.22554521567E+02 -0.20464529824E+01  0.23298349363E+02  0.51100000000E-03 0. -1.
        -11    1    3    3    0    0  0.12059954321E+02 -0.90028898956E+01 -0.35171467073E+01  0.15455253020E+02  0.51100000000E-03 0.  1.
         12    1    3    3    0    0 -0.21308006733E+02 -0.24885738458E+02  0.79306221480E+01  0.33707950059E+02  0.00000000000E+00 0. -1.
</event>
<event>
 7    1  0.1874105E-013  0.7246154E+02  0.7816164E-02  0.1226708E+00
        -11   -1    0    0    0    0  0.00000000000E+00  0.00000000000E+00  0.45593999997E+02  0.45594000000E+02  0.51100000000E-03 0. -1.
         11   -1    0    0    0    0 -0.00000000000E+00 -0.00000000000E+00 -0.45593999997E+02  0.45594000000E+02  0.51100000000E-03 0.  1.
    9900012    2    1    2    0    0  0.71921469224E+00 -0.11598862889E+02  0.14684321347E+02  0.72461543221E+02  0.69999964732E+02 0.  0.
        -12    1    1    2    0    0 -0.71921469223E+00  0.11598862889E+02 -0.14684321347E+02  0.18726456779E+02  0.00000000000E+00 0.  1.
         11    1    3    3    0    0 -0.24413832926E+02 -0.86057994889E+01  0.77311352059E+01  0.27016022558E+02  0.51100000000E-03 0. -1.
        -11    1    3    3    0    0  0.27847724076E+02 -0.27342551486E+01  0.18524088292E+02  0.33557618133E+02  0.51100000000E-03 0.  1.
        -12    1    3    3    0    0 -0.27146764578E+01 -0.25880825128E+00 -0.11570902151E+02  0.11887902530E+02  0.00000000000E+00 0.  1.
</event>
<event>
 8    1  0.1874105E-013  0.7246148E+02  0.7816164E-02  0.1226708E+00
        -11   -1    0    0    0    0  0.00000000000E+00  0.00000000000E+00  0.45593999997E+02  0.45594000000E+02  0.51100000000E-03 0.  1.
         11   -1    0    0    0    0 -0.00000000000E+00 -0.00000000000E+00 -0.45593999997E+02  0.45594000000E+02  0.51100000000E-03 0. -1.
    9900012    2    1    2    0    0 -0.12257732000E+02 -0.84893955768E+01 -0.11329633710E+02  0.72461483212E+02  0.69999886558E+02 0.  0.
        -24    2    3    3    0    0 -0.14445901222E+02  0.74885094173E+01 -0.40596603783E+01  0.54771541294E+02  0.52140953750E+02 0.  0.
        -12    1    1    2    0    0  0.12257732000E+02  0.84893955768E+01  0.11329633710E+02  0.18726516788E+02  0.00000000000E+00 0.  1.
         11    1    4    4    0    0  0.65935371029E+01  0.12085765661E+02 -0.22527695394E+02  0.26401468201E+02  0.51100000000E-03 0. -1.
        -11    1    3    3    0    0  0.21881692222E+01 -0.15977904994E+02 -0.72699733313E+01  0.17689941918E+02  0.51100000000E-03 0.  1.
        -12    1    4    4    0    0 -0.21039438325E+02 -0.45972562441E+01  0.18468035015E+02  0.28370073093E+02  0.00000000000E+00 0.  1.
</event>
<event>
 7    1  0.1874105E-013  0.7246158E+02  0.7816164E-02  0.1226708E+00
        -11   -1    0    0    0    0  0.00000000000E+00  0.00000000000E+00  0.45593999997E+02  0.45594000000E+02  0.51100000000E-03 0.  1.
         11   -1    0    0    0    0 -0.00000000000E+00 -0.00000000000E+00 -0.45593999997E+02  0.45594000000E+02  0.51100000000E-03 0. -1.
    9900012    2    1    2    0    0  0.29572626629E+01  0.12815241114E+02 -0.13330529747E+02  0.72461579343E+02  0.70000011788E+02 0.  0.
        -12    1    1    2    0    0 -0.29572626629E+01 -0.12815241114E+02  0.13330529747E+02  0.18726420657E+02  0.00000000000E+00 0.  1.
         11    1    3    3    0    0  0.19131657602E+02 -0.17471981632E+02 -0.22014935440E+02  0.33999233042E+02  0.51100000000E-03 0. -1.
        -11    1    3    3    0    0 -0.78411547804E+01  0.18747475302E+02  0.12329382473E+02  0.23768996843E+02  0.51100000000E-03 0.  1.
         12    1    3    3    0    0 -0.83332401583E+01  0.11539747444E+02 -0.36449767798E+01  0.14693349459E+02  0.00000000000E+00 0. -1.
</event>
<event>
 7    1  0.1874105E-013  0.7246152E+02  0.7816164E-02  0.1226708E+00
        -11   -1    0    0    0    0  0.00000000000E+00  0.00000000000E+00  0.45593999997E+02  0.45594000000E+02  0.51100000000E-03 0.  1.
         11   -1    0    0    0    0 -0.00000000000E+00 -0.00000000000E+00 -0.45593999997E+02  0.45594000000E+02  0.51100000000E-03 0. -1.
    9900012    2    1    2    0    0 -0.12569410036E+02  0.12783157801E+01 -0.13822332856E+02  0.72461520206E+02  0.69999934751E+02 0.  0.
        -12    1    1    2    0    0  0.12569410036E+02 -0.12783157801E+01  0.13822332856E+02  0.18726479794E+02  0.00000000000E+00 0.  1.
         11    1    3    3    0    0 -0.12426435598E+02  0.13067373564E+01  0.18864257591E+01  0.12636552798E+02  0.51100000000E-03 0. -1.
        -11    1    3    3    0    0  0.23607073900E+02  0.46428612774E+01  0.85715457402E+01  0.25540585263E+02  0.51100000000E-03 0.  1.
        -12    1    3    3    0    0 -0.23750048338E+02 -0.46712828537E+01 -0.24280304355E+02  0.34284382146E+02  0.00000000000E+00 0.  1.
</event>
<event>
 7    1  0.1874105E-013  0.7246157E+02  0.7816164E-02  0.1226708E+00
        -11   -1    0    0    0    0  0.00000000000E+00  0.00000000000E+00  0.45593999997E+02  0.45594000000E+02  0.51100000000E-03 0. -1.
         11   -1    0    0    0    0 -0.00000000000E+00 -0.00000000000E+00 -0.45593999997E+02  0.45594000000E+02  0.51100000000E-03 0.  1.
    9900012    2    1    2    0    0 -0.41371016318E+01  0.18209364250E+02  0.14081038021E+01  0.72461566473E+02  0.69999995023E+02 0.  0.
        -12    1    1    2    0    0  0.41371016318E+01 -0.18209364250E+02 -0.14081038021E+01  0.18726433527E+02  0.00000000000E+00 0.  1.
         11    1    3    3    0    0 -0.56073976387E+01 -0.21350973588E+00  0.16712882664E+02  0.17629774301E+02  0.51100000000E-03 0. -1.
        -11    1    3    3    0    0  0.16812059259E+02 -0.43829984337E+01 -0.20486433343E+02  0.26861682061E+02  0.51100000000E-03 0.  1.
        -12    1    3    3    0    0 -0.15341763252E+02  0.22805872420E+02  0.51816544804E+01  0.27970110111E+02  0.00000000000E+00 0.  1.
</event>
<event>
 7    1  0.1874105E-013  0.7246135E+02  0.7816164E-02  0.1226709E+00
        -11   -1    0    0    0    0  0.00000000000E+00  0.00000000000E+00  0.45593999997E+02  0.45594000000E+02  0.51100000000E-03 0. -1.
         11   -1    0    0    0    0 -0.00000000000E+00 -0.00000000000E+00 -0.45593999997E+02  0.45594000000E+02  0.51100000000E-03 0.  1.
    9900012    2    1    2    0    0  0.82289467180E+01  0.15785644638E+02  0.58125170504E+01  0.72461347999E+02  0.69999710418E+02 0.  0.
        -12    1    1    2    0    0 -0.82289467180E+01 -0.15785644638E+02 -0.58125170504E+01  0.18726652001E+02  0.00000000000E+00 0.  1.
         11    1    3    3    0    0  0.25986846795E+02  0.34237980517E+01  0.27367111860E+02  0.37894556486E+02  0.51100000000E-03 0. -1.
        -11    1    3    3    0    0 -0.35651805163E+01 -0.48634049318E+00 -0.13194974789E+02  0.13676783216E+02  0.51100000000E-03 0.  1.
         12    1    3    3    0    0 -0.14192719561E+02  0.12848187079E+02 -0.83596200201E+01  0.20890008297E+02  0.00000000000E+00 0. -1.
</event>
<event>
 7    1  0.1918752E-013  0.7246151E+02  0.7816164E-02  0.1226708E+00
        -11   -1    0    0    0    0  0.00000000000E+00  0.00000000000E+00  0.45593999997E+02  0.45594000000E+02  0.51100000000E-03 0. -1.
         11   -1    0    0    0    0 -0.00000000000E+00 -0.00000000000E+00 -0.45593999997E+02  0.45594000000E+02  0.51100000000E-03 0.  1.
    9900012    2    1    2    0    0  0.76366283651E+01  0.70515240762E+01  0.15576890800E+02  0.72461505091E+02  0.69999915061E+02 0.  0.
        -12    1    1    2    0    0 -0.76366283651E+01 -0.70515240762E+01 -0.15576890800E+02  0.18726494909E+02  0.00000000000E+00 0.  1.
         11    1    3    3    0    0 -0.25066072963E+02  0.14221897702E+02  0.11337735434E+02  0.30969575927E+02  0.51100000000E-03 0. -1.
        -11    1    3    3    0    0  0.24512508058E+02  0.62931742590E+01  0.58206028855E+00  0.25314144030E+02  0.51100000000E-03 0.  1.
        -12    1    3    3    0    0  0.81901932702E+01 -0.13463547885E+02  0.36570950771E+01  0.16177785135E+02  0.00000000000E+00 0.  1.
</event>
<event>
 7    1  0.1874105E-013  0.7246160E+02  0.7816164E-02  0.1226708E+00
        -11   -1    0    0    0    0  0.00000000000E+00  0.00000000000E+00  0.45593999997E+02  0.45594000000E+02  0.51100000000E-03 0.  1.
         11   -1    0    0    0    0 -0.00000000000E+00 -0.00000000000E+00 -0.45593999997E+02  0.45594000000E+02  0.51100000000E-03 0. -1.
    9900012    2    1    2    0    0 -0.88601808515E+01 -0.84142837209E+00 -0.16476267904E+02  0.72461595901E+02  0.70000033358E+02 0.  0.
        -12    1    1    2    0    0  0.88601808515E+01  0.84142837209E+00  0.16476267904E+02  0.18726404099E+02  0.00000000000E+00 0.  1.
         11    1    3    3    0    0 -0.19673039237E+02  0.11032240208E+02 -0.16426359770E+02  0.27902761376E+02  0.51100000000E-03 0. -1.
        -11    1    3    3    0    0  0.22776667446E+02  0.54320439926E+01  0.14986956299E+01  0.23463370830E+02  0.51100000000E-03 0.  1.
         12    1    3    3    0    0 -0.11963809060E+02 -0.17305712573E+02 -0.15486037642E+01  0.21095463695E+02  0.00000000000E+00 0. -1.
</event>
<event>
 7    1  0.1874105E-013  0.7246115E+02  0.7816164E-02  0.1226709E+00
        -11   -1    0    0    0    0  0.00000000000E+00  0.00000000000E+00  0.45593999997E+02  0.45594000000E+02  0.51100000000E-03 0.  1.
         11   -1    0    0    0    0 -0.00000000000E+00 -0.00000000000E+00 -0.45593999997E+02  0.45594000000E+02  0.51100000000E-03 0. -1.
    9900012    2    1    2    0    0  0.12236120399E+02 -0.13056838240E+02 -0.55218815941E+01  0.72461151798E+02  0.69999454828E+02 0.  0.
        -12    1    1    2    0    0 -0.12236120399E+02  0.13056838240E+02  0.55218815941E+01  0.18726848202E+02  0.00000000000E+00 0.  1.
         11    1    3    3    0    0 -0.22818257374E+01 -0.88930630099E+01  0.11133739521E+02  0.14430989376E+02  0.51100000000E-03 0. -1.
        -11    1    3    3    0    0  0.24402703193E+02 -0.38470070300E+00 -0.31469758850E+02  0.39824435214E+02  0.51100000000E-03 0.  1.
        -12    1    3    3    0    0 -0.98847570562E+01 -0.37790745270E+01  0.14814137735E+02  0.18205727208E+02  0.00000000000E+00 0.  1.
</event>
<event>
 7    1  0.1874105E-013  0.7246151E+02  0.7816164E-02  0.1226708E+00
        -11   -1    0    0    0    0  0.00000000000E+00  0.00000000000E+00  0.45593999997E+02  0.45594000000E+02  0.51100000000E-03 0.  1.
         11   -1    0    0    0    0 -0.00000000000E+00 -0.00000000000E+00 -0.45593999997E+02  0.45594000000E+02  0.51100000000E-03 0. -1.
    9900012    2    1    2    0    0  0.17445232283E+02 -0.63997268430E+01 -0.23213460676E+01  0.72461513927E+02  0.69999926571E+02 0.  0.
        -12    1    1    2    0    0 -0.17445232283E+02  0.63997268430E+01  0.23213460676E+01  0.18726486073E+02  0.00000000000E+00 0.  1.
         11    1    3    3    0    0  0.18343145682E+02  0.10431360504E+02 -0.16544183409E+02  0.26814068703E+02  0.51100000000E-03 0. -1.
        -11    1    3    3    0    0 -0.42901860466E+01  0.53350725387E+01  0.21107635205E+02  0.22190109497E+02  0.51100000000E-03 0.  1.
         12    1    3    3    0    0  0.33922726471E+01 -0.22166159885E+02 -0.68847978632E+01  0.23457335727E+02  0.00000000000E+00 0. -1.
</event>
<event>
 7    1  0.1874105E-013  0.7246154E+02  0.7816164E-02  0.1226708E+00
        -11   -1    0    0    0    0  0.00000000000E+00  0.00000000000E+00  0.45593999997E+02  0.45594000000E+02  0.51100000000E-03 0.  1.
         11   -1    0    0    0    0 -0.00000000000E+00 -0.00000000000E+00 -0.45593999997E+02  0.45594000000E+02  0.51100000000E-03 0. -1.
    9900012    2    1    2    0    0 -0.15679651030E+02 -0.86980336228E+01 -0.54011941454E+01  0.72461544288E+02  0.69999966122E+02 0.  0.
        -12    1    1    2    0    0  0.15679651030E+02  0.86980336228E+01  0.54011941454E+01  0.18726455712E+02  0.00000000000E+00 0.  1.
         11    1    3    3    0    0 -0.26325758041E+02  0.17129308404E+01 -0.98290580044E+01  0.28152975865E+02  0.51100000000E-03 0. -1.
        -11    1    3    3    0    0  0.15380480314E+01 -0.25168857390E+02  0.82861176873E+01  0.26542357105E+02  0.51100000000E-03 0.  1.
         12    1    3    3    0    0  0.91080589798E+01  0.14757892927E+02 -0.38582538283E+01  0.17766211319E+02  0.00000000000E+00 0. -1.
</event>
<event>
 7    1  0.1874105E-013  0.7246152E+02  0.7816164E-02  0.1226708E+00
        -11   -1    0    0    0    0  0.00000000000E+00  0.00000000000E+00  0.45593999997E+02  0.45594000000E+02  0.51100000000E-03 0.  1.
         11   -1    0    0    0    0 -0.00000000000E+00 -0.00000000000E+00 -0.45593999997E+02  0.45594000000E+02  0.51100000000E-03 0. -1.
    9900012    2    1    2    0    0  0.38617265643E+01  0.23952095616E+01 -0.18166754185E+02  0.72461523596E+02  0.69999939167E+02 0.  0.
        -12    1    1    2    0    0 -0.38617265643E+01 -0.23952095616E+01  0.18166754185E+02  0.18726476404E+02  0.00000000000E+00 0.  1.
         11    1    3    3    0    0 -0.15008610006E+02  0.37430220699E+01  0.78666121090E+01  0.17353736625E+02  0.51100000000E-03 0. -1.
        -11    1    3    3    0    0  0.23568126118E+02  0.17085025992E+02 -0.12077950808E+02  0.31515576749E+02  0.51100000000E-03 0.  1.
        -12    1    3    3    0    0 -0.46977895476E+01 -0.18432838500E+02 -0.13955415485E+02  0.23592210222E+02  0.00000000000E+00 0.  1.
</event>
<event>
 7    1  0.1874105E-013  0.7246160E+02  0.7816164E-02  0.1226708E+00
        -11   -1    0    0    0    0  0.00000000000E+00  0.00000000000E+00  0.45593999997E+02  0.45594000000E+02  0.51100000000E-03 0.  1.
         11   -1    0    0    0    0 -0.00000000000E+00 -0.00000000000E+00 -0.45593999997E+02  0.45594000000E+02  0.51100000000E-03 0. -1.
    9900012    2    1    2    0    0  0.16421893031E+02 -0.81751062031E+01 -0.37639294603E+01  0.72461598927E+02  0.70000037299E+02 0.  0.
        -12    1    1    2    0    0 -0.16421893031E+02  0.81751062031E+01  0.37639294603E+01  0.18726401073E+02  0.00000000000E+00 0.  1.
         11    1    3    3    0    0  0.29689181501E+02 -0.74841979352E+00 -0.14897931169E+02  0.33225833078E+02  0.51100000000E-03 0. -1.
        -11    1    3    3    0    0 -0.17307709779E+02  0.96270875332E+00 -0.71232896872E+01  0.18740994695E+02  0.51100000000E-03 0.  1.
         12    1    3    3    0    0  0.40404213090E+01 -0.83893951629E+01  0.18257291396E+02  0.20494771154E+02  0.00000000000E+00 0. -1.
</event>
<event>
 7    1  0.1874105E-013  0.7246158E+02  0.7816164E-02  0.1226708E+00
        -11   -1    0    0    0    0  0.00000000000E+00  0.00000000000E+00  0.45593999997E+02  0.45594000000E+02  0.51100000000E-03 0.  1.
         11   -1    0    0    0    0 -0.00000000000E+00 -0.00000000000E+00 -0.45593999997E+02  0.45594000000E+02  0.51100000000E-03 0. -1.
    9900012    2    1    2    0    0  0.22778631109E+01  0.14664970778E+01 -0.18529423210E+02  0.72461580200E+02  0.70000012904E+02 0.  0.
        -12    1    1    2    0    0 -0.22778631109E+01 -0.14664970778E+01  0.18529423210E+02  0.18726419800E+02  0.00000000000E+00 0.  1.
         11    1    3    3    0    0  0.88248890024E+01 -0.70447293730E+01 -0.24776669515E+01  0.11560523847E+02  0.51100000000E-03 0. -1.
        -11    1    3    3    0    0  0.94458875648E+01  0.25930516341E+02  0.63597180139E+01  0.28320707672E+02  0.51100000000E-03 0.  1.
        -12    1    3    3    0    0 -0.15992913456E+02 -0.17419289890E+02 -0.22411474272E+02  0.32580348680E+02  0.00000000000E+00 0.  1.
</event>
<event>
 7    1  0.1874105E-013  0.7246159E+02  0.7816164E-02  0.1226708E+00
        -11   -1    0    0    0    0  0.00000000000E+00  0.00000000000E+00  0.45593999997E+02  0.45594000000E+02  0.51100000000E-03 0.  1.
         11   -1    0    0    0    0 -0.00000000000E+00 -0.00000000000E+00 -0.45593999997E+02  0.45594000000E+02  0.51100000000E-03 0. -1.
    9900012    2    1    2    0    0  0.18543770374E+02 -0.14949214413E+01  0.21382997302E+01  0.72461587222E+02  0.70000022052E+02 0.  0.
        -12    1    1    2    0    0 -0.18543770374E+02  0.14949214413E+01 -0.21382997302E+01  0.18726412778E+02  0.00000000000E+00 0.  1.
         11    1    3    3    0    0 -0.25694348981E+01 -0.13841594996E+02 -0.25519623751E+02  0.29145204483E+02  0.51100000000E-03 0. -1.
        -11    1    3    3    0    0  0.45232754342E+01  0.14283873282E+02  0.19873893315E+02  0.24888967281E+02  0.51100000000E-03 0.  1.
         12    1    3    3    0    0  0.16589929838E+02 -0.19371997275E+01  0.77840301666E+01  0.18427415457E+02  0.00000000000E+00 0. -1.
</event>
<event>
 7    1  0.1874105E-013  0.7246158E+02  0.7816164E-02  0.1226708E+00
        -11   -1    0    0    0    0  0.00000000000E+00  0.00000000000E+00  0.45593999997E+02  0.45594000000E+02  0.51100000000E-03 0. -1.
         11   -1    0    0    0    0 -0.00000000000E+00 -0.00000000000E+00 -0.45593999997E+02  0.45594000000E+02  0.51100000000E-03 0.  1.
    9900012    2    1    2    0    0 -0.83099681608E+01 -0.80456773244E+01  0.14727194107E+02  0.72461581744E+02  0.70000014915E+02 0.  0.
        -12    1    1    2    0    0  0.83099681608E+01  0.80456773244E+01 -0.14727194107E+02  0.18726418256E+02  0.00000000000E+00 0.  1.
         11    1    3    3    0    0 -0.32342155415E+02 -0.52237103435E+01  0.13752161489E+02  0.35530608108E+02  0.51100000000E-03 0. -1.
        -11    1    3    3    0    0  0.74696220619E+01 -0.79305389971E+01 -0.11296594298E+02  0.15694003490E+02  0.51100000000E-03 0.  1.
         12    1    3    3    0    0  0.16562565193E+02  0.51085720162E+01  0.12271626917E+02  0.21236970146E+02  0.00000000000E+00 0. -1.
</event>
<event>
 7    1  0.1874105E-013  0.7246155E+02  0.7816164E-02  0.1226708E+00
        -11   -1    0    0    0    0  0.00000000000E+00  0.00000000000E+00  0.45593999997E+02  0.45594000000E+02  0.51100000000E-03 0.  1.
         11   -1    0    0    0    0 -0.00000000000E+00 -0.00000000000E+00 -0.45593999997E+02  0.45594000000E+02  0.51100000000E-03 0. -1.
    9900012    2    1    2    0    0 -0.64905487235E+00 -0.14879276955E+02  0.11351900038E+02  0.72461553743E+02  0.69999978439E+02 0.  0.
        -12    1    1    2    0    0  0.64905487235E+00  0.14879276955E+02 -0.11351900038E+02  0.18726446257E+02  0.00000000000E+00 0.  1.
         11    1    3    3    0    0  0.12447920238E+02 -0.12149064878E+02  0.37821502942E+02  0.41629515740E+02  0.51100000000E-03 0.  1.
        -11    1    3    3    0    0 -0.12909639373E+02 -0.82255529398E+00 -0.18110103232E+02  0.22255588630E+02  0.51100000000E-03 0. -1.
        -12    1    3    3    0    0 -0.18733573825E+00 -0.19076567834E+01 -0.83594996717E+01  0.85764493727E+01  0.00000000000E+00 0.  1.
</event>
<event>
 7    1  0.1874105E-013  0.7246167E+02  0.7816164E-02  0.1226708E+00
        -11   -1    0    0    0    0  0.00000000000E+00  0.00000000000E+00  0.45593999997E+02  0.45594000000E+02  0.51100000000E-03 0.  1.
         11   -1    0    0    0    0 -0.00000000000E+00 -0.00000000000E+00 -0.45593999997E+02  0.45594000000E+02  0.51100000000E-03 0. -1.
    9900012    2    1    2    0    0 -0.53163856597E+01  0.78217396917E+01 -0.16162671405E+02  0.72461667865E+02  0.70000127104E+02 0.  0.
        -12    1    1    2    0    0  0.53163856597E+01 -0.78217396917E+01  0.16162671405E+02  0.18726332135E+02  0.00000000000E+00 0.  1.
         11    1    3    3    0    0  0.62467100924E+01  0.24616367057E+02 -0.20278257490E+02  0.32499148314E+02  0.51100000000E-03 0. -1.
        -11    1    3    3    0    0  0.84415090212E+01 -0.17693677710E+02  0.47819702232E+00  0.19610047887E+02  0.51100000000E-03 0.  1.
        -12    1    3    3    0    0 -0.20004604773E+02  0.89905034543E+00  0.36373890628E+01  0.20352471665E+02  0.00000000000E+00 0.  1.
</event>
<event>
 7    1  0.1874105E-013  0.7246167E+02  0.7816164E-02  0.1226708E+00
        -11   -1    0    0    0    0  0.00000000000E+00  0.00000000000E+00  0.45593999997E+02  0.45594000000E+02  0.51100000000E-03 0.  1.
         11   -1    0    0    0    0 -0.00000000000E+00 -0.00000000000E+00 -0.45593999997E+02  0.45594000000E+02  0.51100000000E-03 0. -1.
    9900012    2    1    2    0    0  0.79309154002E+01  0.15207939289E+02  0.75162795815E+01  0.72461673739E+02  0.70000134755E+02 0.  0.
        -12    1    1    2    0    0 -0.79309154002E+01 -0.15207939289E+02 -0.75162795815E+01  0.18726326261E+02  0.00000000000E+00 0.  1.
         11    1    3    3    0    0 -0.22878058375E+02  0.16663561593E+02  0.17198007175E+01  0.28355555977E+02  0.51100000000E-03 0. -1.
        -11    1    3    3    0    0  0.35719312512E+02 -0.12118299899E+01 -0.95697791871E+00  0.35752672980E+02  0.51100000000E-03 0.  1.
         12    1    3    3    0    0 -0.49103387369E+01 -0.24379231462E+00  0.67534567827E+01  0.83534447817E+01  0.00000000000E+00 0. -1.
</event>
<event>
 7    1  0.1874105E-013  0.7246159E+02  0.7816164E-02  0.1226708E+00
        -11   -1    0    0    0    0  0.00000000000E+00  0.00000000000E+00  0.45593999997E+02  0.45594000000E+02  0.51100000000E-03 0.  1.
         11   -1    0    0    0    0 -0.00000000000E+00 -0.00000000000E+00 -0.45593999997E+02  0.45594000000E+02  0.51100000000E-03 0. -1.
    9900012    2    1    2    0    0  0.89522710289E+00 -0.34768127859E+01 -0.18379029350E+02  0.72461591414E+02  0.70000027512E+02 0.  0.
        -12    1    1    2    0    0 -0.89522710289E+00  0.34768127859E+01  0.18379029350E+02  0.18726408586E+02  0.00000000000E+00 0.  1.
         11    1    3    3    0    0  0.22696510920E+02  0.67187464934E+01 -0.47957749378E+01  0.24151037657E+02  0.51100000000E-03 0. -1.
        -11    1    3    3    0    0 -0.28782161097E+02 -0.12106136873E+02 -0.21248243315E+02  0.37768494697E+02  0.51100000000E-03 0.  1.
         12    1    3    3    0    0  0.69808772797E+01  0.19105775940E+01  0.76649889032E+01  0.10542059060E+02  0.00000000000E+00 0. -1.
</event>
<event>
 7    1  0.1874105E-013  0.7246168E+02  0.7816164E-02  0.1226708E+00
        -11   -1    0    0    0    0  0.00000000000E+00  0.00000000000E+00  0.45593999997E+02  0.45594000000E+02  0.51100000000E-03 0.  1.
         11   -1    0    0    0    0 -0.00000000000E+00 -0.00000000000E+00 -0.45593999997E+02  0.45594000000E+02  0.51100000000E-03 0. -1.
    9900012    2    1    2    0    0 -0.16322131733E+02  0.77810759961E+01  0.48701221525E+01  0.72461675808E+02  0.70000137451E+02 0.  0.
        -12    1    1    2    0    0  0.16322131733E+02 -0.77810759961E+01 -0.48701221525E+01  0.18726324192E+02  0.00000000000E+00 0.  1.
         11    1    3    3    0    0 -0.25288903426E+01  0.84233541875E+01 -0.13487265745E+02  0.16101382539E+02  0.51100000000E-03 0. -1.
        -11    1    3    3    0    0  0.13428631421E+02 -0.13193918509E+02  0.18485051080E+02  0.26383796944E+02  0.51100000000E-03 0.  1.
        -12    1    3    3    0    0 -0.27221872811E+02  0.12551640318E+02 -0.12766318211E+00  0.29976496325E+02  0.00000000000E+00 0.  1.
</event>
<event>
 7    1  0.1874105E-013  0.7246153E+02  0.7816164E-02  0.1226708E+00
        -11   -1    0    0    0    0  0.00000000000E+00  0.00000000000E+00  0.45593999997E+02  0.45594000000E+02  0.51100000000E-03 0.  1.
         11   -1    0    0    0    0 -0.00000000000E+00 -0.00000000000E+00 -0.45593999997E+02  0.45594000000E+02  0.51100000000E-03 0. -1.
    9900012    2    1    2    0    0  0.10438853247E+02  0.15546236615E+02  0.15958241896E+00  0.72461532192E+02  0.69999950365E+02 0.  0.
        -12    1    1    2    0    0 -0.10438853247E+02 -0.15546236615E+02 -0.15958241896E+00  0.18726467808E+02  0.00000000000E+00 0.  1.
         11    1    3    3    0    0  0.27341251746E+02  0.26828099939E+02  0.11437991711E+02  0.39976476183E+02  0.51100000000E-03 0. -1.
        -11    1    3    3    0    0 -0.10793584052E+02 -0.13750221605E+02  0.20664944263E+01  0.17602285373E+02  0.51100000000E-03 0.  1.
         12    1    3    3    0    0 -0.61088144466E+01  0.24683582817E+01 -0.13344903718E+02  0.14882770636E+02  0.00000000000E+00 0. -1.
</event>
<event>
 7    1  0.1874105E-013  0.7246161E+02  0.7816164E-02  0.1226708E+00
        -11   -1    0    0    0    0  0.00000000000E+00  0.00000000000E+00  0.45593999997E+02  0.45594000000E+02  0.51100000000E-03 0.  1.
         11   -1    0    0    0    0 -0.00000000000E+00 -0.00000000000E+00 -0.45593999997E+02  0.45594000000E+02  0.51100000000E-03 0. -1.
    9900012    2    1    2    0    0  0.15623949767E+01 -0.11024275531E+02 -0.15056629514E+02  0.72461606291E+02  0.70000046892E+02 0.  0.
        -12    1    1    2    0    0 -0.15623949767E+01  0.11024275531E+02  0.15056629514E+02  0.18726393709E+02  0.00000000000E+00 0.  1.
         11    1    3    3    0    0 -0.38599812441E+01 -0.18297959944E+02 -0.28168107258E+02  0.33810605734E+02  0.51100000000E-03 0. -1.
        -11    1    3    3    0    0 -0.93188245051E+01  0.16113186468E+02  0.10175849914E+02  0.21213750023E+02  0.51100000000E-03 0.  1.
        -12    1    3    3    0    0  0.14741200726E+02 -0.88395020544E+01  0.29356278306E+01  0.17437250534E+02  0.00000000000E+00 0.  1.
</event>
<event>
 7    1  0.1874105E-013  0.7246158E+02  0.7816164E-02  0.1226708E+00
        -11   -1    0    0    0    0  0.00000000000E+00  0.00000000000E+00  0.45593999997E+02  0.45594000000E+02  0.51100000000E-03 0. -1.
         11   -1    0    0    0    0 -0.00000000000E+00 -0.00000000000E+00 -0.45593999997E+02  0.45594000000E+02  0.51100000000E-03 0.  1.
    9900012    2    1    2    0    0 -0.76432143048E+01 -0.44325771820E+01  0.16510977503E+02  0.72461579000E+02  0.70000011340E+02 0.  0.
        -12    1    1    2    0    0  0.76432143048E+01  0.44325771820E+01 -0.16510977503E+02  0.18726421000E+02  0.00000000000E+00 0.  1.
         11    1    3    3    0    0 -0.13005075954E+02 -0.26230575744E+02  0.12843990160E+02  0.31970974146E+02  0.51100000000E-03 0. -1.
        -11    1    3    3    0    0  0.18969014264E+02  0.85329470915E+01  0.51556972165E+01  0.21429323420E+02  0.51100000000E-03 0.  1.
         12    1    3    3    0    0 -0.13607152615E+02  0.13265051470E+02 -0.14887098732E+01  0.19061281433E+02  0.00000000000E+00 0. -1.
</event>
<event>
 7    1  0.1874105E-013  0.7246156E+02  0.7816164E-02  0.1226708E+00
        -11   -1    0    0    0    0  0.00000000000E+00  0.00000000000E+00  0.45593999997E+02  0.45594000000E+02  0.51100000000E-03 0.  1.
         11   -1    0    0    0    0 -0.00000000000E+00 -0.00000000000E+00 -0.45593999997E+02  0.45594000000E+02  0.51100000000E-03 0. -1.
    9900012    2    1    2    0    0  0.13264439260E+02 -0.13212993552E+02 -0.38857833977E+00  0.72461560386E+02  0.69999987093E+02 0.  0.
        -12    1    1    2    0    0 -0.13264439260E+02  0.13212993552E+02  0.38857833977E+00  0.18726439614E+02  0.00000000000E+00 0.  1.
         11    1    3    3    0    0 -0.78852130918E+01  0.21139667134E+02  0.37848455207E+01  0.22877656521E+02  0.51100000000E-03 0.  1.
        -11    1    3    3    0    0  0.25990450923E+02 -0.18121753373E+02 -0.69038273854E+01  0.32427832449E+02  0.51100000000E-03 0. -1.
        -12    1    3    3    0    0 -0.48407985717E+01 -0.16230907313E+02  0.27304035249E+01  0.17156071416E+02  0.00000000000E+00 0.  1.
</event>
<event>
 7    1  0.1874105E-013  0.7246162E+02  0.7816164E-02  0.1226708E+00
        -11   -1    0    0    0    0  0.00000000000E+00  0.00000000000E+00  0.45593999997E+02  0.45594000000E+02  0.51100000000E-03 0. -1.
         11   -1    0    0    0    0 -0.00000000000E+00 -0.00000000000E+00 -0.45593999997E+02  0.45594000000E+02  0.51100000000E-03 0.  1.
    9900012    2    1    2    0    0 -0.49797500082E+01 -0.14060039868E+02 -0.11322300990E+02  0.72461624725E+02  0.70000070906E+02 0.  0.
        -12    1    1    2    0    0  0.49797500082E+01  0.14060039868E+02  0.11322300990E+02  0.18726375275E+02  0.00000000000E+00 0.  1.
         11    1    3    3    0    0  0.26621011676E+02 -0.75474082447E+01  0.33619437378E+01  0.27873720595E+02  0.51100000000E-03 0.  1.
        -11    1    3    3    0    0 -0.29237606699E+02 -0.10891551532E+02 -0.20192840846E+02  0.37164692410E+02  0.51100000000E-03 0. -1.
        -12    1    3    3    0    0 -0.23631549850E+01  0.43789199082E+01  0.55085961182E+01  0.74232117199E+01  0.00000000000E+00 0.  1.
</event>
<event>
 7    1  0.1874105E-013  0.7246157E+02  0.7816164E-02  0.1226708E+00
        -11   -1    0    0    0    0  0.00000000000E+00  0.00000000000E+00  0.45593999997E+02  0.45594000000E+02  0.51100000000E-03 0. -1.
         11   -1    0    0    0    0 -0.00000000000E+00 -0.00000000000E+00 -0.45593999997E+02  0.45594000000E+02  0.51100000000E-03 0.  1.
    9900012    2    1    2    0    0 -0.13087502494E+02 -0.50220422926E+01  0.12416738761E+02  0.72461573972E+02  0.70000004791E+02 0.  0.
        -12    1    1    2    0    0  0.13087502494E+02  0.50220422926E+01 -0.12416738761E+02  0.18726426028E+02  0.00000000000E+00 0.  1.
         11    1    3    3    0    0 -0.20913349867E+02 -0.19345829662E+02  0.25353600066E+02  0.38137047140E+02  0.51100000000E-03 0. -1.
        -11    1    3    3    0    0  0.12403167305E+02  0.98471432559E+00  0.32463790806E+01  0.12858740175E+02  0.51100000000E-03 0.  1.
         12    1    3    3    0    0 -0.45773199325E+01  0.13339073044E+02 -0.16183240386E+02  0.21465786657E+02  0.00000000000E+00 0. -1.
</event>
<event>
 7    1  0.1874105E-013  0.7246170E+02  0.7816164E-02  0.1226708E+00
        -11   -1    0    0    0    0  0.00000000000E+00  0.00000000000E+00  0.45593999997E+02  0.45594000000E+02  0.51100000000E-03 0.  1.
         11   -1    0    0    0    0 -0.00000000000E+00 -0.00000000000E+00 -0.45593999997E+02  0.45594000000E+02  0.51100000000E-03 0. -1.
    9900012    2    1    2    0    0  0.11435600806E+02  0.11136053225E+02 -0.97923184389E+01  0.72461704381E+02  0.70000174672E+02 0.  0.
        -12    1    1    2    0    0 -0.11435600806E+02 -0.11136053225E+02  0.97923184389E+01  0.18726295619E+02  0.00000000000E+00 0.  1.
         11    1    3    3    0    0 -0.48937524932E+01  0.21388696877E+02  0.17251264149E+02  0.27911131875E+02  0.51100000000E-03 0. -1.
        -11    1    3    3    0    0  0.20944707098E+02 -0.14389488757E+02 -0.11647148424E+02  0.27953429285E+02  0.51100000000E-03 0.  1.
        -12    1    3    3    0    0 -0.46153537992E+01  0.41368451055E+01 -0.15396434164E+02  0.16597143221E+02  0.00000000000E+00 0.  1.
</event>
<event>
 7    1  0.1874105E-013  0.7246150E+02  0.7816164E-02  0.1226708E+00
        -11   -1    0    0    0    0  0.00000000000E+00  0.00000000000E+00  0.45593999997E+02  0.45594000000E+02  0.51100000000E-03 0. -1.
         11   -1    0    0    0    0 -0.00000000000E+00 -0.00000000000E+00 -0.45593999997E+02  0.45594000000E+02  0.51100000000E-03 0.  1.
    9900012    2    1    2    0    0  0.12883308100E+02 -0.13585621662E+02 -0.36487625855E+00  0.72461497972E+02  0.69999905786E+02 0.  0.
        -12    1    1    2    0    0 -0.12883308100E+02  0.13585621662E+02  0.36487625855E+00  0.18726502028E+02  0.00000000000E+00 0.  1.
         11    1    3    3    0    0  0.20963034551E+02  0.48708410105E+01  0.10349009193E+02  0.23880450190E+02  0.51100000000E-03 0. -1.
        -11    1    3    3    0    0 -0.18596997319E+02  0.32828035718E+01  0.52879889769E+01  0.19610913702E+02  0.51100000000E-03 0.  1.
         12    1    3    3    0    0  0.10517270867E+02 -0.21739266244E+02 -0.16001874428E+02  0.28970134079E+02  0.00000000000E+00 0. -1.
</event>
<event>
 7    1  0.1874105E-013  0.7246168E+02  0.7816164E-02  0.1226708E+00
        -11   -1    0    0    0    0  0.00000000000E+00  0.00000000000E+00  0.45593999997E+02  0.45594000000E+02  0.51100000000E-03 0. -1.
         11   -1    0    0    0    0 -0.00000000000E+00 -0.00000000000E+00 -0.45593999997E+02  0.45594000000E+02  0.51100000000E-03 0.  1.
    9900012    2    1    2    0    0  0.15345118322E+02  0.10986048745E+01 -0.10676861857E+02  0.72461682474E+02  0.70000146135E+02 0.  0.
        -12    1    1    2    0    0 -0.15345118322E+02 -0.10986048745E+01  0.10676861857E+02  0.18726317526E+02  0.00000000000E+00 0.  1.
         11    1    3    3    0    0  0.11798074219E+02 -0.11902680811E+02 -0.19918520290E+01  0.16877080332E+02  0.51100000000E-03 0. -1.
        -11    1    3    3    0    0  0.17846407074E+01  0.29969447576E+02 -0.19113239721E+02  0.35590288891E+02  0.51100000000E-03 0.  1.
        -12    1    3    3    0    0  0.17624033956E+01 -0.16968161891E+02  0.10428229893E+02  0.19994313251E+02  0.00000000000E+00 0.  1.
</event>
<event>
 7    1  0.1874105E-013  0.7246116E+02  0.7816164E-02  0.1226709E+00
        -11   -1    0    0    0    0  0.00000000000E+00  0.00000000000E+00  0.45593999997E+02  0.45594000000E+02  0.51100000000E-03 0.  1.
         11   -1    0    0    0    0 -0.00000000000E+00 -0.00000000000E+00 -0.45593999997E+02  0.45594000000E+02  0.51100000000E-03 0. -1.
    9900012    2    1    2    0    0 -0.10941161584E+02 -0.14407754168E+02  0.48375746170E+01  0.72461160300E+02  0.69999465904E+02 0.  0.
        -12    1    1    2    0    0  0.10941161584E+02  0.14407754168E+02 -0.48375746170E+01  0.18726839700E+02  0.00000000000E+00 0.  1.
         11    1    3    3    0    0  0.19015454412E+02 -0.12637197776E+02 -0.32123193181E+01  0.23056566739E+02  0.51100000000E-03 0.  1.
        -11    1    3    3    0    0 -0.20580546217E+02 -0.21191573153E+01 -0.14309941975E+02  0.25155996301E+02  0.51100000000E-03 0. -1.
         12    1    3    3    0    0 -0.93760697788E+01  0.34860092331E+00  0.22359835910E+02  0.24248597259E+02  0.00000000000E+00 0. -1.
</event>
<event>
 7    1  0.1874105E-013  0.7246159E+02  0.7816164E-02  0.1226708E+00
        -11   -1    0    0    0    0  0.00000000000E+00  0.00000000000E+00  0.45593999997E+02  0.45594000000E+02  0.51100000000E-03 0. -1.
         11   -1    0    0    0    0 -0.00000000000E+00 -0.00000000000E+00 -0.45593999997E+02  0.45594000000E+02  0.51100000000E-03 0.  1.
    9900012    2    1    2    0    0  0.13490562855E+02 -0.17613968441E+01  0.12867812916E+02  0.72461590461E+02  0.70000026271E+02 0.  0.
        -12    1    1    2    0    0 -0.13490562855E+02  0.17613968441E+01 -0.12867812916E+02  0.18726409539E+02  0.00000000000E+00 0.  1.
         11    1    3    3    0    0 -0.95815188619E+01  0.21275867091E+02  0.22840217383E+02  0.32651853769E+02  0.51100000000E-03 0.  1.
        -11    1    3    3    0    0  0.13818374484E+02 -0.23954138819E+02 -0.12234448826E+02  0.30239543288E+02  0.51100000000E-03 0. -1.
         12    1    3    3    0    0  0.92537072328E+01  0.91687488311E+00  0.22620443599E+01  0.95701934039E+01  0.00000000000E+00 0. -1.
</event>
<event>
 7    1  0.1874105E-013  0.7246113E+02  0.7816164E-02  0.1226709E+00
        -11   -1    0    0    0    0  0.00000000000E+00  0.00000000000E+00  0.45593999997E+02  0.45594000000E+02  0.51100000000E-03 0.  1.
         11   -1    0    0    0    0 -0.00000000000E+00 -0.00000000000E+00 -0.45593999997E+02  0.45594000000E+02  0.51100000000E-03 0. -1.
    9900012    2    1    2    0    0  0.98020604741E-01  0.10249725436E+02 -0.15672560157E+02  0.72461131029E+02  0.69999427773E+02 0.  0.
        -12    1    1    2    0    0 -0.98020604741E-01 -0.10249725436E+02  0.15672560157E+02  0.18726868971E+02  0.00000000000E+00 0.  1.
         11    1    3    3    0    0 -0.14162369787E+02 -0.10584580161E+01  0.33935217795E+01  0.14601679413E+02  0.51100000000E-03 0. -1.
        -11    1    3    3    0    0  0.75722681954E+01  0.28773292779E+02 -0.24326273492E+02  0.38431877462E+02  0.51100000000E-03 0.  1.
        -12    1    3    3    0    0  0.66881221964E+01 -0.17465109327E+02  0.52601915554E+01  0.19427574154E+02  0.00000000000E+00 0.  1.
</event>
<event>
 7    1  0.1874105E-013  0.7246149E+02  0.7816164E-02  0.1226708E+00
        -11   -1    0    0    0    0  0.00000000000E+00  0.00000000000E+00  0.45593999997E+02  0.45594000000E+02  0.51100000000E-03 0.  1.
         11   -1    0    0    0    0 -0.00000000000E+00 -0.00000000000E+00 -0.45593999997E+02  0.45594000000E+02  0.51100000000E-03 0. -1.
    9900012    2    1    2    0    0  0.57852733994E+00 -0.18466219620E+02  0.30571728741E+01  0.72461487594E+02  0.69999892267E+02 0.  0.
        -12    1    1    2    0    0 -0.57852733994E+00  0.18466219620E+02 -0.30571728741E+01  0.18726512406E+02  0.00000000000E+00 0.  1.
         11    1    3    3    0    0 -0.21532142508E+02 -0.74913719158E+00  0.44181452694E+01  0.21993507574E+02  0.51100000000E-03 0.  1.
        -11    1    3    3    0    0  0.33575468378E+02 -0.13415137485E+02 -0.72565686174E+01  0.36877307099E+02  0.51100000000E-03 0. -1.
         12    1    3    3    0    0 -0.11464798529E+02 -0.43019449432E+01  0.58955962221E+01  0.13590672920E+02  0.00000000000E+00 0. -1.
</event>
<event>
 7    1  0.1874105E-013  0.7246156E+02  0.7816164E-02  0.1226708E+00
        -11   -1    0    0    0    0  0.00000000000E+00  0.00000000000E+00  0.45593999997E+02  0.45594000000E+02  0.51100000000E-03 0.  1.
         11   -1    0    0    0    0 -0.00000000000E+00 -0.00000000000E+00 -0.45593999997E+02  0.45594000000E+02  0.51100000000E-03 0. -1.
    9900012    2    1    2    0    0  0.15751258164E+02  0.16289610836E+01 -0.99961885489E+01  0.72461563247E+02  0.69999990819E+02 0.  0.
        -12    1    1    2    0    0 -0.15751258164E+02 -0.16289610836E+01  0.99961885489E+01  0.18726436753E+02  0.00000000000E+00 0.  1.
         11    1    3    3    0    0  0.15623025017E+02  0.15029494125E+02 -0.13657515596E+02  0.25622106409E+02  0.51100000000E-03 0. -1.
        -11    1    3    3    0    0 -0.95600697987E+01 -0.16465467964E+02  0.19990537226E+02  0.27606668555E+02  0.51100000000E-03 0.  1.
        -12    1    3    3    0    0  0.96883029461E+01  0.30649349233E+01 -0.16329210179E+02  0.19232788283E+02  0.00000000000E+00 0.  1.
</event>
<event>
 7    1  0.1874105E-013  0.7246157E+02  0.7816164E-02  0.1226708E+00
        -11   -1    0    0    0    0  0.00000000000E+00  0.00000000000E+00  0.45593999997E+02  0.45594000000E+02  0.51100000000E-03 0. -1.
         11   -1    0    0    0    0 -0.00000000000E+00 -0.00000000000E+00 -0.45593999997E+02  0.45594000000E+02  0.51100000000E-03 0.  1.
    9900012    2    1    2    0    0 -0.17539971924E+02 -0.64533355555E+01  0.11760075345E+01  0.72461570852E+02  0.70000000727E+02 0.  0.
        -12    1    1    2    0    0  0.17539971924E+02  0.64533355555E+01 -0.11760075345E+01  0.18726429148E+02  0.00000000000E+00 0.  1.
         11    1    3    3    0    0  0.14389152731E+02 -0.26325951546E+02  0.32482092620E+01  0.30177049305E+02  0.51100000000E-03 0. -1.
        -11    1    3    3    0    0 -0.97604373850E+01  0.17323482794E+02 -0.11668304259E+00  0.19884235195E+02  0.51100000000E-03 0.  1.
        -12    1    3    3    0    0 -0.22168687271E+02  0.25491331957E+01 -0.19555186849E+01  0.22400286353E+02  0.00000000000E+00 0.  1.
</event>
<event>
 7    1  0.1874105E-013  0.7246157E+02  0.7816164E-02  0.1226708E+00
        -11   -1    0    0    0    0  0.00000000000E+00  0.00000000000E+00  0.45593999997E+02  0.45594000000E+02  0.51100000000E-03 0.  1.
         11   -1    0    0    0    0 -0.00000000000E+00 -0.00000000000E+00 -0.45593999997E+02  0.45594000000E+02  0.51100000000E-03 0. -1.
    9900012    2    1    2    0    0  0.10050962533E+02 -0.13339106505E+02  0.84691030057E+01  0.72461566385E+02  0.69999994908E+02 0.  0.
        -12    1    1    2    0    0 -0.10050962533E+02  0.13339106505E+02 -0.84691030057E+01  0.18726433615E+02  0.00000000000E+00 0.  1.
         11    1    3    3    0    0 -0.19736404114E+02  0.15147987270E+02 -0.18516482653E+01  0.24948261808E+02  0.51100000000E-03 0. -1.
        -11    1    3    3    0    0  0.30312638967E+02 -0.24621938214E+02  0.29372628558E+01  0.39162781258E+02  0.51100000000E-03 0.  1.
         12    1    3    3    0    0 -0.52527232020E+00 -0.38651555614E+01  0.73834884152E+01  0.83505233190E+01  0.00000000000E+00 0. -1.
</event>
<event>
 7    1  0.1874105E-013  0.7246156E+02  0.7816164E-02  0.1226708E+00
        -11   -1    0    0    0    0  0.00000000000E+00  0.00000000000E+00  0.45593999997E+02  0.45594000000E+02  0.51100000000E-03 0.  1.
         11   -1    0    0    0    0 -0.00000000000E+00 -0.00000000000E+00 -0.45593999997E+02  0.45594000000E+02  0.51100000000E-03 0. -1.
    9900012    2    1    2    0    0  0.15473176227E+02  0.71323152973E+01  0.77711200975E+01  0.72461563830E+02  0.69999991579E+02 0.  0.
        -12    1    1    2    0    0 -0.15473176227E+02 -0.71323152973E+01 -0.77711200975E+01  0.18726436170E+02  0.00000000000E+00 0.  1.
         11    1    3    3    0    0  0.79573984383E+00  0.37861664710E+01  0.33643739795E+02  0.33865461551E+02  0.51100000000E-03 0. -1.
        -11    1    3    3    0    0  0.90647008843E+01 -0.88493758957E+01 -0.46717227560E+01  0.13502046128E+02  0.51100000000E-03 0.  1.
         12    1    3    3    0    0  0.56127354988E+01  0.12195524722E+02 -0.21200896941E+02  0.25094056151E+02  0.00000000000E+00 0. -1.
</event>
<event>
 7    1  0.1874105E-013  0.7246158E+02  0.7816164E-02  0.1226708E+00
        -11   -1    0    0    0    0  0.00000000000E+00  0.00000000000E+00  0.45593999997E+02  0.45594000000E+02  0.51100000000E-03 0. -1.
         11   -1    0    0    0    0 -0.00000000000E+00 -0.00000000000E+00 -0.45593999997E+02  0.45594000000E+02  0.51100000000E-03 0.  1.
    9900012    2    1    2    0    0  0.14177921083E+02 -0.71262000723E+01 -0.99439776416E+01  0.72461578424E+02  0.70000010591E+02 0.  0.
        -12    1    1    2    0    0 -0.14177921083E+02  0.71262000723E+01  0.99439776416E+01  0.18726421576E+02  0.00000000000E+00 0.  1.
         11    1    3    3    0    0  0.31766052292E+02  0.13310380770E+01  0.14810896444E+02  0.35074440756E+02  0.51100000000E-03 0. -1.
        -11    1    3    3    0    0 -0.13315577005E-02  0.55235911584E+01 -0.55569216919E+01  0.78351413523E+01  0.51100000000E-03 0.  1.
         12    1    3    3    0    0 -0.17586799652E+02 -0.13980829308E+02 -0.19197952394E+02  0.29551996316E+02  0.00000000000E+00 0. -1.
</event>
<event>
 7    1  0.1874105E-013  0.7246154E+02  0.7816164E-02  0.1226708E+00
        -11   -1    0    0    0    0  0.00000000000E+00  0.00000000000E+00  0.45593999997E+02  0.45594000000E+02  0.51100000000E-03 0. -1.
         11   -1    0    0    0    0 -0.00000000000E+00 -0.00000000000E+00 -0.45593999997E+02  0.45594000000E+02  0.51100000000E-03 0.  1.
    9900012    2    1    2    0    0  0.19509810164E+01 -0.16183040145E+02  0.92186262105E+01  0.72461543195E+02  0.69999964698E+02 0.  0.
        -12    1    1    2    0    0 -0.19509810164E+01  0.16183040145E+02 -0.92186262105E+01  0.18726456805E+02  0.00000000000E+00 0.  1.
         11    1    3    3    0    0 -0.17924387824E+02  0.10780592051E+02 -0.16980178154E+02  0.26941256360E+02  0.51100000000E-03 0.  1.
        -11    1    3    3    0    0  0.29875727625E+01 -0.15162193156E+02  0.57402003193E+01  0.16485375102E+02  0.51100000000E-03 0. -1.
         12    1    3    3    0    0  0.16887796078E+02 -0.11801439041E+02  0.20458604045E+02  0.29034911732E+02  0.00000000000E+00 0. -1.
</event>
<event>
 7    1  0.1874105E-013  0.7246156E+02  0.7816164E-02  0.1226708E+00
        -11   -1    0    0    0    0  0.00000000000E+00  0.00000000000E+00  0.45593999997E+02  0.45594000000E+02  0.51100000000E-03 0. -1.
         11   -1    0    0    0    0 -0.00000000000E+00 -0.00000000000E+00 -0.45593999997E+02  0.45594000000E+02  0.51100000000E-03 0.  1.
    9900012    2    1    2    0    0  0.14601046904E+02  0.41400462402E+01  0.10970364554E+02  0.72461562752E+02  0.69999990175E+02 0.  0.
        -12    1    1    2    0    0 -0.14601046904E+02 -0.41400462402E+01 -0.10970364554E+02  0.18726437248E+02  0.00000000000E+00 0.  1.
         11    1    3    3    0    0  0.98667152985E+01  0.19254836054E+02  0.25749608227E+02  0.33632471011E+02  0.51100000000E-03 0. -1.
        -11    1    3    3    0    0 -0.11749631190E+02  0.10600845664E+01 -0.94806314904E+01  0.15134727818E+02  0.51100000000E-03 0.  1.
         12    1    3    3    0    0  0.16483962796E+02 -0.16174874380E+02 -0.52986121830E+01  0.23694363923E+02  0.00000000000E+00 0. -1.
</event>
<event>
 7    1  0.1874105E-013  0.7246156E+02  0.7816164E-02  0.1226708E+00
        -11   -1    0    0    0    0  0.00000000000E+00  0.00000000000E+00  0.45593999997E+02  0.45594000000E+02  0.51100000000E-03 0.  1.
         11   -1    0    0    0    0 -0.00000000000E+00 -0.00000000000E+00 -0.45593999997E+02  0.45594000000E+02  0.51100000000E-03 0. -1.
    9900012    2    1    2    0    0 -0.11832035455E+02 -0.12173871240E+02  0.79043980989E+01  0.72461555776E+02  0.69999981087E+02 0.  0.
        -12    1    1    2    0    0  0.11832035455E+02  0.12173871240E+02 -0.79043980989E+01  0.18726444224E+02  0.00000000000E+00 0.  1.
         11    1    3    3    0    0 -0.17479854387E+02 -0.22894164015E+02 -0.13112189105E+01  0.28834135164E+02  0.51100000000E-03 0. -1.
        -11    1    3    3    0    0  0.64468554125E+01  0.25763008108E+02  0.10390703886E+02  0.28517735867E+02  0.51100000000E-03 0.  1.
         12    1    3    3    0    0 -0.79903647982E+00 -0.15042715334E+02 -0.11750868765E+01  0.15109684744E+02  0.00000000000E+00 0. -1.
</event>
<event>
 7    1  0.1874105E-013  0.7246153E+02  0.7816164E-02  0.1226708E+00
        -11   -1    0    0    0    0  0.00000000000E+00  0.00000000000E+00  0.45593999997E+02  0.45594000000E+02  0.51100000000E-03 0.  1.
         11   -1    0    0    0    0 -0.00000000000E+00 -0.00000000000E+00 -0.45593999997E+02  0.45594000000E+02  0.51100000000E-03 0. -1.
    9900012    2    1    2    0    0  0.17730373182E+02  0.60097571925E+01  0.44408411984E+00  0.72461534092E+02  0.69999952840E+02 0.  0.
        -12    1    1    2    0    0 -0.17730373182E+02 -0.60097571925E+01 -0.44408411984E+00  0.18726465908E+02  0.00000000000E+00 0.  1.
         11    1    3    3    0    0 -0.21952096180E+01 -0.11376168267E+02 -0.17403491249E+02  0.20907358934E+02  0.51100000000E-03 0. -1.
        -11    1    3    3    0    0  0.29465405186E+02  0.21747964121E+02  0.87124973813E+01  0.37644277880E+02  0.51100000000E-03 0.  1.
        -12    1    3    3    0    0 -0.95398223860E+01 -0.43620386618E+01  0.91350779874E+01  0.13909897278E+02  0.00000000000E+00 0.  1.
</event>
<event>
 7    1  0.1874105E-013  0.7246159E+02  0.7816164E-02  0.1226708E+00
        -11   -1    0    0    0    0  0.00000000000E+00  0.00000000000E+00  0.45593999997E+02  0.45594000000E+02  0.51100000000E-03 0.  1.
         11   -1    0    0    0    0 -0.00000000000E+00 -0.00000000000E+00 -0.45593999997E+02  0.45594000000E+02  0.51100000000E-03 0. -1.
    9900012    2    1    2    0    0  0.75060914540E+01  0.16813877322E+02 -0.34103512987E+01  0.72461591495E+02  0.70000027618E+02 0.  0.
        -12    1    1    2    0    0 -0.75060914540E+01 -0.16813877322E+02  0.34103512987E+01  0.18726408505E+02  0.00000000000E+00 0.  1.
         11    1    3    3    0    0  0.26203295987E+01 -0.17108484844E+02 -0.80209806108E+01  0.19076228953E+02  0.51100000000E-03 0. -1.
        -11    1    3    3    0    0 -0.16192414816E+02  0.21504375416E+02  0.92914322834E+01  0.28477415152E+02  0.51100000000E-03 0.  1.
        -12    1    3    3    0    0  0.21078176672E+02  0.12417986749E+02 -0.46808029713E+01  0.24907947390E+02  0.00000000000E+00 0.  1.
</event>
<event>
 7    1  0.1874105E-013  0.7246156E+02  0.7816164E-02  0.1226708E+00
        -11   -1    0    0    0    0  0.00000000000E+00  0.00000000000E+00  0.45593999997E+02  0.45594000000E+02  0.51100000000E-03 0.  1.
         11   -1    0    0    0    0 -0.00000000000E+00 -0.00000000000E+00 -0.45593999997E+02  0.45594000000E+02  0.51100000000E-03 0. -1.
    9900012    2    1    2    0    0 -0.18352002782E+02  0.37079079477E+01  0.36759276700E+00  0.72461555813E+02  0.69999981135E+02 0.  0.
        -12    1    1    2    0    0  0.18352002782E+02 -0.37079079477E+01 -0.36759276700E+00  0.18726444187E+02  0.00000000000E+00 0.  1.
         11    1    3    3    0    0 -0.17372005023E+02  0.27076017966E+02  0.10604530053E+02  0.33872604939E+02  0.51100000000E-03 0. -1.
        -11    1    3    3    0    0  0.12779615584E+02 -0.47615711031E+01 -0.10080981399E+01  0.13675064752E+02  0.51100000000E-03 0.  1.
         12    1    3    3    0    0 -0.13759613342E+02 -0.18606538915E+02 -0.92288391465E+01  0.24913886122E+02  0.00000000000E+00 0. -1.
</event>
<event>
 7    1  0.1874105E-013  0.7246156E+02  0.7816164E-02  0.1226708E+00
        -11   -1    0    0    0    0  0.00000000000E+00  0.00000000000E+00  0.45593999997E+02  0.45594000000E+02  0.51100000000E-03 0. -1.
         11   -1    0    0    0    0 -0.00000000000E+00 -0.00000000000E+00 -0.45593999997E+02  0.45594000000E+02  0.51100000000E-03 0.  1.
    9900012    2    1    2    0    0  0.14597465436E+02  0.60385417472E+01  0.10056324598E+02  0.72461557519E+02  0.69999983358E+02 0.  0.
        -12    1    1    2    0    0 -0.14597465436E+02 -0.60385417472E+01 -0.10056324598E+02  0.18726442481E+02  0.00000000000E+00 0.  1.
         11    1    3    3    0    0 -0.10329793145E+02  0.21534767270E+02 -0.12434396036E+02  0.26927031638E+02  0.51100000000E-03 0. -1.
        -11    1    3    3    0    0 -0.38646850697E+01 -0.24313397044E+01  0.10972064905E+02  0.11884166441E+02  0.51100000000E-03 0.  1.
         12    1    3    3    0    0  0.28791943650E+02 -0.13064885819E+02  0.11518655729E+02  0.33650359440E+02  0.00000000000E+00 0. -1.
</event>
<event>
 7    1  0.1874105E-013  0.7246165E+02  0.7816164E-02  0.1226708E+00
        -11   -1    0    0    0    0  0.00000000000E+00  0.00000000000E+00  0.45593999997E+02  0.45594000000E+02  0.51100000000E-03 0.  1.
         11   -1    0    0    0    0 -0.00000000000E+00 -0.00000000000E+00 -0.45593999997E+02  0.45594000000E+02  0.51100000000E-03 0. -1.
    9900012    2    1    2    0    0  0.13953015383E+02 -0.91290706876E+00 -0.12456166195E+02  0.72461651881E+02  0.70000106282E+02 0.  0.
        -12    1    1    2    0    0 -0.13953015383E+02  0.91290706876E+00  0.12456166195E+02  0.18726348119E+02  0.00000000000E+00 0.  1.
         11    1    3    3    0    0 -0.16572676613E+01 -0.81401206389E+01 -0.20573555874E+02  0.22187368065E+02  0.51100000000E-03 0. -1.
        -11    1    3    3    0    0  0.28435891061E+02  0.17039106167E+01 -0.73660821066E+01  0.29423840295E+02  0.51100000000E-03 0.  1.
        -12    1    3    3    0    0 -0.12825608017E+02  0.55233029534E+01  0.15483471785E+02  0.20850443521E+02  0.00000000000E+00 0.  1.
</event>
<event>
 7    1  0.1874105E-013  0.7246152E+02  0.7816164E-02  0.1226708E+00
        -11   -1    0    0    0    0  0.00000000000E+00  0.00000000000E+00  0.45593999997E+02  0.45594000000E+02  0.51100000000E-03 0. -1.
         11   -1    0    0    0    0 -0.00000000000E+00 -0.00000000000E+00 -0.45593999997E+02  0.45594000000E+02  0.51100000000E-03 0.  1.
    9900012    2    1    2    0    0  0.16274038015E+02  0.92616438661E+01 -0.24202121982E+00  0.72461523164E+02  0.69999938604E+02 0.  0.
        -12    1    1    2    0    0 -0.16274038015E+02 -0.92616438661E+01  0.24202121982E+00  0.18726476836E+02  0.00000000000E+00 0.  1.
         11    1    3    3    0    0  0.47597128058E+01  0.78205671813E+01  0.11646702430E+02  0.14814243646E+02  0.51100000000E-03 0. -1.
        -11    1    3    3    0    0  0.28682282752E+02 -0.14897352847E+02 -0.10181154785E+02  0.33885990892E+02  0.51100000000E-03 0.  1.
        -12    1    3    3    0    0 -0.17167957543E+02  0.16338429532E+02 -0.17075688653E+01  0.23761288626E+02  0.00000000000E+00 0.  1.
</event>
<event>
 7    1  0.2893773E-013  0.7246158E+02  0.7816164E-02  0.1226708E+00
        -11   -1    0    0    0    0  0.00000000000E+00  0.00000000000E+00  0.45593999997E+02  0.45594000000E+02  0.51100000000E-03 0. -1.
         11   -1    0    0    0    0 -0.00000000000E+00 -0.00000000000E+00 -0.45593999997E+02  0.45594000000E+02  0.51100000000E-03 0.  1.
    9900012    2    1    2    0    0 -0.15428874902E+01  0.11021880059E+02  0.15060429051E+02  0.72461578424E+02  0.70000010591E+02 0.  0.
        -12    1    1    2    0    0  0.15428874902E+01 -0.11021880059E+02 -0.15060429051E+02  0.18726421576E+02  0.00000000000E+00 0.  1.
         11    1    3    3    0    0 -0.21412774558E+02  0.10836860005E+02  0.26463619469E+02  0.35724887750E+02  0.51100000000E-03 0. -1.
        -11    1    3    3    0    0  0.14406105547E+02 -0.13218948307E+02 -0.24203795749E+01  0.19701134711E+02  0.51100000000E-03 0.  1.
        -12    1    3    3    0    0  0.54637815213E+01  0.13403968360E+02 -0.89828108437E+01  0.17035555963E+02  0.00000000000E+00 0.  1.
</event>
<event>
 7    1  0.1874105E-013  0.7246148E+02  0.7816164E-02  0.1226708E+00
        -11   -1    0    0    0    0  0.00000000000E+00  0.00000000000E+00  0.45593999997E+02  0.45594000000E+02  0.51100000000E-03 0.  1.
         11   -1    0    0    0    0 -0.00000000000E+00 -0.00000000000E+00 -0.45593999997E+02  0.45594000000E+02  0.51100000000E-03 0. -1.
    9900012    2    1    2    0    0  0.12604440468E+02 -0.92694084583E+01 -0.10290223706E+02  0.72461479859E+02  0.69999882191E+02 0.  0.
        -12    1    1    2    0    0 -0.12604440468E+02  0.92694084583E+01  0.10290223706E+02  0.18726520141E+02  0.00000000000E+00 0.  1.
         11    1    3    3    0    0  0.19486073140E+02  0.93309216886E+01 -0.33563313928E+02  0.39915776180E+02  0.51100000000E-03 0. -1.
        -11    1    3    3    0    0 -0.82171052425E+01 -0.86770947365E+01  0.16822063462E+02  0.20634791276E+02  0.51100000000E-03 0.  1.
         12    1    3    3    0    0  0.13354725707E+01 -0.99232354104E+01  0.64510267599E+01  0.11910912402E+02  0.00000000000E+00 0. -1.
</event>
<event>
 7    1  0.1874105E-013  0.7246106E+02  0.7816164E-02  0.1226709E+00
        -11   -1    0    0    0    0  0.00000000000E+00  0.00000000000E+00  0.45593999997E+02  0.45594000000E+02  0.51100000000E-03 0. -1.
         11   -1    0    0    0    0 -0.00000000000E+00 -0.00000000000E+00 -0.45593999997E+02  0.45594000000E+02  0.51100000000E-03 0.  1.
    9900012    2    1    2    0    0  0.97069272524E+01  0.59745769234E+01  0.14858604135E+02  0.72461064241E+02  0.69999340768E+02 0.  0.
        -12    1    1    2    0    0 -0.97069272524E+01 -0.59745769234E+01 -0.14858604135E+02  0.18726935759E+02  0.00000000000E+00 0.  1.
         11    1    3    3    0    0 -0.22057657012E+02  0.61136067833E+01  0.54540976434E+01  0.23530057418E+02  0.51100000000E-03 0. -1.
        -11    1    3    3    0    0  0.15885800047E+02  0.76997542488E+01  0.21249936586E+02  0.27626159049E+02  0.51100000000E-03 0.  1.
        -12    1    3    3    0    0  0.15878784217E+02 -0.78387841088E+01 -0.11845430095E+02  0.21304847773E+02  0.00000000000E+00 0.  1.
</event>
<event>
 7    1  0.1874105E-013  0.7246156E+02  0.7816164E-02  0.1226708E+00
        -11   -1    0    0    0    0  0.00000000000E+00  0.00000000000E+00  0.45593999997E+02  0.45594000000E+02  0.51100000000E-03 0.  1.
         11   -1    0    0    0    0 -0.00000000000E+00 -0.00000000000E+00 -0.45593999997E+02  0.45594000000E+02  0.51100000000E-03 0. -1.
    9900012    2    1    2    0    0 -0.35722107071E+01 -0.14699043945E+02 -0.11038886764E+02  0.72461558714E+02  0.69999984915E+02 0.  0.
        -12    1    1    2    0    0  0.35722107071E+01  0.14699043945E+02  0.11038886764E+02  0.18726441286E+02  0.00000000000E+00 0.  1.
         11    1    3    3    0    0 -0.67590252772E+01 -0.22434445386E+02  0.15665072683E+02  0.28184805568E+02  0.51100000000E-03 0. -1.
        -11    1    3    3    0    0  0.16716915592E+02 -0.30422620083E+01 -0.18541839048E+02  0.25149759851E+02  0.51100000000E-03 0.  1.
         12    1    3    3    0    0 -0.13530101022E+02  0.10777663450E+02 -0.81621203994E+01  0.19126993295E+02  0.00000000000E+00 0. -1.
</event>
<event>
 7    1  0.1874105E-013  0.7246157E+02  0.7816164E-02  0.1226708E+00
        -11   -1    0    0    0    0  0.00000000000E+00  0.00000000000E+00  0.45593999997E+02  0.45594000000E+02  0.51100000000E-03 0.  1.
         11   -1    0    0    0    0 -0.00000000000E+00 -0.00000000000E+00 -0.45593999997E+02  0.45594000000E+02  0.51100000000E-03 0. -1.
    9900012    2    1    2    0    0 -0.85453927484E+01  0.10419452641E+02 -0.13003478659E+02  0.72461569806E+02  0.69999999364E+02 0.  0.
        -12    1    1    2    0    0  0.85453927484E+01 -0.10419452641E+02  0.13003478659E+02  0.18726430194E+02  0.00000000000E+00 0.  1.
         11    1    3    3    0    0  0.67991274046E+01  0.77287490135E+01 -0.18485784718E+02  0.21158590021E+02  0.51100000000E-03 0. -1.
        -11    1    3    3    0    0 -0.69102912795E+01  0.85769727496E+00  0.27124046426E+02  0.28003600928E+02  0.51100000000E-03 0.  1.
        -12    1    3    3    0    0 -0.84342288735E+01  0.18330063525E+01 -0.21641740368E+02  0.23299378857E+02  0.00000000000E+00 0.  1.
</event>
<event>
 7    1  0.1941434E-013  0.7246160E+02  0.7816164E-02  0.1226708E+00
        -11   -1    0    0    0    0  0.00000000000E+00  0.00000000000E+00  0.45593999997E+02  0.45594000000E+02  0.51100000000E-03 0.  1.
         11   -1    0    0    0    0 -0.00000000000E+00 -0.00000000000E+00 -0.45593999997E+02  0.45594000000E+02  0.51100000000E-03 0. -1.
    9900012    2    1    2    0    0 -0.11816206134E+02 -0.14293212474E+02  0.25998951706E+01  0.72461598714E+02  0.70000037022E+02 0.  0.
        -12    1    1    2    0    0  0.11816206134E+02  0.14293212474E+02 -0.25998951706E+01  0.18726401286E+02  0.00000000000E+00 0.  1.
         11    1    3    3    0    0 -0.55533330319E+01 -0.30178941918E+02 -0.67533492873E+01  0.31419989973E+02  0.51100000000E-03 0. -1.
        -11    1    3    3    0    0  0.24832908483E+01  0.64930472021E+00  0.20221244861E+02  0.20383500044E+02  0.51100000000E-03 0.  1.
         12    1    3    3    0    0 -0.87461639499E+01  0.15236424723E+02 -0.10868000403E+02  0.20658108697E+02  0.00000000000E+00 0. -1.
</event>
<event>
 7    1  0.1874105E-013  0.7246156E+02  0.7816164E-02  0.1226708E+00
        -11   -1    0    0    0    0  0.00000000000E+00  0.00000000000E+00  0.45593999997E+02  0.45594000000E+02  0.51100000000E-03 0. -1.
         11   -1    0    0    0    0 -0.00000000000E+00 -0.00000000000E+00 -0.45593999997E+02  0.45594000000E+02  0.51100000000E-03 0.  1.
    9900012    2    1    2    0    0 -0.48127526950E+01  0.36670648993E+01  0.17722009969E+02  0.72461559046E+02  0.69999985346E+02 0.  0.
        -12    1    1    2    0    0  0.48127526950E+01 -0.36670648993E+01 -0.17722009969E+02  0.18726440954E+02  0.00000000000E+00 0.  1.
         11    1    3    3    0    0  0.62439703707E+00 -0.23415881001E+02  0.10429018837E+02  0.25640939704E+02  0.51100000000E-03 0. -1.
        -11    1    3    3    0    0  0.88764538822E+00  0.16275542351E+02 -0.14415295066E+02  0.21759639823E+02  0.51100000000E-03 0.  1.
         12    1    3    3    0    0 -0.63247951203E+01  0.10807403550E+02  0.21708286198E+02  0.25060979519E+02  0.00000000000E+00 0. -1.
</event>
<event>
 7    1  0.1874105E-013  0.7246159E+02  0.7816164E-02  0.1226708E+00
        -11   -1    0    0    0    0  0.00000000000E+00  0.00000000000E+00  0.45593999997E+02  0.45594000000E+02  0.51100000000E-03 0.  1.
         11   -1    0    0    0    0 -0.00000000000E+00 -0.00000000000E+00 -0.45593999997E+02  0.45594000000E+02  0.51100000000E-03 0. -1.
    9900012    2    1    2    0    0 -0.86437381820E+00 -0.13194515695E+02 -0.13260312724E+02  0.72461594043E+02  0.70000030937E+02 0.  0.
        -12    1    1    2    0    0  0.86437381820E+00  0.13194515695E+02  0.13260312724E+02  0.18726405957E+02  0.00000000000E+00 0.  1.
         11    1    3    3    0    0  0.10798642699E+01  0.15046270678E+02  0.19973060759E+02  0.25029572999E+02  0.51100000000E-03 0.  1.
        -11    1    3    3    0    0 -0.70038897981E+01 -0.26467720096E+02 -0.22514487437E+02  0.35447098953E+02  0.51100000000E-03 0. -1.
        -12    1    3    3    0    0  0.50596517100E+01 -0.17730662772E+01 -0.10718886047E+02  0.11984922091E+02  0.00000000000E+00 0.  1.
</event>
<event>
 7    1  0.1874105E-013  0.7246157E+02  0.7816164E-02  0.1226708E+00
        -11   -1    0    0    0    0  0.00000000000E+00  0.00000000000E+00  0.45593999997E+02  0.45594000000E+02  0.51100000000E-03 0. -1.
         11   -1    0    0    0    0 -0.00000000000E+00 -0.00000000000E+00 -0.45593999997E+02  0.45594000000E+02  0.51100000000E-03 0.  1.
    9900012    2    1    2    0    0  0.16394717267E+02  0.71704565733E+01  0.55205791511E+01  0.72461574930E+02  0.70000006039E+02 0.  0.
        -12    1    1    2    0    0 -0.16394717267E+02 -0.71704565733E+01 -0.55205791511E+01  0.18726425070E+02  0.00000000000E+00 0.  1.
         11    1    3    3    0    0  0.31952491941E+02 -0.21329252738E+01  0.15337948007E+01  0.32060312509E+02  0.51100000000E-03 0. -1.
        -11    1    3    3    0    0 -0.11793971069E+02  0.17707906906E+01 -0.15274978470E+02  0.19379329730E+02  0.51100000000E-03 0.  1.
         12    1    3    3    0    0 -0.37638036051E+01  0.75325911565E+01  0.19261762821E+02  0.21021932691E+02  0.00000000000E+00 0. -1.
</event>
<event>
 7    1  0.1874105E-013  0.7246159E+02  0.7816164E-02  0.1226708E+00
        -11   -1    0    0    0    0  0.00000000000E+00  0.00000000000E+00  0.45593999997E+02  0.45594000000E+02  0.51100000000E-03 0.  1.
         11   -1    0    0    0    0 -0.00000000000E+00 -0.00000000000E+00 -0.45593999997E+02  0.45594000000E+02  0.51100000000E-03 0. -1.
    9900012    2    1    2    0    0  0.16645235621E+02 -0.74769136514E+01 -0.42083494696E+01  0.72461593193E+02  0.70000029830E+02 0.  0.
        -12    1    1    2    0    0 -0.16645235621E+02  0.74769136514E+01  0.42083494696E+01  0.18726406807E+02  0.00000000000E+00 0.  1.
         11    1    3    3    0    0  0.49894629315E+01  0.60455662310E+01 -0.18125125846E+02  0.19747501073E+02  0.51100000000E-03 0. -1.
        -11    1    3    3    0    0 -0.13673893799E+02 -0.20322835404E+02  0.48947135534E+01  0.24979015824E+02  0.51100000000E-03 0.  1.
        -12    1    3    3    0    0  0.25329666488E+02  0.68003555219E+01  0.90220628234E+01  0.27735076297E+02  0.00000000000E+00 0.  1.
</event>
<event>
 7    1  0.1874105E-013  0.7246162E+02  0.7816164E-02  0.1226708E+00
        -11   -1    0    0    0    0  0.00000000000E+00  0.00000000000E+00  0.45593999997E+02  0.45594000000E+02  0.51100000000E-03 0.  1.
         11   -1    0    0    0    0 -0.00000000000E+00 -0.00000000000E+00 -0.45593999997E+02  0.45594000000E+02  0.51100000000E-03 0. -1.
    9900012    2    1    2    0    0  0.41390277172E+01  0.14389132206E+02  0.11247157974E+02  0.72461621851E+02  0.70000067162E+02 0.  0.
        -12    1    1    2    0    0 -0.41390277172E+01 -0.14389132206E+02 -0.11247157974E+02  0.18726378149E+02  0.00000000000E+00 0.  1.
         11    1    3    3    0    0  0.11403734126E+02  0.25067847695E+02  0.12476925015E+02  0.30234347986E+02  0.51100000000E-03 0. -1.
        -11    1    3    3    0    0 -0.19043304682E+02 -0.12363811453E+02  0.10943712815E+02  0.25204684828E+02  0.51100000000E-03 0.  1.
         12    1    3    3    0    0  0.11778598273E+02  0.16850959645E+01 -0.12173479857E+02  0.17022589037E+02  0.00000000000E+00 0. -1.
</event>
<event>
 7    1  0.1874105E-013  0.7246157E+02  0.7816164E-02  0.1226708E+00
        -11   -1    0    0    0    0  0.00000000000E+00  0.00000000000E+00  0.45593999997E+02  0.45594000000E+02  0.51100000000E-03 0. -1.
         11   -1    0    0    0    0 -0.00000000000E+00 -0.00000000000E+00 -0.45593999997E+02  0.45594000000E+02  0.51100000000E-03 0.  1.
    9900012    2    1    2    0    0 -0.71332027484E+01 -0.78636443709E+01  0.15425946792E+02  0.72461566312E+02  0.69999994813E+02 0.  0.
        -12    1    1    2    0    0  0.71332027484E+01  0.78636443709E+01 -0.15425946792E+02  0.18726433688E+02  0.00000000000E+00 0.  1.
         11    1    3    3    0    0 -0.65863736548E+01 -0.15005712501E+02 -0.16737833828E+02  0.23424491608E+02  0.51100000000E-03 0.  1.
        -11    1    3    3    0    0 -0.11843945067E+02  0.17862138698E+02  0.18084954674E+02  0.28042835439E+02  0.51100000000E-03 0. -1.
         12    1    3    3    0    0  0.11297115974E+02 -0.10720070567E+02  0.14078825946E+02  0.20994239265E+02  0.00000000000E+00 0. -1.
</event>
<event>
 7    1  0.1874105E-013  0.7246149E+02  0.7816164E-02  0.1226708E+00
        -11   -1    0    0    0    0  0.00000000000E+00  0.00000000000E+00  0.45593999997E+02  0.45594000000E+02  0.51100000000E-03 0. -1.
         11   -1    0    0    0    0 -0.00000000000E+00 -0.00000000000E+00 -0.45593999997E+02  0.45594000000E+02  0.51100000000E-03 0.  1.
    9900012    2    1    2    0    0 -0.14985708813E+02  0.10630956673E+02  0.36184744791E+01  0.72461492958E+02  0.69999899256E+02 0.  0.
        -12    1    1    2    0    0  0.14985708813E+02 -0.10630956673E+02 -0.36184744791E+01  0.18726507042E+02  0.00000000000E+00 0.  1.
         11    1    3    3    0    0  0.74221355843E+01 -0.12575535248E+02  0.22154912922E+02  0.26534361689E+02  0.51100000000E-03 0. -1.
        -11    1    3    3    0    0 -0.25870714809E+02  0.11963383451E+02 -0.67857959764E+01  0.29299547020E+02  0.51100000000E-03 0.  1.
        -12    1    3    3    0    0  0.34628704110E+01  0.11243108470E+02 -0.11750642467E+02  0.16627584249E+02  0.00000000000E+00 0.  1.
</event>
<event>
 7    1  0.1874105E-013  0.7246159E+02  0.7816164E-02  0.1226708E+00
        -11   -1    0    0    0    0  0.00000000000E+00  0.00000000000E+00  0.45593999997E+02  0.45594000000E+02  0.51100000000E-03 0.  1.
         11   -1    0    0    0    0 -0.00000000000E+00 -0.00000000000E+00 -0.45593999997E+02  0.45594000000E+02  0.51100000000E-03 0. -1.
    9900012    2    1    2    0    0  0.17431307195E+02  0.59183455604E+01  0.34352734475E+01  0.72461591152E+02  0.70000027171E+02 0.  0.
        -12    1    1    2    0    0 -0.17431307195E+02 -0.59183455604E+01 -0.34352734475E+01  0.18726408848E+02  0.00000000000E+00 0.  1.
         11    1    3    3    0    0 -0.18136779342E+02  0.24444602480E+01  0.30678523516E+01  0.18556127536E+02  0.51100000000E-03 0. -1.
        -11    1    3    3    0    0  0.16135456186E+02 -0.13464071828E+02 -0.13157823590E+02  0.24794404579E+02  0.51100000000E-03 0.  1.
         12    1    3    3    0    0  0.19432630351E+02  0.16937957141E+02  0.13525244686E+02  0.29111059037E+02  0.00000000000E+00 0. -1.
</event>
<event>
 7    1  0.1874105E-013  0.7246161E+02  0.7816164E-02  0.1226708E+00
        -11   -1    0    0    0    0  0.00000000000E+00  0.00000000000E+00  0.45593999997E+02  0.45594000000E+02  0.51100000000E-03 0. -1.
         11   -1    0    0    0    0 -0.00000000000E+00 -0.00000000000E+00 -0.45593999997E+02  0.45594000000E+02  0.51100000000E-03 0.  1.
    9900012    2    1    2    0    0 -0.46624662163E+01 -0.85639564609E+01  0.15987422410E+02  0.72461611753E+02  0.70000054007E+02 0.  0.
        -12    1    1    2    0    0  0.46624662163E+01  0.85639564609E+01 -0.15987422410E+02  0.18726388247E+02  0.00000000000E+00 0.  1.
         11    1    3    3    0    0  0.18433072079E+02 -0.28040585062E+01  0.35683974910E+02  0.40261482288E+02  0.51100000000E-03 0. -1.
        -11    1    3    3    0    0 -0.45802309564E+01  0.24545867575E+01 -0.45605638996E+01  0.69139174936E+01  0.51100000000E-03 0.  1.
         12    1    3    3    0    0 -0.18515307339E+02 -0.82144847122E+01 -0.15135988601E+02  0.25286211971E+02  0.00000000000E+00 0. -1.
</event>
<event>
 7    1  0.1874105E-013  0.7246154E+02  0.7816164E-02  0.1226708E+00
        -11   -1    0    0    0    0  0.00000000000E+00  0.00000000000E+00  0.45593999997E+02  0.45594000000E+02  0.51100000000E-03 0.  1.
         11   -1    0    0    0    0 -0.00000000000E+00 -0.00000000000E+00 -0.45593999997E+02  0.45594000000E+02  0.51100000000E-03 0. -1.
    9900012    2    1    2    0    0  0.15423521369E+00  0.14509755328E+02 -0.11837370091E+02  0.72461544947E+02  0.69999966980E+02 0.  0.
        -12    1    1    2    0    0 -0.15423521369E+00 -0.14509755328E+02  0.11837370091E+02  0.18726455053E+02  0.00000000000E+00 0.  1.
         11    1    3    3    0    0 -0.18558090585E+02 -0.15550280037E+02  0.13656949711E+02  0.27797953362E+02  0.51100000000E-03 0. -1.
        -11    1    3    3    0    0  0.50742472550E+01  0.13450317717E+02 -0.57616855805E+01  0.15487286814E+02  0.51100000000E-03 0.  1.
         12    1    3    3    0    0  0.13638078544E+02  0.16609717649E+02 -0.19732634222E+02  0.29176304771E+02  0.00000000000E+00 0. -1.
</event>
<event>
 7    1  0.1874105E-013  0.7246159E+02  0.7816164E-02  0.1226708E+00
        -11   -1    0    0    0    0  0.00000000000E+00  0.00000000000E+00  0.45593999997E+02  0.45594000000E+02  0.51100000000E-03 0. -1.
         11   -1    0    0    0    0 -0.00000000000E+00 -0.00000000000E+00 -0.45593999997E+02  0.45594000000E+02  0.51100000000E-03 0.  1.
    9900012    2    1    2    0    0  0.15424958302E+02  0.30084160132E+01  0.10183248126E+02  0.72461589562E+02  0.70000025099E+02 0.  0.
        -12    1    1    2    0    0 -0.15424958302E+02 -0.30084160132E+01 -0.10183248126E+02  0.18726410438E+02  0.00000000000E+00 0.  1.
         11    1    3    3    0    0  0.31052445843E+02  0.10001633165E+02 -0.26811075198E+01  0.32733398794E+02  0.51100000000E-03 0. -1.
        -11    1    3    3    0    0 -0.11483179601E+02  0.11091899570E+02  0.13867602307E+02  0.21147199433E+02  0.51100000000E-03 0.  1.
         12    1    3    3    0    0 -0.41443079396E+01 -0.18085116722E+02 -0.10032466613E+01  0.18580991335E+02  0.00000000000E+00 0. -1.
</event>
<event>
 7    1  0.1874105E-013  0.7246146E+02  0.7816164E-02  0.1226708E+00
        -11   -1    0    0    0    0  0.00000000000E+00  0.00000000000E+00  0.45593999997E+02  0.45594000000E+02  0.51100000000E-03 0. -1.
         11   -1    0    0    0    0 -0.00000000000E+00 -0.00000000000E+00 -0.45593999997E+02  0.45594000000E+02  0.51100000000E-03 0.  1.
    9900012    2    1    2    0    0 -0.93634006677E+00  0.18051805789E+02  0.48927289491E+01  0.72461462105E+02  0.69999859063E+02 0.  0.
        -12    1    1    2    0    0  0.93634006677E+00 -0.18051805789E+02 -0.48927289491E+01  0.18726537895E+02  0.00000000000E+00 0.  1.
         11    1    3    3    0    0  0.10962828743E+02  0.12664175497E+02  0.27861582064E+02  0.32508963540E+02  0.51100000000E-03 0. -1.
        -11    1    3    3    0    0  0.83926354963E+01 -0.50824761191E+01 -0.78725009839E+01  0.12579513746E+02  0.51100000000E-03 0.  1.
         12    1    3    3    0    0 -0.20291804306E+02  0.10470106411E+02 -0.15096352131E+02  0.27372984819E+02  0.00000000000E+00 0. -1.
</event>
<event>
 7    1  0.1874105E-013  0.7246157E+02  0.7816164E-02  0.1226708E+00
        -11   -1    0    0    0    0  0.00000000000E+00  0.00000000000E+00  0.45593999997E+02  0.45594000000E+02  0.51100000000E-03 0.  1.
         11   -1    0    0    0    0 -0.00000000000E+00 -0.00000000000E+00 -0.45593999997E+02  0.45594000000E+02  0.51100000000E-03 0. -1.
    9900012    2    1    2    0    0  0.39224477132E+00  0.12555547436E+02 -0.13888251505E+02  0.72461570622E+02  0.70000000427E+02 0.  0.
        -12    1    1    2    0    0 -0.39224477132E+00 -0.12555547436E+02  0.13888251505E+02  0.18726429378E+02  0.00000000000E+00 0.  1.
         11    1    3    3    0    0  0.14354745242E+02  0.10121200468E+02 -0.25728030705E+02  0.31151709007E+02  0.51100000000E-03 0. -1.
        -11    1    3    3    0    0  0.28087142909E+01  0.38747978120E+01  0.21415582699E+02  0.21943794490E+02  0.51100000000E-03 0.  1.
         12    1    3    3    0    0 -0.16771214761E+02 -0.14404508445E+01 -0.95758034993E+01  0.19366067124E+02  0.00000000000E+00 0. -1.
</event>
<event>
 7    1  0.1874105E-013  0.7246094E+02  0.7816164E-02  0.1226710E+00
        -11   -1    0    0    0    0  0.00000000000E+00  0.00000000000E+00  0.45593999997E+02  0.45594000000E+02  0.51100000000E-03 0.  1.
         11   -1    0    0    0    0 -0.00000000000E+00 -0.00000000000E+00 -0.45593999997E+02  0.45594000000E+02  0.51100000000E-03 0. -1.
    9900012    2    1    2    0    0 -0.12221264389E+02 -0.12251318513E+01 -0.14136572768E+02  0.72460935602E+02  0.69999173191E+02 0.  0.
        -12    1    1    2    0    0  0.12221264389E+02  0.12251318513E+01  0.14136572768E+02  0.18727064398E+02  0.00000000000E+00 0.  1.
         11    1    3    3    0    0 -0.27621354347E+02 -0.10467871704E+02 -0.26901484599E+02  0.39952539692E+02  0.51100000000E-03 0. -1.
        -11    1    3    3    0    0  0.10410536021E+02  0.17422311473E+02  0.92282231057E+01  0.22295207989E+02  0.51100000000E-03 0.  1.
         12    1    3    3    0    0  0.49895539362E+01 -0.81795716207E+01  0.35366887254E+01  0.10213187922E+02  0.00000000000E+00 0. -1.
</event>
<event>
 7    1  0.1874105E-013  0.7246158E+02  0.7816164E-02  0.1226708E+00
        -11   -1    0    0    0    0  0.00000000000E+00  0.00000000000E+00  0.45593999997E+02  0.45594000000E+02  0.51100000000E-03 0. -1.
         11   -1    0    0    0    0 -0.00000000000E+00 -0.00000000000E+00 -0.45593999997E+02  0.45594000000E+02  0.51100000000E-03 0.  1.
    9900012    2    1    2    0    0  0.17080010708E+02 -0.72652406934E+01  0.24835912161E+01  0.72461582471E+02  0.70000015863E+02 0.  0.
        -12    1    1    2    0    0 -0.17080010708E+02  0.72652406934E+01 -0.24835912161E+01  0.18726417529E+02  0.00000000000E+00 0.  1.
         11    1    3    3    0    0  0.22930292071E+02 -0.97699148822E+01  0.17640275057E+02  0.30535697726E+02  0.51100000000E-03 0. -1.
        -11    1    3    3    0    0  0.10534403399E+02  0.55486334451E+00 -0.21737281338E+02  0.24161765840E+02  0.51100000000E-03 0.  1.
         12    1    3    3    0    0 -0.16384684762E+02  0.19498108444E+01  0.65805974967E+01  0.17764118905E+02  0.00000000000E+00 0. -1.
</event>
<event>
 7    1  0.1874105E-013  0.7246144E+02  0.7816164E-02  0.1226708E+00
        -11   -1    0    0    0    0  0.00000000000E+00  0.00000000000E+00  0.45593999997E+02  0.45594000000E+02  0.51100000000E-03 0.  1.
         11   -1    0    0    0    0 -0.00000000000E+00 -0.00000000000E+00 -0.45593999997E+02  0.45594000000E+02  0.51100000000E-03 0. -1.
    9900012    2    1    2    0    0  0.12216459299E+02 -0.14176258406E+02  0.68989103384E+00  0.72461437853E+02  0.69999827470E+02 0.  0.
        -12    1    1    2    0    0 -0.12216459299E+02  0.14176258406E+02 -0.68989103384E+00  0.18726562147E+02  0.00000000000E+00 0.  1.
         11    1    3    3    0    0 -0.35338397401E+01 -0.72948097949E+01 -0.55384628457E+01  0.98171708861E+01  0.51100000000E-03 0. -1.
        -11    1    3    3    0    0 -0.21212356007E+01 -0.10570536314E+02  0.30458953144E+02  0.32310736688E+02  0.51100000000E-03 0.  1.
        -12    1    3    3    0    0  0.17871534640E+02  0.36890877032E+01 -0.24230599264E+02  0.30333530279E+02  0.00000000000E+00 0.  1.
</event>
<event>
 7    1  0.1874105E-013  0.7246158E+02  0.7816164E-02  0.1226708E+00
        -11   -1    0    0    0    0  0.00000000000E+00  0.00000000000E+00  0.45593999997E+02  0.45594000000E+02  0.51100000000E-03 0. -1.
         11   -1    0    0    0    0 -0.00000000000E+00 -0.00000000000E+00 -0.45593999997E+02  0.45594000000E+02  0.51100000000E-03 0.  1.
    9900012    2    1    2    0    0 -0.15185131332E+02 -0.65864004871E+00  0.10938767311E+02  0.72461584150E+02  0.70000018050E+02 0.  0.
        -12    1    1    2    0    0  0.15185131332E+02  0.65864004871E+00 -0.10938767311E+02  0.18726415850E+02  0.00000000000E+00 0.  1.
         11    1    3    3    0    0 -0.11669261415E+02  0.62592999424E+00  0.21854147356E+02  0.24782397124E+02  0.51100000000E-03 0. -1.
        -11    1    3    3    0    0  0.68961008397E+01 -0.21309364833E+02 -0.11341422867E+02  0.25105240674E+02  0.51100000000E-03 0.  1.
        -12    1    3    3    0    0 -0.10411970757E+02  0.20024794790E+02  0.42604282252E+00  0.22573946352E+02  0.00000000000E+00 0.  1.
</event>
<event>
 7    1  0.1874105E-013  0.7246159E+02  0.7816164E-02  0.1226708E+00
        -11   -1    0    0    0    0  0.00000000000E+00  0.00000000000E+00  0.45593999997E+02  0.45594000000E+02  0.51100000000E-03 0. -1.
         11   -1    0    0    0    0 -0.00000000000E+00 -0.00000000000E+00 -0.45593999997E+02  0.45594000000E+02  0.51100000000E-03 0.  1.
    9900012    2    1    2    0    0 -0.10716054664E+02 -0.96181299711E+01  0.11972313377E+02  0.72461587121E+02  0.70000021920E+02 0.  0.
        -12    1    1    2    0    0  0.10716054664E+02  0.96181299711E+01 -0.11972313377E+02  0.18726412879E+02  0.00000000000E+00 0.  1.
         11    1    3    3    0    0 -0.26524764175E+01  0.63067634453E+01  0.10052433126E+02  0.12159864650E+02  0.51100000000E-03 0. -1.
        -11    1    3    3    0    0 -0.21221118484E+02  0.14350463820E+00 -0.20664099361E+02  0.29620288080E+02  0.51100000000E-03 0.  1.
        -12    1    3    3    0    0  0.13157540238E+02 -0.16068398055E+02  0.22583979613E+02  0.30681434391E+02  0.00000000000E+00 0.  1.
</event>
<event>
 7    1  0.1874105E-013  0.7246174E+02  0.7816164E-02  0.1226708E+00
        -11   -1    0    0    0    0  0.00000000000E+00  0.00000000000E+00  0.45593999997E+02  0.45594000000E+02  0.51100000000E-03 0. -1.
         11   -1    0    0    0    0 -0.00000000000E+00 -0.00000000000E+00 -0.45593999997E+02  0.45594000000E+02  0.51100000000E-03 0.  1.
    9900012    2    1    2    0    0 -0.11785480647E+02 -0.86486400237E+01  0.11703687224E+02  0.72461739749E+02  0.70000220746E+02 0.  0.
        -12    1    1    2    0    0  0.11785480647E+02  0.86486400237E+01 -0.11703687224E+02  0.18726260251E+02  0.00000000000E+00 0.  1.
         11    1    3    3    0    0 -0.29970705149E+02 -0.15548298286E+02 -0.46928368974E+01  0.34088347938E+02  0.51100000000E-03 0. -1.
        -11    1    3    3    0    0  0.13215757959E+02  0.77192140681E+00 -0.60687503574E+01  0.14563030325E+02  0.51100000000E-03 0.  1.
         12    1    3    3    0    0  0.49694665430E+01  0.61277368554E+01  0.22465274479E+02  0.23810361486E+02  0.00000000000E+00 0. -1.
</event>
<event>
 7    1  0.1874105E-013  0.7246158E+02  0.7816164E-02  0.1226708E+00
        -11   -1    0    0    0    0  0.00000000000E+00  0.00000000000E+00  0.45593999997E+02  0.45594000000E+02  0.51100000000E-03 0.  1.
         11   -1    0    0    0    0 -0.00000000000E+00 -0.00000000000E+00 -0.45593999997E+02  0.45594000000E+02  0.51100000000E-03 0. -1.
    9900012    2    1    2    0    0 -0.16075815539E+02 -0.25432688066E+01 -0.92616841504E+01  0.72461578698E+02  0.70000010948E+02 0.  0.
        -12    1    1    2    0    0  0.16075815539E+02  0.25432688066E+01  0.92616841504E+01  0.18726421302E+02  0.00000000000E+00 0.  1.
         11    1    3    3    0    0  0.12543531607E+02  0.28486210806E+01 -0.71725299002E+01  0.14727525681E+02  0.51100000000E-03 0. -1.
        -11    1    3    3    0    0 -0.98273224054E+01  0.84530185135E+01  0.21143736829E+02  0.24800955526E+02  0.51100000000E-03 0.  1.
        -12    1    3    3    0    0 -0.18792024741E+02 -0.13844908401E+02 -0.23232891080E+02  0.32933097492E+02  0.00000000000E+00 0.  1.
</event>
<event>
 7    1  0.1874105E-013  0.7246158E+02  0.7816164E-02  0.1226708E+00
        -11   -1    0    0    0    0  0.00000000000E+00  0.00000000000E+00  0.45593999997E+02  0.45594000000E+02  0.51100000000E-03 0.  1.
         11   -1    0    0    0    0 -0.00000000000E+00 -0.00000000000E+00 -0.45593999997E+02  0.45594000000E+02  0.51100000000E-03 0. -1.
    9900012    2    1    2    0    0  0.25841493135E+01  0.68201750766E+01 -0.17247789492E+02  0.72461578609E+02  0.70000010831E+02 0.  0.
        -12    1    1    2    0    0 -0.25841493135E+01 -0.68201750766E+01  0.17247789492E+02  0.18726421391E+02  0.00000000000E+00 0.  1.
         11    1    3    3    0    0 -0.24441379788E+01 -0.12525690374E+02 -0.11392905045E+02  0.17107454967E+02  0.51100000000E-03 0. -1.
        -11    1    3    3    0    0  0.38123795551E+01  0.37069587179E+02 -0.33991763557E+01  0.37419820038E+02  0.51100000000E-03 0.  1.
        -12    1    3    3    0    0  0.12159077371E+01 -0.17723721728E+02 -0.24557080914E+01  0.17934303604E+02  0.00000000000E+00 0.  1.
</event>
<event>
 7    1  0.1874105E-013  0.7246155E+02  0.7816164E-02  0.1226708E+00
        -11   -1    0    0    0    0  0.00000000000E+00  0.00000000000E+00  0.45593999997E+02  0.45594000000E+02  0.51100000000E-03 0.  1.
         11   -1    0    0    0    0 -0.00000000000E+00 -0.00000000000E+00 -0.45593999997E+02  0.45594000000E+02  0.51100000000E-03 0. -1.
    9900012    2    1    2    0    0 -0.16604288769E+02 -0.61947633637E+01 -0.60499956216E+01  0.72461549571E+02  0.69999973003E+02 0.  0.
        -12    1    1    2    0    0  0.16604288769E+02  0.61947633637E+01  0.60499956216E+01  0.18726450429E+02  0.00000000000E+00 0.  1.
         11    1    3    3    0    0  0.13202633696E+02  0.23299897919E+01  0.19573014928E+02  0.23724276650E+02  0.51100000000E-03 0.  1.
        -11    1    3    3    0    0 -0.28305728045E+02  0.21758325677E+01 -0.25140903280E+02  0.37921148525E+02  0.51100000000E-03 0. -1.
         12    1    3    3    0    0 -0.15011944208E+01 -0.10700585723E+02 -0.48210726961E+00  0.10816124395E+02  0.00000000000E+00 0. -1.
</event>
<event>
 7    1  0.1874105E-013  0.7246191E+02  0.7816164E-02  0.1226707E+00
        -11   -1    0    0    0    0  0.00000000000E+00  0.00000000000E+00  0.45593999997E+02  0.45594000000E+02  0.51100000000E-03 0. -1.
         11   -1    0    0    0    0 -0.00000000000E+00 -0.00000000000E+00 -0.45593999997E+02  0.45594000000E+02  0.51100000000E-03 0.  1.
    9900012    2    1    2    0    0  0.10697381648E+02  0.68419747623E+01 -0.13762990965E+02  0.72461908227E+02  0.70000440219E+02 0.  0.
        -12    1    1    2    0    0 -0.10697381648E+02 -0.68419747623E+01  0.13762990965E+02  0.18726091773E+02  0.00000000000E+00 0.  1.
         11    1    3    3    0    0  0.14463537616E+01  0.35101733201E+02 -0.19576135467E+01  0.35186018018E+02  0.51100000000E-03 0. -1.
        -11    1    3    3    0    0  0.10363669446E+02 -0.16459891576E+02 -0.15488955491E+02  0.24864460934E+02  0.51100000000E-03 0.  1.
         12    1    3    3    0    0 -0.11126415597E+01 -0.11799866863E+02  0.36835780730E+01  0.12411429275E+02  0.00000000000E+00 0. -1.
</event>
<event>
 7    1  0.1874105E-013  0.7246157E+02  0.7816164E-02  0.1226708E+00
        -11   -1    0    0    0    0  0.00000000000E+00  0.00000000000E+00  0.45593999997E+02  0.45594000000E+02  0.51100000000E-03 0.  1.
         11   -1    0    0    0    0 -0.00000000000E+00 -0.00000000000E+00 -0.45593999997E+02  0.45594000000E+02  0.51100000000E-03 0. -1.
    9900012    2    1    2    0    0 -0.11505864420E+02 -0.80683790697E+01 -0.12377217690E+02  0.72461570158E+02  0.69999999823E+02 0.  0.
        -12    1    1    2    0    0  0.11505864420E+02  0.80683790697E+01  0.12377217690E+02  0.18726429842E+02  0.00000000000E+00 0.  1.
         11    1    3    3    0    0 -0.90925914992E+01  0.69863728180E+01 -0.18119154159E+02  0.21442676442E+02  0.51100000000E-03 0. -1.
        -11    1    3    3    0    0  0.24722278773E+01 -0.23883915120E+02  0.21550611771E+02  0.32264255456E+02  0.51100000000E-03 0.  1.
        -12    1    3    3    0    0 -0.48855007985E+01  0.88291632324E+01 -0.15808675303E+02  0.18754638260E+02  0.00000000000E+00 0.  1.
</event>
<event>
 7    1  0.1874105E-013  0.7246154E+02  0.7816164E-02  0.1226708E+00
        -11   -1    0    0    0    0  0.00000000000E+00  0.00000000000E+00  0.45593999997E+02  0.45594000000E+02  0.51100000000E-03 0.  1.
         11   -1    0    0    0    0 -0.00000000000E+00 -0.00000000000E+00 -0.45593999997E+02  0.45594000000E+02  0.51100000000E-03 0. -1.
    9900012    2    1    2    0    0 -0.83671942177E+00  0.47295491209E+01 -0.18100046368E+02  0.72461537098E+02  0.69999956756E+02 0.  0.
        -12    1    1    2    0    0  0.83671942177E+00 -0.47295491209E+01  0.18100046368E+02  0.18726462902E+02  0.00000000000E+00 0.  1.
         11    1    3    3    0    0  0.14235433216E+02  0.49905510122E+01 -0.68938601360E+00  0.15100609643E+02  0.51100000000E-03 0.  1.
        -11    1    3    3    0    0 -0.28029050622E+02  0.58316852965E+00  0.77160928221E+01  0.29077583342E+02  0.51100000000E-03 0. -1.
        -12    1    3    3    0    0  0.12956897984E+02 -0.84417042092E+00 -0.25126753177E+02  0.28283344114E+02  0.00000000000E+00 0.  1.
</event>
<event>
 7    1  0.1874105E-013  0.7246157E+02  0.7816164E-02  0.1226708E+00
        -11   -1    0    0    0    0  0.00000000000E+00  0.00000000000E+00  0.45593999997E+02  0.45594000000E+02  0.51100000000E-03 0.  1.
         11   -1    0    0    0    0 -0.00000000000E+00 -0.00000000000E+00 -0.45593999997E+02  0.45594000000E+02  0.51100000000E-03 0. -1.
    9900012    2    1    2    0    0 -0.16790491823E+02  0.36722597601E+01 -0.74345935082E+01  0.72461567130E+02  0.69999995877E+02 0.  0.
        -12    1    1    2    0    0  0.16790491823E+02 -0.36722597601E+01  0.74345935082E+01  0.18726432870E+02  0.00000000000E+00 0.  1.
         11    1    3    3    0    0  0.86829372909E+01 -0.14994030627E+02 -0.27434196843E+01  0.17542539903E+02  0.51100000000E-03 0. -1.
        -11    1    3    3    0    0 -0.27947543951E+02  0.20235435834E+02 -0.19628870258E+02  0.39696733167E+02  0.51100000000E-03 0.  1.
        -12    1    3    3    0    0  0.24741148368E+01 -0.15691454472E+01  0.14937696434E+02  0.15222294059E+02  0.00000000000E+00 0.  1.
</event>
<event>
 7    1  0.1874105E-013  0.7246155E+02  0.7816164E-02  0.1226708E+00
        -11   -1    0    0    0    0  0.00000000000E+00  0.00000000000E+00  0.45593999997E+02  0.45594000000E+02  0.51100000000E-03 0.  1.
         11   -1    0    0    0    0 -0.00000000000E+00 -0.00000000000E+00 -0.45593999997E+02  0.45594000000E+02  0.51100000000E-03 0. -1.
    9900012    2    1    2    0    0  0.10495120621E+02  0.13225157342E+02 -0.81010913413E+01  0.72461547466E+02  0.69999970262E+02 0.  0.
        -12    1    1    2    0    0 -0.10495120621E+02 -0.13225157342E+02  0.81010913413E+01  0.18726452534E+02  0.00000000000E+00 0.  1.
         11    1    3    3    0    0 -0.12550299350E+01  0.16378313619E+02 -0.26956137604E+02  0.31566716838E+02  0.51100000000E-03 0. -1.
        -11    1    3    3    0    0  0.96159005723E+00 -0.17473042285E+02  0.13743897540E+02  0.22251439998E+02  0.51100000000E-03 0.  1.
         12    1    3    3    0    0  0.10788560499E+02  0.14319886008E+02  0.51111487226E+01  0.18643390630E+02  0.00000000000E+00 0. -1.
</event>
<event>
 7    1  0.2196620E-013  0.7246158E+02  0.7816164E-02  0.1226708E+00
        -11   -1    0    0    0    0  0.00000000000E+00  0.00000000000E+00  0.45593999997E+02  0.45594000000E+02  0.51100000000E-03 0. -1.
         11   -1    0    0    0    0 -0.00000000000E+00 -0.00000000000E+00 -0.45593999997E+02  0.45594000000E+02  0.51100000000E-03 0.  1.
    9900012    2    1    2    0    0 -0.27780956280E+01 -0.54533781628E+01  0.17698069771E+02  0.72461579565E+02  0.70000012077E+02 0.  0.
        -12    1    1    2    0    0  0.27780956280E+01  0.54533781628E+01 -0.17698069771E+02  0.18726420435E+02  0.00000000000E+00 0.  1.
         11    1    3    3    0    0 -0.23893109841E+02 -0.19387947150E+02  0.20381215221E+02  0.36907548371E+02  0.51100000000E-03 0. -1.
        -11    1    3    3    0    0  0.22595392745E+02  0.24442870955E+01  0.24958985767E+01  0.22863854064E+02  0.51100000000E-03 0.  1.
        -12    1    3    3    0    0 -0.14803785320E+01  0.11490281892E+02 -0.51790440275E+01  0.12690177130E+02  0.00000000000E+00 0.  1.
</event>
<event>
 7    1  0.1874105E-013  0.7246159E+02  0.7816164E-02  0.1226708E+00
        -11   -1    0    0    0    0  0.00000000000E+00  0.00000000000E+00  0.45593999997E+02  0.45594000000E+02  0.51100000000E-03 0. -1.
         11   -1    0    0    0    0 -0.00000000000E+00 -0.00000000000E+00 -0.45593999997E+02  0.45594000000E+02  0.51100000000E-03 0.  1.
    9900012    2    1    2    0    0 -0.14518431383E+02  0.11725871640E+02  0.15484342617E+01  0.72461586456E+02  0.70000021054E+02 0.  0.
        -12    1    1    2    0    0  0.14518431383E+02 -0.11725871640E+02 -0.15484342617E+01  0.18726413544E+02  0.00000000000E+00 0.  1.
         11    1    3    3    0    0 -0.18579570487E+02  0.52833005227E+01  0.23171414054E+02  0.30166672561E+02  0.51100000000E-03 0. -1.
        -11    1    3    3    0    0  0.19188084052E+02  0.82235470661E+01 -0.14887307099E+02  0.25640616390E+02  0.51100000000E-03 0.  1.
        -12    1    3    3    0    0 -0.15126944947E+02 -0.17809759483E+01 -0.67356726932E+01  0.16654297505E+02  0.00000000000E+00 0.  1.
</event>
<event>
 7    1  0.1874105E-013  0.7246162E+02  0.7816164E-02  0.1226708E+00
        -11   -1    0    0    0    0  0.00000000000E+00  0.00000000000E+00  0.45593999997E+02  0.45594000000E+02  0.51100000000E-03 0.  1.
         11   -1    0    0    0    0 -0.00000000000E+00 -0.00000000000E+00 -0.45593999997E+02  0.45594000000E+02  0.51100000000E-03 0. -1.
    9900012    2    1    2    0    0  0.62151810528E+01 -0.13503797776E+02 -0.11388429615E+02  0.72461618636E+02  0.70000062973E+02 0.  0.
        -12    1    1    2    0    0 -0.62151810528E+01  0.13503797776E+02  0.11388429615E+02  0.18726381364E+02  0.00000000000E+00 0.  1.
         11    1    3    3    0    0  0.19719265654E+02 -0.28444113267E+02  0.48482611423E+01  0.34948857690E+02  0.51100000000E-03 0. -1.
        -11    1    3    3    0    0 -0.22330366315E+01  0.18031089455E+02 -0.18137017142E+02  0.25672125557E+02  0.51100000000E-03 0.  1.
        -12    1    3    3    0    0 -0.11271047970E+02 -0.30907739640E+01  0.19003263844E+01  0.11840635389E+02  0.00000000000E+00 0.  1.
</event>
<event>
 7    1  0.1874105E-013  0.7246173E+02  0.7816164E-02  0.1226708E+00
        -11   -1    0    0    0    0  0.00000000000E+00  0.00000000000E+00  0.45593999997E+02  0.45594000000E+02  0.51100000000E-03 0. -1.
         11   -1    0    0    0    0 -0.00000000000E+00 -0.00000000000E+00 -0.45593999997E+02  0.45594000000E+02  0.51100000000E-03 0.  1.
    9900012    2    1    2    0    0  0.35314281529E+01 -0.10389964734E+02 -0.15174022584E+02  0.72461726656E+02  0.70000203690E+02 0.  0.
        -12    1    1    2    0    0 -0.35314281529E+01  0.10389964734E+02  0.15174022584E+02  0.18726273344E+02  0.00000000000E+00 0.  1.
         11    1    3    3    0    0  0.27260005774E+02 -0.12211506281E+02  0.14564289209E+02  0.33231721606E+02  0.51100000000E-03 0. -1.
        -11    1    3    3    0    0 -0.19974392124E+01  0.46148542515E+00 -0.87524324142E+01  0.89893161937E+01  0.51100000000E-03 0.  1.
         12    1    3    3    0    0 -0.21731138409E+02  0.13600561224E+01 -0.20985879379E+02  0.30240688856E+02  0.00000000000E+00 0. -1.
</event>
<event>
 7    1  0.1874105E-013  0.7246162E+02  0.7816164E-02  0.1226708E+00
        -11   -1    0    0    0    0  0.00000000000E+00  0.00000000000E+00  0.45593999997E+02  0.45594000000E+02  0.51100000000E-03 0.  1.
         11   -1    0    0    0    0 -0.00000000000E+00 -0.00000000000E+00 -0.45593999997E+02  0.45594000000E+02  0.51100000000E-03 0. -1.
    9900012    2    1    2    0    0  0.16416368681E+02 -0.74143438867E+01 -0.51193366407E+01  0.72461621184E+02  0.70000066293E+02 0.  0.
        -12    1    1    2    0    0 -0.16416368681E+02  0.74143438867E+01  0.51193366407E+01  0.18726378816E+02  0.00000000000E+00 0.  1.
         11    1    3    3    0    0  0.25191316425E+01 -0.65443673814E+01 -0.17648722203E+01  0.72311508676E+01  0.51100000000E-03 0. -1.
        -11    1    3    3    0    0  0.75374976032E+01  0.30560900812E+02  0.55206211971E+01  0.31957155493E+02  0.51100000000E-03 0.  1.
        -12    1    3    3    0    0  0.63597394351E+01 -0.31430877317E+02 -0.88750856175E+01  0.33273314823E+02  0.00000000000E+00 0.  1.
</event>
<event>
 7    1  0.1874105E-013  0.7246164E+02  0.7816164E-02  0.1226708E+00
        -11   -1    0    0    0    0  0.00000000000E+00  0.00000000000E+00  0.45593999997E+02  0.45594000000E+02  0.51100000000E-03 0.  1.
         11   -1    0    0    0    0 -0.00000000000E+00 -0.00000000000E+00 -0.45593999997E+02  0.45594000000E+02  0.51100000000E-03 0. -1.
    9900012    2    1    2    0    0 -0.10537704751E+02  0.88917774075E+01 -0.12671606149E+02  0.72461640790E+02  0.70000091833E+02 0.  0.
        -12    1    1    2    0    0  0.10537704751E+02 -0.88917774075E+01  0.12671606149E+02  0.18726359210E+02  0.00000000000E+00 0.  1.
         11    1    3    3    0    0 -0.24946203796E+02  0.15493707866E+02  0.99095366234E+00  0.29382819073E+02  0.51100000000E-03 0. -1.
        -11    1    3    3    0    0  0.10077419899E+02 -0.21294273601E+02 -0.14628920768E+02  0.27730953881E+02  0.51100000000E-03 0.  1.
        -12    1    3    3    0    0  0.43310791461E+01  0.14692343143E+02  0.96636095717E+00  0.15347867836E+02  0.00000000000E+00 0.  1.
</event>
<event>
 7    1  0.1874105E-013  0.7246158E+02  0.7816164E-02  0.1226708E+00
        -11   -1    0    0    0    0  0.00000000000E+00  0.00000000000E+00  0.45593999997E+02  0.45594000000E+02  0.51100000000E-03 0.  1.
         11   -1    0    0    0    0 -0.00000000000E+00 -0.00000000000E+00 -0.45593999997E+02  0.45594000000E+02  0.51100000000E-03 0. -1.
    9900012    2    1    2    0    0 -0.55702326005E+01 -0.71877556061E+01 -0.16370327954E+02  0.72461575910E+02  0.70000007316E+02 0.  0.
        -12    1    1    2    0    0  0.55702326005E+01  0.71877556061E+01  0.16370327954E+02  0.18726424090E+02  0.00000000000E+00 0.  1.
         11    1    3    3    0    0 -0.65718203978E+01  0.26523109508E+02 -0.59339381324E+01  0.27962041831E+02  0.51100000000E-03 0. -1.
        -11    1    3    3    0    0  0.77244117076E+01 -0.74617580681E+01  0.64923150650E+01  0.12549682261E+02  0.51100000000E-03 0.  1.
         12    1    3    3    0    0 -0.67228239102E+01 -0.26249107046E+02 -0.16928704886E+02  0.31949851818E+02  0.00000000000E+00 0. -1.
</event>
<event>
 7    1  0.1874105E-013  0.7246160E+02  0.7816164E-02  0.1226708E+00
        -11   -1    0    0    0    0  0.00000000000E+00  0.00000000000E+00  0.45593999997E+02  0.45594000000E+02  0.51100000000E-03 0.  1.
         11   -1    0    0    0    0 -0.00000000000E+00 -0.00000000000E+00 -0.45593999997E+02  0.45594000000E+02  0.51100000000E-03 0. -1.
    9900012    2    1    2    0    0 -0.86461256278E+01  0.16602108208E+02 -0.54088363610E+00  0.72461600442E+02  0.70000039273E+02 0.  0.
        -12    1    1    2    0    0  0.86461256278E+01 -0.16602108208E+02  0.54088363610E+00  0.18726399558E+02  0.00000000000E+00 0.  1.
         11    1    3    3    0    0 -0.12919376316E+02 -0.10898217003E+02 -0.17701939338E+02  0.24475295194E+02  0.51100000000E-03 0. -1.
        -11    1    3    3    0    0 -0.14661846805E+02  0.17680900317E+02  0.12511251316E+02  0.26155599735E+02  0.51100000000E-03 0.  1.
         12    1    3    3    0    0  0.18935097494E+02  0.98194248938E+01  0.46498043863E+01  0.21830705512E+02  0.00000000000E+00 0. -1.
</event>
<event>
 7    1  0.1874105E-013  0.7246164E+02  0.7816164E-02  0.1226708E+00
        -11   -1    0    0    0    0  0.00000000000E+00  0.00000000000E+00  0.45593999997E+02  0.45594000000E+02  0.51100000000E-03 0. -1.
         11   -1    0    0    0    0 -0.00000000000E+00 -0.00000000000E+00 -0.45593999997E+02  0.45594000000E+02  0.51100000000E-03 0.  1.
    9900012    2    1    2    0    0 -0.66526338058E+01  0.17460259018E+02 -0.12483645124E+01  0.72461639021E+02  0.70000089530E+02 0.  0.
        -12    1    1    2    0    0  0.66526338058E+01 -0.17460259018E+02  0.12483645124E+01  0.18726360979E+02  0.00000000000E+00 0.  1.
         11    1    3    3    0    0 -0.11758398809E+02 -0.17372962557E+00 -0.26961957337E+02  0.29414915744E+02  0.51100000000E-03 0.  1.
        -11    1    3    3    0    0 -0.44916058502E+01  0.19448857807E+02  0.26580495014E+02  0.33240868048E+02  0.51100000000E-03 0. -1.
        -12    1    3    3    0    0  0.95973708534E+01 -0.18148691633E+01 -0.86690219010E+00  0.98058552296E+01  0.00000000000E+00 0.  1.
</event>
<event>
 7    1  0.1874105E-013  0.7246158E+02  0.7816164E-02  0.1226708E+00
        -11   -1    0    0    0    0  0.00000000000E+00  0.00000000000E+00  0.45593999997E+02  0.45594000000E+02  0.51100000000E-03 0.  1.
         11   -1    0    0    0    0 -0.00000000000E+00 -0.00000000000E+00 -0.45593999997E+02  0.45594000000E+02  0.51100000000E-03 0. -1.
    9900012    2    1    2    0    0 -0.16840440619E+02 -0.91338764162E+00 -0.81390385756E+01  0.72461583734E+02  0.70000017508E+02 0.  0.
        -12    1    1    2    0    0  0.16840440619E+02  0.91338764162E+00  0.81390385756E+01  0.18726416266E+02  0.00000000000E+00 0.  1.
         11    1    3    3    0    0 -0.19972587549E+02  0.23258029889E+02  0.14264316121E+01  0.30689980696E+02  0.51100000000E-03 0. -1.
        -11    1    3    3    0    0 -0.10634704303E+02 -0.23765054458E+02 -0.10251776877E+02  0.27981666827E+02  0.51100000000E-03 0.  1.
         12    1    3    3    0    0  0.13766851234E+02 -0.40636307226E+00  0.68630668955E+00  0.13789936211E+02  0.00000000000E+00 0. -1.
</event>
<event>
 7    1  0.1874105E-013  0.7246159E+02  0.7816164E-02  0.1226708E+00
        -11   -1    0    0    0    0  0.00000000000E+00  0.00000000000E+00  0.45593999997E+02  0.45594000000E+02  0.51100000000E-03 0.  1.
         11   -1    0    0    0    0 -0.00000000000E+00 -0.00000000000E+00 -0.45593999997E+02  0.45594000000E+02  0.51100000000E-03 0. -1.
    9900012    2    1    2    0    0  0.15912582249E+02  0.71948742945E+00 -0.98463425765E+01  0.72461590891E+02  0.70000026831E+02 0.  0.
        -12    1    1    2    0    0 -0.15912582249E+02 -0.71948742945E+00  0.98463425765E+01  0.18726409109E+02  0.00000000000E+00 0.  1.
         11    1    3    3    0    0 -0.16629988966E+02  0.11025432483E+02 -0.13702493521E+02  0.24204855369E+02  0.51100000000E-03 0. -1.
        -11    1    3    3    0    0  0.35188488483E+02  0.19439090767E+01  0.35273522995E+00  0.35243906234E+02  0.51100000000E-03 0.  1.
        -12    1    3    3    0    0 -0.26459172684E+01 -0.12249854130E+02  0.35034157148E+01  0.13012829288E+02  0.00000000000E+00 0.  1.
</event>
<event>
 7    1  0.1874105E-013  0.7246160E+02  0.7816164E-02  0.1226708E+00
        -11   -1    0    0    0    0  0.00000000000E+00  0.00000000000E+00  0.45593999997E+02  0.45594000000E+02  0.51100000000E-03 0.  1.
         11   -1    0    0    0    0 -0.00000000000E+00 -0.00000000000E+00 -0.45593999997E+02  0.45594000000E+02  0.51100000000E-03 0. -1.
    9900012    2    1    2    0    0  0.13338230384E+02 -0.51433875580E+00 -0.13134117970E+02  0.72461601815E+02  0.70000041061E+02 0.  0.
        -12    1    1    2    0    0 -0.13338230384E+02  0.51433875580E+00  0.13134117970E+02  0.18726398185E+02  0.00000000000E+00 0.  1.
         11    1    3    3    0    0  0.18743799004E+01  0.15790005044E+02 -0.16690398434E+02  0.23052265820E+02  0.51100000000E-03 0. -1.
        -11    1    3    3    0    0  0.74491677476E+01 -0.31902098810E+02 -0.63640792603E+00  0.32766431358E+02  0.51100000000E-03 0.  1.
        -12    1    3    3    0    0  0.40146827361E+01  0.15597755010E+02  0.41926883899E+01  0.16642904637E+02  0.00000000000E+00 0.  1.
</event>
<event>
 7    1  0.1874105E-013  0.7246159E+02  0.7816164E-02  0.1226708E+00
        -11   -1    0    0    0    0  0.00000000000E+00  0.00000000000E+00  0.45593999997E+02  0.45594000000E+02  0.51100000000E-03 0.  1.
         11   -1    0    0    0    0 -0.00000000000E+00 -0.00000000000E+00 -0.45593999997E+02  0.45594000000E+02  0.51100000000E-03 0. -1.
    9900012    2    1    2    0    0 -0.13296561043E+02  0.11887333418E+02 -0.57071240069E+01  0.72461588283E+02  0.70000023433E+02 0.  0.
        -12    1    1    2    0    0  0.13296561043E+02 -0.11887333418E+02  0.57071240069E+01  0.18726411717E+02  0.00000000000E+00 0.  1.
         11    1    3    3    0    0 -0.79930334757E+01  0.14710910571E+02 -0.25916582992E+02  0.30853990799E+02  0.51100000000E-03 0. -1.
        -11    1    3    3    0    0 -0.96285317575E+01 -0.17192573158E+02  0.17510213280E+02  0.26360970486E+02  0.51100000000E-03 0.  1.
         12    1    3    3    0    0  0.43250041899E+01  0.14368996005E+02  0.26992457046E+01  0.15246626998E+02  0.00000000000E+00 0. -1.
</event>
<event>
 7    1  0.1874105E-013  0.7246145E+02  0.7816164E-02  0.1226708E+00
        -11   -1    0    0    0    0  0.00000000000E+00  0.00000000000E+00  0.45593999997E+02  0.45594000000E+02  0.51100000000E-03 0. -1.
         11   -1    0    0    0    0 -0.00000000000E+00 -0.00000000000E+00 -0.45593999997E+02  0.45594000000E+02  0.51100000000E-03 0.  1.
    9900012    2    1    2    0    0 -0.74374662524E+00  0.11116378526E+02  0.15051792931E+02  0.72461454643E+02  0.69999849342E+02 0.  0.
        -12    1    1    2    0    0  0.74374662524E+00 -0.11116378526E+02 -0.15051792931E+02  0.18726545357E+02  0.00000000000E+00 0.  1.
         11    1    3    3    0    0 -0.18233300751E+01 -0.21332065062E+02  0.21477179604E+02  0.30325744449E+02  0.51100000000E-03 0. -1.
        -11    1    3    3    0    0  0.10096865267E+02  0.29634291883E+01  0.49936657011E+00  0.10534608109E+02  0.51100000000E-03 0.  1.
         12    1    3    3    0    0 -0.90172818170E+01  0.29485014400E+02 -0.69247532423E+01  0.31601102085E+02  0.00000000000E+00 0. -1.
</event>
<event>
 7    1  0.1874105E-013  0.7246177E+02  0.7816164E-02  0.1226707E+00
        -11   -1    0    0    0    0  0.00000000000E+00  0.00000000000E+00  0.45593999997E+02  0.45594000000E+02  0.51100000000E-03 0. -1.
         11   -1    0    0    0    0 -0.00000000000E+00 -0.00000000000E+00 -0.45593999997E+02  0.45594000000E+02  0.51100000000E-03 0.  1.
    9900012    2    1    2    0    0  0.14350093527E+02 -0.11938456498E+02  0.14898342142E+01  0.72461774172E+02  0.70000265588E+02 0.  0.
        -12    1    1    2    0    0 -0.14350093527E+02  0.11938456498E+02 -0.14898342142E+01  0.18726225828E+02  0.00000000000E+00 0.  1.
         11    1    3    3    0    0  0.10513810815E+02  0.95845204715E+01  0.17025169747E+02  0.22186925332E+02  0.51100000000E-03 0. -1.
        -11    1    3    3    0    0 -0.15350229237E+02 -0.23202850717E+02 -0.48216198926E+01  0.28235612932E+02  0.51100000000E-03 0.  1.
        -12    1    3    3    0    0  0.19186511949E+02  0.16798737478E+01 -0.10713715640E+02  0.22039235908E+02  0.00000000000E+00 0.  1.
</event>
<event>
 7    1  0.1874105E-013  0.7246155E+02  0.7816164E-02  0.1226708E+00
        -11   -1    0    0    0    0  0.00000000000E+00  0.00000000000E+00  0.45593999997E+02  0.45594000000E+02  0.51100000000E-03 0.  1.
         11   -1    0    0    0    0 -0.00000000000E+00 -0.00000000000E+00 -0.45593999997E+02  0.45594000000E+02  0.51100000000E-03 0. -1.
    9900012    2    1    2    0    0 -0.76724107964E+01 -0.50709560724E+01 -0.16312550473E+02  0.72461553838E+02  0.69999978563E+02 0.  0.
        -12    1    1    2    0    0  0.76724107964E+01  0.50709560724E+01  0.16312550473E+02  0.18726446162E+02  0.00000000000E+00 0.  1.
         11    1    3    3    0    0  0.23590655374E+01  0.26526509882E+02 -0.15267770227E+02  0.30697324390E+02  0.51100000000E-03 0. -1.
        -11    1    3    3    0    0  0.77147575852E+01 -0.13459422667E+02  0.37003317852E+01  0.15948855718E+02  0.51100000000E-03 0.  1.
         12    1    3    3    0    0 -0.17746233919E+02 -0.18138043287E+02 -0.47451120311E+01  0.25815373729E+02  0.00000000000E+00 0. -1.
</event>
<event>
 7    1  0.1874105E-013  0.7246164E+02  0.7816164E-02  0.1226708E+00
        -11   -1    0    0    0    0  0.00000000000E+00  0.00000000000E+00  0.45593999997E+02  0.45594000000E+02  0.51100000000E-03 0.  1.
         11   -1    0    0    0    0 -0.00000000000E+00 -0.00000000000E+00 -0.45593999997E+02  0.45594000000E+02  0.51100000000E-03 0. -1.
    9900012    2    1    2    0    0 -0.12543997396E+02 -0.11880275076E+02  0.72238402532E+01  0.72461636911E+02  0.70000086780E+02 0.  0.
        -12    1    1    2    0    0  0.12543997396E+02  0.11880275076E+02 -0.72238402532E+01  0.18726363089E+02  0.00000000000E+00 0.  1.
         11    1    3    3    0    0 -0.30923504656E+01  0.21177652308E+02  0.88256967321E+01  0.23150561802E+02  0.51100000000E-03 0.  1.
        -11    1    3    3    0    0  0.87085244750E+01 -0.24357818320E+02  0.78972057898E+01  0.27046396644E+02  0.51100000000E-03 0. -1.
        -12    1    3    3    0    0 -0.18160171405E+02 -0.87001090634E+01 -0.94990622687E+01  0.22264678465E+02  0.00000000000E+00 0.  1.
</event>
<event>
 7    1  0.1874105E-013  0.7246150E+02  0.7816164E-02  0.1226708E+00
        -11   -1    0    0    0    0  0.00000000000E+00  0.00000000000E+00  0.45593999997E+02  0.45594000000E+02  0.51100000000E-03 0. -1.
         11   -1    0    0    0    0 -0.00000000000E+00 -0.00000000000E+00 -0.45593999997E+02  0.45594000000E+02  0.51100000000E-03 0.  1.
    9900012    2    1    2    0    0 -0.51432906084E+01 -0.15588825209E+02  0.90120495032E+01  0.72461496164E+02  0.69999903431E+02 0.  0.
        -12    1    1    2    0    0  0.51432906084E+01  0.15588825209E+02 -0.90120495032E+01  0.18726503836E+02  0.00000000000E+00 0.  1.
         11    1    3    3    0    0 -0.71049880158E+01  0.17836507669E+01  0.28766297405E+02  0.29684375207E+02  0.51100000000E-03 0. -1.
        -11    1    3    3    0    0 -0.34624675711E+01 -0.26499729553E+02 -0.17435310578E+02  0.31909471999E+02  0.51100000000E-03 0.  1.
        -12    1    3    3    0    0  0.54241649785E+01  0.91272535767E+01 -0.23189373235E+01  0.10867648958E+02  0.00000000000E+00 0.  1.
</event>
<event>
 7    1  0.1874105E-013  0.7246166E+02  0.7816164E-02  0.1226708E+00
        -11   -1    0    0    0    0  0.00000000000E+00  0.00000000000E+00  0.45593999997E+02  0.45594000000E+02  0.51100000000E-03 0.  1.
         11   -1    0    0    0    0 -0.00000000000E+00 -0.00000000000E+00 -0.45593999997E+02  0.45594000000E+02  0.51100000000E-03 0. -1.
    9900012    2    1    2    0    0  0.81906470198E+01 -0.11209960326E+01 -0.16802756614E+02  0.72461655975E+02  0.70000111615E+02 0.  0.
        -12    1    1    2    0    0 -0.81906470198E+01  0.11209960326E+01  0.16802756614E+02  0.18726344025E+02  0.00000000000E+00 0.  1.
         11    1    3    3    0    0  0.31673061648E+02  0.93141826403E+01 -0.26347659601E+02  0.42239034070E+02  0.51100000000E-03 0. -1.
        -11    1    3    3    0    0 -0.13660106750E+02 -0.98345285435E+01  0.47341877534E+00  0.16838663656E+02  0.51100000000E-03 0.  1.
         12    1    3    3    0    0 -0.98223078783E+01 -0.60065012928E+00  0.90714842112E+01  0.13383958250E+02  0.00000000000E+00 0. -1.
</event>
<event>
 7    1  0.1874105E-013  0.7246159E+02  0.7816164E-02  0.1226708E+00
        -11   -1    0    0    0    0  0.00000000000E+00  0.00000000000E+00  0.45593999997E+02  0.45594000000E+02  0.51100000000E-03 0. -1.
         11   -1    0    0    0    0 -0.00000000000E+00 -0.00000000000E+00 -0.45593999997E+02  0.45594000000E+02  0.51100000000E-03 0.  1.
    9900012    2    1    2    0    0 -0.76166931185E+01  0.77999713453E+01  0.15225794184E+02  0.72461591493E+02  0.70000027615E+02 0.  0.
        -12    1    1    2    0    0  0.76166931185E+01 -0.77999713453E+01 -0.15225794184E+02  0.18726408507E+02  0.00000000000E+00 0.  1.
         11    1    3    3    0    0 -0.35155563266E+02  0.79119098482E+00  0.20568949481E+02  0.40738449832E+02  0.51100000000E-03 0. -1.
        -11    1    3    3    0    0  0.14196697876E+02  0.74833388520E+00 -0.86196059334E+01  0.16625397465E+02  0.51100000000E-03 0.  1.
         12    1    3    3    0    0  0.13342172272E+02  0.62604464753E+01  0.32764506363E+01  0.15097744195E+02  0.00000000000E+00 0. -1.
</event>
<event>
 7    1  0.1874105E-013  0.7246156E+02  0.7816164E-02  0.1226708E+00
        -11   -1    0    0    0    0  0.00000000000E+00  0.00000000000E+00  0.45593999997E+02  0.45594000000E+02  0.51100000000E-03 0. -1.
         11   -1    0    0    0    0 -0.00000000000E+00 -0.00000000000E+00 -0.45593999997E+02  0.45594000000E+02  0.51100000000E-03 0.  1.
    9900012    2    1    2    0    0 -0.13820293826E+02 -0.10259232206E+02  0.73774855323E+01  0.72461557207E+02  0.69999982952E+02 0.  0.
        -12    1    1    2    0    0  0.13820293826E+02  0.10259232206E+02 -0.73774855323E+01  0.18726442793E+02  0.00000000000E+00 0.  1.
         11    1    3    3    0    0  0.68558176117E+01 -0.16616842322E+02  0.75338841935E+01  0.19490538607E+02  0.51100000000E-03 0. -1.
        -11    1    3    3    0    0 -0.34118387037E+02  0.90327198256E+01  0.90803554042E+01  0.36443205348E+02  0.51100000000E-03 0.  1.
        -12    1    3    3    0    0  0.13442275600E+02 -0.26751097089E+01 -0.92367540654E+01  0.16527813253E+02  0.00000000000E+00 0.  1.
</event>
<event>
 7    1  0.1874105E-013  0.7246156E+02  0.7816164E-02  0.1226708E+00
        -11   -1    0    0    0    0  0.00000000000E+00  0.00000000000E+00  0.45593999997E+02  0.45594000000E+02  0.51100000000E-03 0. -1.
         11   -1    0    0    0    0 -0.00000000000E+00 -0.00000000000E+00 -0.45593999997E+02  0.45594000000E+02  0.51100000000E-03 0.  1.
    9900012    2    1    2    0    0  0.14232575173E+02 -0.11262863577E+02  0.46109949351E+01  0.72461559700E+02  0.69999986199E+02 0.  0.
        -12    1    1    2    0    0 -0.14232575173E+02  0.11262863577E+02 -0.46109949351E+01  0.18726440300E+02  0.00000000000E+00 0.  1.
         11    1    3    3    0    0  0.10332090372E+02 -0.10485629243E+02  0.24765491250E+01  0.14927618963E+02  0.51100000000E-03 0. -1.
        -11    1    3    3    0    0  0.15769927910E+02  0.23560703003E+02 -0.65486126635E+01  0.29097795112E+02  0.51100000000E-03 0.  1.
        -12    1    3    3    0    0 -0.11869443109E+02 -0.24337937338E+02  0.86830584736E+01  0.28436145625E+02  0.00000000000E+00 0.  1.
</event>
<event>
 7    1  0.1874105E-013  0.7246157E+02  0.7816164E-02  0.1226708E+00
        -11   -1    0    0    0    0  0.00000000000E+00  0.00000000000E+00  0.45593999997E+02  0.45594000000E+02  0.51100000000E-03 0.  1.
         11   -1    0    0    0    0 -0.00000000000E+00 -0.00000000000E+00 -0.45593999997E+02  0.45594000000E+02  0.51100000000E-03 0. -1.
    9900012    2    1    2    0    0  0.15710339301E+02  0.85768099515E+01 -0.55047861617E+01  0.72461572135E+02  0.70000002398E+02 0.  0.
        -12    1    1    2    0    0 -0.15710339301E+02 -0.85768099515E+01  0.55047861617E+01  0.18726427865E+02  0.00000000000E+00 0.  1.
         11    1    3    3    0    0  0.12366435338E+02 -0.20435723178E+02 -0.38861151369E+01  0.24200194129E+02  0.51100000000E-03 0. -1.
        -11    1    3    3    0    0 -0.15394510707E+02  0.16213498387E+02  0.78178102731E+01  0.23685156694E+02  0.51100000000E-03 0.  1.
        -12    1    3    3    0    0  0.18738414671E+02  0.12799034742E+02 -0.94364812979E+01  0.24576221312E+02  0.00000000000E+00 0.  1.
</event>
<event>
 7    1  0.1874105E-013  0.7246162E+02  0.7816164E-02  0.1226708E+00
        -11   -1    0    0    0    0  0.00000000000E+00  0.00000000000E+00  0.45593999997E+02  0.45594000000E+02  0.51100000000E-03 0.  1.
         11   -1    0    0    0    0 -0.00000000000E+00 -0.00000000000E+00 -0.45593999997E+02  0.45594000000E+02  0.51100000000E-03 0. -1.
    9900012    2    1    2    0    0  0.11194849896E+02 -0.99298564857E+01 -0.11258357394E+02  0.72461619538E+02  0.70000064149E+02 0.  0.
        -12    1    1    2    0    0 -0.11194849896E+02  0.99298564857E+01  0.11258357394E+02  0.18726380462E+02  0.00000000000E+00 0.  1.
         11    1    3    3    0    0  0.18878755404E+02 -0.21447654215E+02 -0.25131019715E+02  0.38052298605E+02  0.51100000000E-03 0. -1.
        -11    1    3    3    0    0 -0.16029700569E+02 -0.13832783325E+01  0.62918926230E+01  0.17275782828E+02  0.51100000000E-03 0.  1.
         12    1    3    3    0    0  0.83457950606E+01  0.12901076062E+02  0.75807696987E+01  0.17133538105E+02  0.00000000000E+00 0. -1.
</event>
<event>
 7    1  0.1874105E-013  0.7246154E+02  0.7816164E-02  0.1226708E+00
        -11   -1    0    0    0    0  0.00000000000E+00  0.00000000000E+00  0.45593999997E+02  0.45594000000E+02  0.51100000000E-03 0. -1.
         11   -1    0    0    0    0 -0.00000000000E+00 -0.00000000000E+00 -0.45593999997E+02  0.45594000000E+02  0.51100000000E-03 0.  1.
    9900012    2    1    2    0    0  0.35592425119E+01 -0.10428119355E+02  0.15141550303E+02  0.72461536743E+02  0.69999956293E+02 0.  0.
        -12    1    1    2    0    0 -0.35592425119E+01  0.10428119355E+02 -0.15141550303E+02  0.18726463257E+02  0.00000000000E+00 0.  1.
         11    1    3    3    0    0 -0.22986395110E+02 -0.21133571680E+01  0.15854262181E+02  0.28003540280E+02  0.51100000000E-03 0. -1.
        -11    1    3    3    0    0  0.18085141592E+02  0.32116109005E+01 -0.15393111534E+02  0.23965280593E+02  0.51100000000E-03 0.  1.
        -12    1    3    3    0    0  0.84604960302E+01 -0.11526373087E+02  0.14680399656E+02  0.20492715869E+02  0.00000000000E+00 0.  1.
</event>
<event>
 7    1  0.1874105E-013  0.7246156E+02  0.7816164E-02  0.1226708E+00
        -11   -1    0    0    0    0  0.00000000000E+00  0.00000000000E+00  0.45593999997E+02  0.45594000000E+02  0.51100000000E-03 0.  1.
         11   -1    0    0    0    0 -0.00000000000E+00 -0.00000000000E+00 -0.45593999997E+02  0.45594000000E+02  0.51100000000E-03 0. -1.
    9900012    2    1    2    0    0  0.12729181310E+02 -0.10936435485E+02  0.83091413848E+01  0.72461561244E+02  0.69999988210E+02 0.  0.
        -12    1    1    2    0    0 -0.12729181310E+02  0.10936435485E+02 -0.83091413848E+01  0.18726438756E+02  0.00000000000E+00 0.  1.
         11    1    3    3    0    0 -0.79036169586E+01  0.65291241178E+01 -0.16028868571E+02  0.19026856038E+02  0.51100000000E-03 0. -1.
        -11    1    3    3    0    0  0.20736432830E+02 -0.50544336106E+00  0.29175798933E+02  0.35797798300E+02  0.51100000000E-03 0.  1.
        -12    1    3    3    0    0 -0.10363456106E+00 -0.16960116241E+02 -0.48377889773E+01  0.17636906906E+02  0.00000000000E+00 0.  1.
</event>
<event>
 7    1  0.1874105E-013  0.7246111E+02  0.7816164E-02  0.1226709E+00
        -11   -1    0    0    0    0  0.00000000000E+00  0.00000000000E+00  0.45593999997E+02  0.45594000000E+02  0.51100000000E-03 0.  1.
         11   -1    0    0    0    0 -0.00000000000E+00 -0.00000000000E+00 -0.45593999997E+02  0.45594000000E+02  0.51100000000E-03 0. -1.
    9900012    2    1    2    0    0 -0.40249757354E+01 -0.16230068274E+02 -0.84309452819E+01  0.72461110665E+02  0.69999401244E+02 0.  0.
        -12    1    1    2    0    0  0.40249757354E+01  0.16230068274E+02  0.84309452819E+01  0.18726889335E+02  0.00000000000E+00 0.  1.
         11    1    3    3    0    0 -0.11194099288E+02  0.11280051507E+02  0.20175329560E+00  0.15893021284E+02  0.51100000000E-03 0. -1.
        -11    1    3    3    0    0 -0.92447664331E+01 -0.28439558146E+02 -0.20531101135E+02  0.36273961571E+02  0.51100000000E-03 0.  1.
        -12    1    3    3    0    0  0.16413889986E+02  0.92943836540E+00  0.11898402557E+02  0.20294127810E+02  0.00000000000E+00 0.  1.
</event>
<event>
 7    1  0.1874105E-013  0.7246157E+02  0.7816164E-02  0.1226708E+00
        -11   -1    0    0    0    0  0.00000000000E+00  0.00000000000E+00  0.45593999997E+02  0.45594000000E+02  0.51100000000E-03 0.  1.
         11   -1    0    0    0    0 -0.00000000000E+00 -0.00000000000E+00 -0.45593999997E+02  0.45594000000E+02  0.51100000000E-03 0. -1.
    9900012    2    1    2    0    0 -0.13480020611E+02 -0.82662222525E+01  0.10031841150E+02  0.72461568870E+02  0.69999998145E+02 0.  0.
        -12    1    1    2    0    0  0.13480020611E+02  0.82662222525E+01 -0.10031841150E+02  0.18726431130E+02  0.00000000000E+00 0.  1.
         11    1    3    3    0    0 -0.95432786877E+00 -0.85160476121E+01  0.13615451680E+00  0.85704344654E+01  0.51100000000E-03 0. -1.
        -11    1    3    3    0    0 -0.27093127386E+02  0.20854779804E+02 -0.50528501332E+01  0.34561404586E+02  0.51100000000E-03 0.  1.
        -12    1    3    3    0    0  0.14567434644E+02 -0.20604954445E+02  0.14948536766E+02  0.29329729818E+02  0.00000000000E+00 0.  1.
</event>
<event>
 7    1  0.1874105E-013  0.7246157E+02  0.7816164E-02  0.1226708E+00
        -11   -1    0    0    0    0  0.00000000000E+00  0.00000000000E+00  0.45593999997E+02  0.45594000000E+02  0.51100000000E-03 0. -1.
         11   -1    0    0    0    0 -0.00000000000E+00 -0.00000000000E+00 -0.45593999997E+02  0.45594000000E+02  0.51100000000E-03 0.  1.
    9900012    2    1    2    0    0 -0.17141624324E+02  0.75315900698E+01 -0.34487088959E+00  0.72461572969E+02  0.70000003484E+02 0.  0.
        -12    1    1    2    0    0  0.17141624324E+02 -0.75315900698E+01  0.34487088959E+00  0.18726427031E+02  0.00000000000E+00 0.  1.
         11    1    3    3    0    0 -0.80011888337E+00  0.10087936835E+02  0.30165110096E+01  0.10559640086E+02  0.51100000000E-03 0. -1.
        -11    1    3    3    0    0 -0.93086793907E+01 -0.28268631594E+02 -0.14384763081E+02  0.33055838415E+02  0.51100000000E-03 0.  1.
        -12    1    3    3    0    0 -0.70328260496E+01  0.25712284829E+02  0.11023381181E+02  0.28846094468E+02  0.00000000000E+00 0.  1.
</event>
<event>
 7    1  0.1874105E-013  0.7246156E+02  0.7816164E-02  0.1226708E+00
        -11   -1    0    0    0    0  0.00000000000E+00  0.00000000000E+00  0.45593999997E+02  0.45594000000E+02  0.51100000000E-03 0.  1.
         11   -1    0    0    0    0 -0.00000000000E+00 -0.00000000000E+00 -0.45593999997E+02  0.45594000000E+02  0.51100000000E-03 0. -1.
    9900012    2    1    2    0    0 -0.17428471809E+02 -0.58500563918E+01  0.35643885669E+01  0.72461557326E+02  0.69999983106E+02 0.  0.
        -12    1    1    2    0    0  0.17428471809E+02  0.58500563918E+01 -0.35643885669E+01  0.18726442674E+02  0.00000000000E+00 0.  1.
         11    1    3    3    0    0  0.26309504288E+02  0.32920870155E+01  0.63707236625E+01  0.27269286259E+02  0.51100000000E-03 0.  1.
        -11    1    3    3    0    0 -0.26307138544E+02 -0.85469177110E+01 -0.19888030512E+01  0.27732123586E+02  0.51100000000E-03 0. -1.
         12    1    3    3    0    0 -0.17430837553E+02 -0.59522569630E+00 -0.81753204437E+00  0.17460147481E+02  0.00000000000E+00 0. -1.
</event>
<event>
 7    1  0.1874105E-013  0.7246157E+02  0.7816164E-02  0.1226708E+00
        -11   -1    0    0    0    0  0.00000000000E+00  0.00000000000E+00  0.45593999997E+02  0.45594000000E+02  0.51100000000E-03 0.  1.
         11   -1    0    0    0    0 -0.00000000000E+00 -0.00000000000E+00 -0.45593999997E+02  0.45594000000E+02  0.51100000000E-03 0. -1.
    9900012    2    1    2    0    0 -0.57920623776E+01  0.11888993560E+02 -0.13258312413E+02  0.72461574754E+02  0.70000005809E+02 0.  0.
        -12    1    1    2    0    0  0.57920623776E+01 -0.11888993560E+02  0.13258312413E+02  0.18726425246E+02  0.00000000000E+00 0.  1.
         11    1    3    3    0    0  0.29412660783E+02  0.10244475067E+02 -0.83873547501E+01  0.32255256993E+02  0.51100000000E-03 0. -1.
        -11    1    3    3    0    0 -0.70164154586E+01  0.16822516876E+01  0.65950631130E+01  0.97752194019E+01  0.51100000000E-03 0.  1.
         12    1    3    3    0    0 -0.28188307702E+02 -0.37733194249E-01 -0.11466020776E+02  0.30431098359E+02  0.00000000000E+00 0. -1.
</event>
<event>
 7    1  0.1874105E-013  0.7246152E+02  0.7816164E-02  0.1226708E+00
        -11   -1    0    0    0    0  0.00000000000E+00  0.00000000000E+00  0.45593999997E+02  0.45594000000E+02  0.51100000000E-03 0.  1.
         11   -1    0    0    0    0 -0.00000000000E+00 -0.00000000000E+00 -0.45593999997E+02  0.45594000000E+02  0.51100000000E-03 0. -1.
    9900012    2    1    2    0    0  0.18174301745E+02  0.36730889263E+01  0.26237726387E+01  0.72461521179E+02  0.69999936018E+02 0.  0.
        -12    1    1    2    0    0 -0.18174301745E+02 -0.36730889263E+01 -0.26237726387E+01  0.18726478821E+02  0.00000000000E+00 0.  1.
         11    1    3    3    0    0  0.82022524370E+01  0.86881972798E-01 -0.17462216285E+02  0.19292835234E+02  0.51100000000E-03 0. -1.
        -11    1    3    3    0    0 -0.16662931408E+02  0.12653284485E+01  0.20476492931E+02  0.26429928154E+02  0.51100000000E-03 0.  1.
         12    1    3    3    0    0  0.26634980717E+02  0.23208785050E+01 -0.39050400792E+00  0.26738757791E+02  0.00000000000E+00 0. -1.
</event>
<event>
 7    1  0.1874105E-013  0.7246152E+02  0.7816164E-02  0.1226708E+00
        -11   -1    0    0    0    0  0.00000000000E+00  0.00000000000E+00  0.45593999997E+02  0.45594000000E+02  0.51100000000E-03 0. -1.
         11   -1    0    0    0    0 -0.00000000000E+00 -0.00000000000E+00 -0.45593999997E+02  0.45594000000E+02  0.51100000000E-03 0.  1.
    9900012    2    1    2    0    0 -0.17910503625E+02 -0.27088708294E+01  0.47494111176E+01  0.72461520693E+02  0.69999935385E+02 0.  0.
        -12    1    1    2    0    0  0.17910503625E+02  0.27088708294E+01 -0.47494111176E+01  0.18726479307E+02  0.00000000000E+00 0.  1.
         11    1    3    3    0    0  0.89570056295E+01 -0.79928111620E+01  0.22151248297E+02  0.25195054703E+02  0.51100000000E-03 0. -1.
        -11    1    3    3    0    0  0.15553066323E+00  0.10297471254E+02 -0.16884432692E+02  0.19777415695E+02  0.51100000000E-03 0.  1.
         12    1    3    3    0    0 -0.27023039918E+02 -0.50135309214E+01 -0.51740448738E+00  0.27489050295E+02  0.00000000000E+00 0. -1.
</event>
<event>
 7    1  0.1874105E-013  0.7246158E+02  0.7816164E-02  0.1226708E+00
        -11   -1    0    0    0    0  0.00000000000E+00  0.00000000000E+00  0.45593999997E+02  0.45594000000E+02  0.51100000000E-03 0.  1.
         11   -1    0    0    0    0 -0.00000000000E+00 -0.00000000000E+00 -0.45593999997E+02  0.45594000000E+02  0.51100000000E-03 0. -1.
    9900012    2    1    2    0    0  0.78964729767E+01  0.93007612016E+00 -0.16954630297E+02  0.72461579745E+02  0.70000012311E+02 0.  0.
        -12    1    1    2    0    0 -0.78964729767E+01 -0.93007612016E+00  0.16954630297E+02  0.18726420255E+02  0.00000000000E+00 0.  1.
         11    1    3    3    0    0  0.13142956435E+02  0.86169198996E+01 -0.40363769001E+02  0.43315383648E+02  0.51100000000E-03 0. -1.
        -11    1    3    3    0    0  0.48448298494E+01 -0.48624841888E+01  0.99700067133E+01  0.12104427408E+02  0.51100000000E-03 0.  1.
         12    1    3    3    0    0 -0.10091313307E+02 -0.28243595907E+01  0.13439131990E+02  0.17041768688E+02  0.00000000000E+00 0. -1.
</event>
<event>
 7    1  0.1874105E-013  0.7246163E+02  0.7816164E-02  0.1226708E+00
        -11   -1    0    0    0    0  0.00000000000E+00  0.00000000000E+00  0.45593999997E+02  0.45594000000E+02  0.51100000000E-03 0.  1.
         11   -1    0    0    0    0 -0.00000000000E+00 -0.00000000000E+00 -0.45593999997E+02  0.45594000000E+02  0.51100000000E-03 0. -1.
    9900012    2    1    2    0    0 -0.64877904804E+01  0.13740073330E+02 -0.10945136064E+02  0.72461627049E+02  0.70000073934E+02 0.  0.
        -12    1    1    2    0    0  0.64877904804E+01 -0.13740073330E+02  0.10945136064E+02  0.18726372951E+02  0.00000000000E+00 0.  1.
         11    1    3    3    0    0  0.14589356061E+02  0.13375743593E+02 -0.34805158094E+02  0.40039466244E+02  0.51100000000E-03 0. -1.
        -11    1    3    3    0    0 -0.11938189094E+02  0.32404869527E+01  0.13284903465E+02  0.18152404107E+02  0.51100000000E-03 0.  1.
         12    1    3    3    0    0 -0.91389574477E+01 -0.28761572157E+01  0.10575118564E+02  0.14269756698E+02  0.00000000000E+00 0. -1.
</event>
<event>
 7    1  0.1874105E-013  0.7246156E+02  0.7816164E-02  0.1226708E+00
        -11   -1    0    0    0    0  0.00000000000E+00  0.00000000000E+00  0.45593999997E+02  0.45594000000E+02  0.51100000000E-03 0.  1.
         11   -1    0    0    0    0 -0.00000000000E+00 -0.00000000000E+00 -0.45593999997E+02  0.45594000000E+02  0.51100000000E-03 0. -1.
    9900012    2    1    2    0    0  0.84525115978E+01  0.40851909487E+01 -0.16203265105E+02  0.72461560470E+02  0.69999987202E+02 0.  0.
        -12    1    1    2    0    0 -0.84525115978E+01 -0.40851909487E+01  0.16203265105E+02  0.18726439530E+02  0.00000000000E+00 0.  1.
         11    1    3    3    0    0  0.39682324112E+01  0.25994634260E+02 -0.10836719368E+02  0.28441208935E+02  0.51100000000E-03 0. -1.
        -11    1    3    3    0    0  0.15036961088E+02 -0.23896171302E+02  0.54766793976E+01  0.28759889067E+02  0.51100000000E-03 0.  1.
         12    1    3    3    0    0 -0.10552681901E+02  0.19867279914E+01 -0.10843225135E+02  0.15260462468E+02  0.00000000000E+00 0. -1.
</event>
<event>
 7    1  0.1874105E-013  0.7246151E+02  0.7816164E-02  0.1226708E+00
        -11   -1    0    0    0    0  0.00000000000E+00  0.00000000000E+00  0.45593999997E+02  0.45594000000E+02  0.51100000000E-03 0.  1.
         11   -1    0    0    0    0 -0.00000000000E+00 -0.00000000000E+00 -0.45593999997E+02  0.45594000000E+02  0.51100000000E-03 0. -1.
    9900012    2    1    2    0    0 -0.12826220487E+02  0.13637772608E+02 -0.42490712329E+00  0.72461512883E+02  0.69999925211E+02 0.  0.
        -12    1    1    2    0    0  0.12826220487E+02 -0.13637772608E+02  0.42490712329E+00  0.18726487117E+02  0.00000000000E+00 0.  1.
         11    1    3    3    0    0  0.14481198078E+02  0.51830971096E+01 -0.70501997374E+01  0.16919660458E+02  0.51100000000E-03 0. -1.
        -11    1    3    3    0    0 -0.24324764281E+02  0.24481634889E+02  0.14504310037E+02  0.37435539452E+02  0.51100000000E-03 0.  1.
        -12    1    3    3    0    0 -0.29826542839E+01 -0.16026959391E+02 -0.78790174234E+01  0.18106312972E+02  0.00000000000E+00 0.  1.
</event>
<event>
 7    1  0.1874105E-013  0.7246158E+02  0.7816164E-02  0.1226708E+00
        -11   -1    0    0    0    0  0.00000000000E+00  0.00000000000E+00  0.45593999997E+02  0.45594000000E+02  0.51100000000E-03 0.  1.
         11   -1    0    0    0    0 -0.00000000000E+00 -0.00000000000E+00 -0.45593999997E+02  0.45594000000E+02  0.51100000000E-03 0. -1.
    9900012    2    1    2    0    0  0.39567463356E+01 -0.18300367467E+02  0.34556699488E+00  0.72461582630E+02  0.70000016069E+02 0.  0.
        -12    1    1    2    0    0 -0.39567463356E+01  0.18300367467E+02 -0.34556699488E+00  0.18726417370E+02  0.00000000000E+00 0.  1.
         11    1    3    3    0    0 -0.67595248565E+01 -0.27896424072E+02  0.94576671404E+01  0.30221666405E+02  0.51100000000E-03 0.  1.
        -11    1    3    3    0    0  0.20648788999E+02  0.16159752243E+02  0.15389027064E+01  0.26265534479E+02  0.51100000000E-03 0. -1.
        -12    1    3    3    0    0 -0.99325178071E+01 -0.65636956377E+01 -0.10651002852E+02  0.15974381746E+02  0.00000000000E+00 0.  1.
</event>
<event>
 7    1  0.1874105E-013  0.7246152E+02  0.7816164E-02  0.1226708E+00
        -11   -1    0    0    0    0  0.00000000000E+00  0.00000000000E+00  0.45593999997E+02  0.45594000000E+02  0.51100000000E-03 0. -1.
         11   -1    0    0    0    0 -0.00000000000E+00 -0.00000000000E+00 -0.45593999997E+02  0.45594000000E+02  0.51100000000E-03 0.  1.
    9900012    2    1    2    0    0  0.84791213916E+01 -0.10035179202E+02  0.13344686707E+02  0.72461521835E+02  0.69999936872E+02 0.  0.
        -12    1    1    2    0    0 -0.84791213916E+01  0.10035179202E+02 -0.13344686707E+02  0.18726478165E+02  0.00000000000E+00 0.  1.
         11    1    3    3    0    0  0.16284962221E+02  0.14358198088E+02  0.29557679951E+02  0.36674436482E+02  0.51100000000E-03 0. -1.
        -11    1    3    3    0    0  0.38784202499E+00 -0.15974611737E+02 -0.26788094169E+00  0.15981564443E+02  0.51100000000E-03 0.  1.
         12    1    3    3    0    0 -0.81936828549E+01 -0.84187655523E+01 -0.15945112303E+02  0.19805520910E+02  0.00000000000E+00 0. -1.
</event>
<event>
 7    1  0.1874105E-013  0.7246156E+02  0.7816164E-02  0.1226708E+00
        -11   -1    0    0    0    0  0.00000000000E+00  0.00000000000E+00  0.45593999997E+02  0.45594000000E+02  0.51100000000E-03 0.  1.
         11   -1    0    0    0    0 -0.00000000000E+00 -0.00000000000E+00 -0.45593999997E+02  0.45594000000E+02  0.51100000000E-03 0. -1.
    9900012    2    1    2    0    0 -0.12590204647E+02  0.13849356680E+02 -0.60120604949E+00  0.72461564615E+02  0.69999992602E+02 0.  0.
        -12    1    1    2    0    0  0.12590204647E+02 -0.13849356680E+02  0.60120604949E+00  0.18726435385E+02  0.00000000000E+00 0.  1.
         11    1    3    3    0    0 -0.17596976710E+02  0.39581638859E+02  0.46778914570E+01  0.43568823634E+02  0.51100000000E-03 0. -1.
        -11    1    3    3    0    0  0.10319799439E+01 -0.37378685067E+01  0.31596862605E+01  0.50020257001E+01  0.51100000000E-03 0.  1.
         12    1    3    3    0    0  0.39747921196E+01 -0.21994413672E+02 -0.84387837669E+01  0.23890715281E+02  0.00000000000E+00 0. -1.
</event>
<event>
 7    1  0.1874105E-013  0.7246134E+02  0.7816164E-02  0.1226709E+00
        -11   -1    0    0    0    0  0.00000000000E+00  0.00000000000E+00  0.45593999997E+02  0.45594000000E+02  0.51100000000E-03 0. -1.
         11   -1    0    0    0    0 -0.00000000000E+00 -0.00000000000E+00 -0.45593999997E+02  0.45594000000E+02  0.51100000000E-03 0.  1.
    9900012    2    1    2    0    0 -0.10122279888E+02 -0.34006569206E+01  0.15383848182E+02  0.72461339793E+02  0.69999699729E+02 0.  0.
        -12    1    1    2    0    0  0.10122279888E+02  0.34006569206E+01 -0.15383848182E+02  0.18726660207E+02  0.00000000000E+00 0.  1.
         11    1    3    3    0    0 -0.74173498380E+01 -0.29645473051E+02  0.18480187840E+02  0.35712581731E+02  0.51100000000E-03 0. -1.
        -11    1    3    3    0    0 -0.41759930593E+01  0.50051679904E+01 -0.12012095717E+02  0.13666787055E+02  0.51100000000E-03 0.  1.
         12    1    3    3    0    0  0.14710630093E+01  0.21239648140E+02  0.89157560586E+01  0.23081971007E+02  0.00000000000E+00 0. -1.
</event>
<event>
 7    1  0.1874105E-013  0.7246148E+02  0.7816164E-02  0.1226708E+00
        -11   -1    0    0    0    0  0.00000000000E+00  0.00000000000E+00  0.45593999997E+02  0.45594000000E+02  0.51100000000E-03 0.  1.
         11   -1    0    0    0    0 -0.00000000000E+00 -0.00000000000E+00 -0.45593999997E+02  0.45594000000E+02  0.51100000000E-03 0. -1.
    9900012    2    1    2    0    0  0.66326078670E+01 -0.15320785804E+02 -0.84831856071E+01  0.72461483964E+02  0.69999887539E+02 0.  0.
        -12    1    1    2    0    0 -0.66326078670E+01  0.15320785804E+02  0.84831856071E+01  0.18726516036E+02  0.00000000000E+00 0.  1.
         11    1    3    3    0    0  0.22526848329E+01  0.63771041108E+00 -0.36776217642E+02  0.36850664144E+02  0.51100000000E-03 0. -1.
        -11    1    3    3    0    0  0.76152977697E+01 -0.29020499856E+01  0.11495269882E+02  0.14090985919E+02  0.51100000000E-03 0.  1.
         12    1    3    3    0    0 -0.32353747356E+01 -0.13056446230E+02  0.16797762152E+02  0.21519833902E+02  0.00000000000E+00 0. -1.
</event>
<event>
 7    1  0.1874105E-013  0.7246157E+02  0.7816164E-02  0.1226708E+00
        -11   -1    0    0    0    0  0.00000000000E+00  0.00000000000E+00  0.45593999997E+02  0.45594000000E+02  0.51100000000E-03 0.  1.
         11   -1    0    0    0    0 -0.00000000000E+00 -0.00000000000E+00 -0.45593999997E+02  0.45594000000E+02  0.51100000000E-03 0. -1.
    9900012    2    1    2    0    0 -0.16002351755E+02 -0.61369114509E+01 -0.75460175069E+01  0.72461566168E+02  0.69999994624E+02 0.  0.
        -12    1    1    2    0    0  0.16002351755E+02  0.61369114509E+01  0.75460175069E+01  0.18726433832E+02  0.00000000000E+00 0.  1.
         11    1    3    3    0    0  0.18063328283E+02 -0.57424677458E+01  0.13153034587E+02  0.23070805872E+02  0.51100000000E-03 0. -1.
        -11    1    3    3    0    0 -0.30196701952E+02 -0.67091907663E+01 -0.40859496776E+01  0.31201747300E+02  0.51100000000E-03 0.  1.
        -12    1    3    3    0    0 -0.38689780859E+01  0.63147470613E+01 -0.16613102416E+02  0.18189012996E+02  0.00000000000E+00 0.  1.
</event>
<event>
 7    1  0.1874105E-013  0.7246154E+02  0.7816164E-02  0.1226708E+00
        -11   -1    0    0    0    0  0.00000000000E+00  0.00000000000E+00  0.45593999997E+02  0.45594000000E+02  0.51100000000E-03 0.  1.
         11   -1    0    0    0    0 -0.00000000000E+00 -0.00000000000E+00 -0.45593999997E+02  0.45594000000E+02  0.51100000000E-03 0. -1.
    9900012    2    1    2    0    0  0.69150833738E+01  0.16059745940E+02 -0.67042250169E+01  0.72461536084E+02  0.69999955435E+02 0.  0.
        -12    1    1    2    0    0 -0.69150833738E+01 -0.16059745940E+02  0.67042250169E+01  0.18726463916E+02  0.00000000000E+00 0.  1.
         11    1    3    3    0    0 -0.14733477679E+01  0.28186848296E+02 -0.27683689338E+02  0.39535500833E+02  0.51100000000E-03 0. -1.
        -11    1    3    3    0    0  0.13576393430E+01 -0.13873612316E+02  0.40572348597E+01  0.14518314580E+02  0.51100000000E-03 0.  1.
         12    1    3    3    0    0  0.70307917988E+01  0.17465099597E+01  0.16922229461E+02  0.18407720671E+02  0.00000000000E+00 0. -1.
</event>
<event>
 7    1  0.1874105E-013  0.7246152E+02  0.7816164E-02  0.1226708E+00
        -11   -1    0    0    0    0  0.00000000000E+00  0.00000000000E+00  0.45593999997E+02  0.45594000000E+02  0.51100000000E-03 0.  1.
         11   -1    0    0    0    0 -0.00000000000E+00 -0.00000000000E+00 -0.45593999997E+02  0.45594000000E+02  0.51100000000E-03 0. -1.
    9900012    2    1    2    0    0  0.26146228337E+01 -0.14901005901E+02 -0.11036528985E+02  0.72461516041E+02  0.69999929325E+02 0.  0.
        -12    1    1    2    0    0 -0.26146228337E+01  0.14901005901E+02  0.11036528985E+02  0.18726483959E+02  0.00000000000E+00 0.  1.
         11    1    3    3    0    0 -0.20059040674E+01 -0.75401223955E+01 -0.24576548430E+02  0.25785341376E+02  0.51100000000E-03 0. -1.
        -11    1    3    3    0    0  0.22436933755E+02 -0.12533676582E+02  0.47041756388E+01  0.26127348004E+02  0.51100000000E-03 0.  1.
        -12    1    3    3    0    0 -0.17816406854E+02  0.51727930762E+01  0.88358438063E+01  0.20548826662E+02  0.00000000000E+00 0.  1.
</event>
<event>
 7    1  0.1874105E-013  0.7246156E+02  0.7816164E-02  0.1226708E+00
        -11   -1    0    0    0    0  0.00000000000E+00  0.00000000000E+00  0.45593999997E+02  0.45594000000E+02  0.51100000000E-03 0.  1.
         11   -1    0    0    0    0 -0.00000000000E+00 -0.00000000000E+00 -0.45593999997E+02  0.45594000000E+02  0.51100000000E-03 0. -1.
    9900012    2    1    2    0    0 -0.77282240655E+01 -0.14798390640E+02 -0.84830276996E+01  0.72461559556E+02  0.69999986012E+02 0.  0.
        -12    1    1    2    0    0  0.77282240655E+01  0.14798390640E+02  0.84830276996E+01  0.18726440444E+02  0.00000000000E+00 0.  1.
         11    1    3    3    0    0  0.17437411559E+02 -0.57701731283E-01 -0.11349444407E+02  0.20805685280E+02  0.51100000000E-03 0. -1.
        -11    1    3    3    0    0 -0.28571145946E+02  0.70065946003E+01 -0.28506868657E+00  0.29419109656E+02  0.51100000000E-03 0.  1.
         12    1    3    3    0    0  0.34055103207E+01 -0.21747283509E+02  0.31514853937E+01  0.22236764620E+02  0.00000000000E+00 0. -1.
</event>
<event>
 7    1  0.1874105E-013  0.7246158E+02  0.7816164E-02  0.1226708E+00
        -11   -1    0    0    0    0  0.00000000000E+00  0.00000000000E+00  0.45593999997E+02  0.45594000000E+02  0.51100000000E-03 0.  1.
         11   -1    0    0    0    0 -0.00000000000E+00 -0.00000000000E+00 -0.45593999997E+02  0.45594000000E+02  0.51100000000E-03 0. -1.
    9900012    2    1    2    0    0  0.36476161580E+01  0.11971419723E+02 -0.13930504035E+02  0.72461576517E+02  0.70000008106E+02 0.  0.
        -12    1    1    2    0    0 -0.36476161580E+01 -0.11971419723E+02  0.13930504035E+02  0.18726423483E+02  0.00000000000E+00 0.  1.
         11    1    3    3    0    0  0.24220189728E+02  0.13929936288E+02 -0.17376252111E+02  0.32902809198E+02  0.51100000000E-03 0. -1.
        -11    1    3    3    0    0 -0.26512034083E+02 -0.10773558085E+02  0.91359149360E+00  0.28632012761E+02  0.51100000000E-03 0.  1.
         12    1    3    3    0    0  0.59394605132E+01  0.88150415205E+01  0.25321565831E+01  0.10926754557E+02  0.00000000000E+00 0. -1.
</event>
<event>
 7    1  0.1874105E-013  0.7246153E+02  0.7816164E-02  0.1226708E+00
        -11   -1    0    0    0    0  0.00000000000E+00  0.00000000000E+00  0.45593999997E+02  0.45594000000E+02  0.51100000000E-03 0.  1.
         11   -1    0    0    0    0 -0.00000000000E+00 -0.00000000000E+00 -0.45593999997E+02  0.45594000000E+02  0.51100000000E-03 0. -1.
    9900012    2    1    2    0    0  0.97961347571E+01 -0.15129231817E+02 -0.50816236788E+01  0.72461526473E+02  0.69999942915E+02 0.  0.
        -12    1    1    2    0    0 -0.97961347571E+01  0.15129231817E+02  0.50816236788E+01  0.18726473527E+02  0.00000000000E+00 0.  1.
         11    1    3    3    0    0 -0.72222613687E+01 -0.96768829169E+01  0.26115782957E+02  0.28772160885E+02  0.51100000000E-03 0. -1.
        -11    1    3    3    0    0  0.15372525889E+02  0.75510950700E+01 -0.20898793772E+02  0.27020236312E+02  0.51100000000E-03 0.  1.
         12    1    3    3    0    0  0.16458702366E+01 -0.13003443970E+02 -0.10298612863E+02  0.16669129276E+02  0.00000000000E+00 0. -1.
</event>
<event>
 7    1  0.1874105E-013  0.7246156E+02  0.7816164E-02  0.1226708E+00
        -11   -1    0    0    0    0  0.00000000000E+00  0.00000000000E+00  0.45593999997E+02  0.45594000000E+02  0.51100000000E-03 0. -1.
         11   -1    0    0    0    0 -0.00000000000E+00 -0.00000000000E+00 -0.45593999997E+02  0.45594000000E+02  0.51100000000E-03 0.  1.
    9900012    2    1    2    0    0 -0.15986631425E+02  0.97486367236E+01  0.26726334488E+00  0.72461555276E+02  0.69999980436E+02 0.  0.
        -12    1    1    2    0    0  0.15986631425E+02 -0.97486367236E+01 -0.26726334488E+00  0.18726444724E+02  0.00000000000E+00 0.  1.
         11    1    3    3    0    0 -0.32920503204E+02  0.73921933999E+01 -0.18126394261E+02  0.38301047292E+02  0.51100000000E-03 0.  1.
        -11    1    3    3    0    0  0.16425724200E+02  0.10949549313E+02  0.99661438208E+01  0.22113820759E+02  0.51100000000E-03 0. -1.
        -12    1    3    3    0    0  0.50814757871E+00 -0.85931059890E+01  0.84275137852E+01  0.12046687225E+02  0.00000000000E+00 0.  1.
</event>
<event>
 7    1  0.1874105E-013  0.7246154E+02  0.7816164E-02  0.1226708E+00
        -11   -1    0    0    0    0  0.00000000000E+00  0.00000000000E+00  0.45593999997E+02  0.45594000000E+02  0.51100000000E-03 0.  1.
         11   -1    0    0    0    0 -0.00000000000E+00 -0.00000000000E+00 -0.45593999997E+02  0.45594000000E+02  0.51100000000E-03 0. -1.
    9900012    2    1    2    0    0 -0.12805890285E+02  0.12534993132E+02 -0.54372344231E+01  0.72461537521E+02  0.69999957306E+02 0.  0.
        -12    1    1    2    0    0  0.12805890285E+02 -0.12534993132E+02  0.54372344231E+01  0.18726462479E+02  0.00000000000E+00 0.  1.
         11    1    3    3    0    0 -0.26424822758E+01 -0.14204350195E+02 -0.19457761889E+02  0.24235320816E+02  0.51100000000E-03 0. -1.
        -11    1    3    3    0    0 -0.18016454439E+01  0.26235165882E+02 -0.56049939209E+01  0.26887651669E+02  0.51100000000E-03 0.  1.
         12    1    3    3    0    0 -0.83617625656E+01  0.50417744547E+00  0.19625521387E+02  0.21338565036E+02  0.00000000000E+00 0. -1.
</event>
<event>
 7    1  0.1874105E-013  0.7246158E+02  0.7816164E-02  0.1226708E+00
        -11   -1    0    0    0    0  0.00000000000E+00  0.00000000000E+00  0.45593999997E+02  0.45594000000E+02  0.51100000000E-03 0.  1.
         11   -1    0    0    0    0 -0.00000000000E+00 -0.00000000000E+00 -0.45593999997E+02  0.45594000000E+02  0.51100000000E-03 0. -1.
    9900012    2    1    2    0    0 -0.10571649298E+02  0.15396132388E+01 -0.15380139015E+02  0.72461578721E+02  0.70000010977E+02 0.  0.
        -12    1    1    2    0    0  0.10571649298E+02 -0.15396132388E+01  0.15380139015E+02  0.18726421279E+02  0.00000000000E+00 0.  1.
         11    1    3    3    0    0  0.66410203775E+01 -0.13643662198E+01  0.15741716187E+02  0.17139611303E+02  0.51100000000E-03 0. -1.
        -11    1    3    3    0    0 -0.85784111672E+01  0.22625121410E+02 -0.17116543806E+02  0.29638848309E+02  0.51100000000E-03 0.  1.
         12    1    3    3    0    0 -0.86342585081E+01 -0.19721141952E+02 -0.14005311396E+02  0.25683119109E+02  0.00000000000E+00 0. -1.
</event>
<event>
 7    1  0.1874105E-013  0.7246163E+02  0.7816164E-02  0.1226708E+00
        -11   -1    0    0    0    0  0.00000000000E+00  0.00000000000E+00  0.45593999997E+02  0.45594000000E+02  0.51100000000E-03 0.  1.
         11   -1    0    0    0    0 -0.00000000000E+00 -0.00000000000E+00 -0.45593999997E+02  0.45594000000E+02  0.51100000000E-03 0. -1.
    9900012    2    1    2    0    0  0.13968434236E+02  0.98693757759E+01  0.76259584944E+01  0.72461628857E+02  0.70000076289E+02 0.  0.
        -12    1    1    2    0    0 -0.13968434236E+02 -0.98693757759E+01 -0.76259584944E+01  0.18726371143E+02  0.00000000000E+00 0.  1.
         11    1    3    3    0    0 -0.14092051504E+02  0.16550198469E+02 -0.51581009261E+01  0.22340568265E+02  0.51100000000E-03 0. -1.
        -11    1    3    3    0    0 -0.48387856646E+00 -0.11402801946E+01  0.20099659658E+02  0.20137792730E+02  0.51100000000E-03 0.  1.
         12    1    3    3    0    0  0.28544364307E+02 -0.55405424989E+01 -0.73156002377E+01  0.29983267862E+02  0.00000000000E+00 0. -1.
</event>
<event>
 7    1  0.1874105E-013  0.7246158E+02  0.7816164E-02  0.1226708E+00
        -11   -1    0    0    0    0  0.00000000000E+00  0.00000000000E+00  0.45593999997E+02  0.45594000000E+02  0.51100000000E-03 0.  1.
         11   -1    0    0    0    0 -0.00000000000E+00 -0.00000000000E+00 -0.45593999997E+02  0.45594000000E+02  0.51100000000E-03 0. -1.
    9900012    2    1    2    0    0 -0.11884739399E+02 -0.15454616242E+01 -0.14389003511E+02  0.72461577377E+02  0.70000009227E+02 0.  0.
        -12    1    1    2    0    0  0.11884739399E+02  0.15454616242E+01  0.14389003511E+02  0.18726422623E+02  0.00000000000E+00 0.  1.
         11    1    3    3    0    0  0.58762161723E+01 -0.79559199295E+01 -0.72585266067E+01  0.12268365302E+02  0.51100000000E-03 0. -1.
        -11    1    3    3    0    0 -0.17051995768E+02  0.25130320329E+02  0.12695955329E+02  0.32916422064E+02  0.51100000000E-03 0.  1.
        -12    1    3    3    0    0 -0.70895980317E+00 -0.18719862024E+02 -0.19826432234E+02  0.27276790011E+02  0.00000000000E+00 0.  1.
</event>
<event>
 7    1  0.1874105E-013  0.7246158E+02  0.7816164E-02  0.1226708E+00
        -11   -1    0    0    0    0  0.00000000000E+00  0.00000000000E+00  0.45593999997E+02  0.45594000000E+02  0.51100000000E-03 0. -1.
         11   -1    0    0    0    0 -0.00000000000E+00 -0.00000000000E+00 -0.45593999997E+02  0.45594000000E+02  0.51100000000E-03 0.  1.
    9900012    2    1    2    0    0  0.32594911248E+01 -0.37033114644E+00  0.18436853348E+02  0.72461575116E+02  0.70000006281E+02 0.  0.
        -12    1    1    2    0    0 -0.32594911248E+01  0.37033114644E+00 -0.18436853348E+02  0.18726424884E+02  0.00000000000E+00 0.  1.
         11    1    3    3    0    0 -0.97503191546E+01  0.12145210653E+02 -0.57442201120E+01  0.16600329225E+02  0.51100000000E-03 0.  1.
        -11    1    3    3    0    0  0.45701707117E+01 -0.18546667896E+00  0.36321904666E+02  0.36608764211E+02  0.51100000000E-03 0. -1.
        -12    1    3    3    0    0  0.84396395677E+01 -0.12330075120E+02 -0.12140831206E+02  0.19252481681E+02  0.00000000000E+00 0.  1.
</event>
<event>
 7    1  0.1874105E-013  0.7246152E+02  0.7816164E-02  0.1226708E+00
        -11   -1    0    0    0    0  0.00000000000E+00  0.00000000000E+00  0.45593999997E+02  0.45594000000E+02  0.51100000000E-03 0.  1.
         11   -1    0    0    0    0 -0.00000000000E+00 -0.00000000000E+00 -0.45593999997E+02  0.45594000000E+02  0.51100000000E-03 0. -1.
    9900012    2    1    2    0    0  0.78110190287E+01 -0.16381857957E+02  0.46156181392E+01  0.72461515568E+02  0.69999928708E+02 0.  0.
        -12    1    1    2    0    0 -0.78110190287E+01  0.16381857957E+02 -0.46156181392E+01  0.18726484432E+02  0.00000000000E+00 0.  1.
         11    1    3    3    0    0  0.27172614284E+02 -0.32117047891E+02 -0.78767759809E+01  0.42800693130E+02  0.51100000000E-03 0. -1.
        -11    1    3    3    0    0 -0.27506145018E+01  0.37818448017E+00 -0.14041092163E+01  0.31113383922E+01  0.51100000000E-03 0.  1.
         12    1    3    3    0    0 -0.16610980754E+02  0.15357005454E+02  0.13896503336E+02  0.26549484046E+02  0.00000000000E+00 0. -1.
</event>
<event>
 7    1  0.1874105E-013  0.7246156E+02  0.7816164E-02  0.1226708E+00
        -11   -1    0    0    0    0  0.00000000000E+00  0.00000000000E+00  0.45593999997E+02  0.45594000000E+02  0.51100000000E-03 0.  1.
         11   -1    0    0    0    0 -0.00000000000E+00 -0.00000000000E+00 -0.45593999997E+02  0.45594000000E+02  0.51100000000E-03 0. -1.
    9900012    2    1    2    0    0  0.12098169533E+02  0.17060315785E+01 -0.14191657779E+02  0.72461564132E+02  0.69999991972E+02 0.  0.
        -12    1    1    2    0    0 -0.12098169533E+02 -0.17060315785E+01  0.14191657779E+02  0.18726435868E+02  0.00000000000E+00 0.  1.
         11    1    3    3    0    0  0.13598612124E+02  0.12055817637E+02 -0.13751225312E+02  0.22789497327E+02  0.51100000000E-03 0. -1.
        -11    1    3    3    0    0  0.10950869240E+02 -0.10311611673E+02  0.20429752177E+02  0.25369778215E+02  0.51100000000E-03 0.  1.
        -12    1    3    3    0    0 -0.12451311831E+02 -0.38174384932E-01 -0.20870184644E+02  0.24302288590E+02  0.00000000000E+00 0.  1.
</event>
<event>
 7    1  0.1874105E-013  0.7246157E+02  0.7816164E-02  0.1226708E+00
        -11   -1    0    0    0    0  0.00000000000E+00  0.00000000000E+00  0.45593999997E+02  0.45594000000E+02  0.51100000000E-03 0.  1.
         11   -1    0    0    0    0 -0.00000000000E+00 -0.00000000000E+00 -0.45593999997E+02  0.45594000000E+02  0.51100000000E-03 0. -1.
    9900012    2    1    2    0    0  0.18346166160E+02 -0.35978795619E+01  0.10735671611E+01  0.72461572242E+02  0.70000002537E+02 0.  0.
        -12    1    1    2    0    0 -0.18346166160E+02  0.35978795619E+01 -0.10735671611E+01  0.18726427758E+02  0.00000000000E+00 0.  1.
         11    1    3    3    0    0  0.23021216920E+02 -0.23557227279E+02 -0.21733675744E+02  0.39462286391E+02  0.51100000000E-03 0. -1.
        -11    1    3    3    0    0 -0.52630672808E+00  0.12418401723E+02  0.20688961417E+02  0.24135592491E+02  0.51100000000E-03 0.  1.
         12    1    3    3    0    0 -0.41487440314E+01  0.75409459942E+01  0.21182814887E+01  0.88636933606E+01  0.00000000000E+00 0. -1.
</event>
<event>
 7    1  0.1874105E-013  0.7246162E+02  0.7816164E-02  0.1226708E+00
        -11   -1    0    0    0    0  0.00000000000E+00  0.00000000000E+00  0.45593999997E+02  0.45594000000E+02  0.51100000000E-03 0.  1.
         11   -1    0    0    0    0 -0.00000000000E+00 -0.00000000000E+00 -0.45593999997E+02  0.45594000000E+02  0.51100000000E-03 0. -1.
    9900012    2    1    2    0    0 -0.36716350818E+01 -0.18362669470E+02 -0.94113454124E-01  0.72461617766E+02  0.70000061840E+02 0.  0.
        -12    1    1    2    0    0  0.36716350818E+01  0.18362669470E+02  0.94113454124E-01  0.18726382234E+02  0.00000000000E+00 0.  1.
         11    1    3    3    0    0  0.87610022243E+01  0.72816129478E+01 -0.47764266783E+01  0.12352785077E+02  0.51100000000E-03 0. -1.
        -11    1    3    3    0    0 -0.58816820476E+01 -0.25937748500E+02 -0.20820444552E+02  0.33776499117E+02  0.51100000000E-03 0.  1.
        -12    1    3    3    0    0 -0.65509552584E+01  0.29346608216E+00  0.25502757776E+02  0.26332333571E+02  0.00000000000E+00 0.  1.
</event>
<event>
 7    1  0.1874105E-013  0.7246156E+02  0.7816164E-02  0.1226708E+00
        -11   -1    0    0    0    0  0.00000000000E+00  0.00000000000E+00  0.45593999997E+02  0.45594000000E+02  0.51100000000E-03 0.  1.
         11   -1    0    0    0    0 -0.00000000000E+00 -0.00000000000E+00 -0.45593999997E+02  0.45594000000E+02  0.51100000000E-03 0. -1.
    9900012    2    1    2    0    0 -0.85054717782E+01 -0.16608624025E+02  0.15779821068E+01  0.72461562280E+02  0.69999989559E+02 0.  0.
        -12    1    1    2    0    0  0.85054717782E+01  0.16608624025E+02 -0.15779821068E+01  0.18726437720E+02  0.00000000000E+00 0.  1.
         11    1    3    3    0    0 -0.21969620543E+02  0.97120133787E+01 -0.74652868476E+01  0.25153885160E+02  0.51100000000E-03 0. -1.
        -11    1    3    3    0    0  0.24399144228E+02 -0.10223607580E+02  0.17024737636E+01  0.26509221192E+02  0.51100000000E-03 0.  1.
        -12    1    3    3    0    0 -0.10934995463E+02 -0.16097029824E+02  0.73407951908E+01  0.20798455927E+02  0.00000000000E+00 0.  1.
</event>
<event>
 7    1  0.1874105E-013  0.7246157E+02  0.7816164E-02  0.1226708E+00
        -11   -1    0    0    0    0  0.00000000000E+00  0.00000000000E+00  0.45593999997E+02  0.45594000000E+02  0.51100000000E-03 0.  1.
         11   -1    0    0    0    0 -0.00000000000E+00 -0.00000000000E+00 -0.45593999997E+02  0.45594000000E+02  0.51100000000E-03 0. -1.
    9900012    2    1    2    0    0 -0.15487233342E+02  0.98216309039E+01  0.37895123226E+01  0.72461568577E+02  0.69999997762E+02 0.  0.
        -12    1    1    2    0    0  0.15487233342E+02 -0.98216309039E+01 -0.37895123226E+01  0.18726431423E+02  0.00000000000E+00 0.  1.
         11    1    3    3    0    0 -0.69558623605E+01  0.20135837095E+02  0.54439223571E+00  0.21310380566E+02  0.51100000000E-03 0. -1.
        -11    1    3    3    0    0 -0.12929007569E+02 -0.26590933995E+02  0.12287589548E+02  0.32019085943E+02  0.51100000000E-03 0.  1.
        -12    1    3    3    0    0  0.43976365871E+01  0.16276727804E+02 -0.90424694613E+01  0.19132102068E+02  0.00000000000E+00 0.  1.
</event>
<event>
 7    1  0.1874105E-013  0.7246158E+02  0.7816164E-02  0.1226708E+00
        -11   -1    0    0    0    0  0.00000000000E+00  0.00000000000E+00  0.45593999997E+02  0.45594000000E+02  0.51100000000E-03 0. -1.
         11   -1    0    0    0    0 -0.00000000000E+00 -0.00000000000E+00 -0.45593999997E+02  0.45594000000E+02  0.51100000000E-03 0.  1.
    9900012    2    1    2    0    0 -0.81428978382E+01 -0.83502035708E+01  0.14650806307E+02  0.72461579885E+02  0.70000012494E+02 0.  0.
        -12    1    1    2    0    0  0.81428978382E+01  0.83502035708E+01 -0.14650806307E+02  0.18726420115E+02  0.00000000000E+00 0.  1.
         11    1    3    3    0    0  0.95299497408E+01 -0.31028945220E+01  0.15985976044E+02  0.18867944425E+02  0.51100000000E-03 0. -1.
        -11    1    3    3    0    0 -0.25143012919E+02  0.14617052587E+02 -0.98799180997E+01  0.30715502713E+02  0.51100000000E-03 0.  1.
        -12    1    3    3    0    0  0.74701653403E+01 -0.19864361636E+02  0.85447483627E+01  0.22878132747E+02  0.00000000000E+00 0.  1.
</event>
<event>
 7    1  0.1874105E-013  0.7246160E+02  0.7816164E-02  0.1226708E+00
        -11   -1    0    0    0    0  0.00000000000E+00  0.00000000000E+00  0.45593999997E+02  0.45594000000E+02  0.51100000000E-03 0. -1.
         11   -1    0    0    0    0 -0.00000000000E+00 -0.00000000000E+00 -0.45593999997E+02  0.45594000000E+02  0.51100000000E-03 0.  1.
    9900012    2    1    2    0    0 -0.12565722792E+02 -0.13710555266E+02  0.21911662388E+01  0.72461603538E+02  0.70000043306E+02 0.  0.
        -12    1    1    2    0    0  0.12565722792E+02  0.13710555266E+02 -0.21911662388E+01  0.18726396462E+02  0.00000000000E+00 0.  1.
         11    1    3    3    0    0 -0.19102042584E+02 -0.82628319658E+01  0.16446947647E+02  0.26526675444E+02  0.51100000000E-03 0. -1.
        -11    1    3    3    0    0  0.10993651456E+02 -0.24337602924E+01 -0.28534660239E+02  0.30675892762E+02  0.51100000000E-03 0.  1.
        -12    1    3    3    0    0 -0.44573316639E+01 -0.30139630077E+01  0.14278878831E+02  0.15259035332E+02  0.00000000000E+00 0.  1.
</event>
<event>
 7    1  0.1874105E-013  0.7246157E+02  0.7816164E-02  0.1226708E+00
        -11   -1    0    0    0    0  0.00000000000E+00  0.00000000000E+00  0.45593999997E+02  0.45594000000E+02  0.51100000000E-03 0.  1.
         11   -1    0    0    0    0 -0.00000000000E+00 -0.00000000000E+00 -0.45593999997E+02  0.45594000000E+02  0.51100000000E-03 0. -1.
    9900012    2    1    2    0    0  0.33393577502E+01  0.95291500726E+00 -0.18401622334E+02  0.72461573172E+02  0.70000003749E+02 0.  0.
        -12    1    1    2    0    0 -0.33393577502E+01 -0.95291500726E+00  0.18401622334E+02  0.18726426828E+02  0.00000000000E+00 0.  1.
         11    1    3    3    0    0 -0.14518925657E+02 -0.59047303655E+01 -0.40196870191E+02  0.43144564157E+02  0.51100000000E-03 0. -1.
        -11    1    3    3    0    0  0.70847710115E+01  0.71757987368E+00  0.92980176408E+01  0.11711619592E+02  0.51100000000E-03 0.  1.
         12    1    3    3    0    0  0.10773512396E+02  0.61400654991E+01  0.12497230216E+02  0.17605389423E+02  0.00000000000E+00 0. -1.
</event>
<event>
 7    1  0.1874105E-013  0.7246154E+02  0.7816164E-02  0.1226708E+00
        -11   -1    0    0    0    0  0.00000000000E+00  0.00000000000E+00  0.45593999997E+02  0.45594000000E+02  0.51100000000E-03 0.  1.
         11   -1    0    0    0    0 -0.00000000000E+00 -0.00000000000E+00 -0.45593999997E+02  0.45594000000E+02  0.51100000000E-03 0. -1.
    9900012    2    1    2    0    0  0.11203363678E+02  0.46922704503E+01 -0.14252977905E+02  0.72461544413E+02  0.69999966285E+02 0.  0.
        -12    1    1    2    0    0 -0.11203363678E+02 -0.46922704503E+01  0.14252977905E+02  0.18726455587E+02  0.00000000000E+00 0.  1.
         11    1    3    3    0    0  0.30258300932E+02  0.22197668045E+02 -0.19609227014E+02  0.42341740945E+02  0.51100000000E-03 0. -1.
        -11    1    3    3    0    0 -0.19488820110E+02 -0.18210453903E+02  0.20947356349E+01  0.26754862329E+02  0.51100000000E-03 0.  1.
        -12    1    3    3    0    0  0.43388285523E+00  0.70505630824E+00  0.32615134734E+01  0.33649411387E+01  0.00000000000E+00 0.  1.
</event>
<event>
 7    1  0.1874105E-013  0.7246136E+02  0.7816164E-02  0.1226709E+00
        -11   -1    0    0    0    0  0.00000000000E+00  0.00000000000E+00  0.45593999997E+02  0.45594000000E+02  0.51100000000E-03 0.  1.
         11   -1    0    0    0    0 -0.00000000000E+00 -0.00000000000E+00 -0.45593999997E+02  0.45594000000E+02  0.51100000000E-03 0. -1.
    9900012    2    1    2    0    0  0.48951036253E+00  0.33807968508E+01 -0.18412429918E+02  0.72461361667E+02  0.69999728224E+02 0.  0.
        -12    1    1    2    0    0 -0.48951036253E+00 -0.33807968508E+01  0.18412429918E+02  0.18726638333E+02  0.00000000000E+00 0.  1.
         11    1    3    3    0    0  0.24626516419E+02  0.16466329902E+01 -0.32521919035E+02  0.40827097976E+02  0.51100000000E-03 0. -1.
        -11    1    3    3    0    0 -0.16464302389E+02  0.58182387596E+01  0.14833841636E+02  0.22912180459E+02  0.51100000000E-03 0.  1.
         12    1    3    3    0    0 -0.76727036673E+01 -0.40840748990E+01 -0.72435251928E+00  0.87220832327E+01  0.00000000000E+00 0. -1.
</event>
<event>
 7    1  0.1874105E-013  0.7246155E+02  0.7816164E-02  0.1226708E+00
        -11   -1    0    0    0    0  0.00000000000E+00  0.00000000000E+00  0.45593999997E+02  0.45594000000E+02  0.51100000000E-03 0.  1.
         11   -1    0    0    0    0 -0.00000000000E+00 -0.00000000000E+00 -0.45593999997E+02  0.45594000000E+02  0.51100000000E-03 0. -1.
    9900012    2    1    2    0    0  0.17148834103E+02 -0.44679631372E+01 -0.60526534689E+01  0.72461552934E+02  0.69999977385E+02 0.  0.
        -12    1    1    2    0    0 -0.17148834103E+02  0.44679631372E+01  0.60526534689E+01  0.18726447066E+02  0.00000000000E+00 0.  1.
         11    1    3    3    0    0 -0.86072910817E+01  0.47740503150E+01 -0.14440686934E+02  0.17475996554E+02  0.51100000000E-03 0. -1.
        -11    1    3    3    0    0  0.29086503239E+02  0.84733705472E+01  0.17289319252E+02  0.34881846849E+02  0.51100000000E-03 0.  1.
        -12    1    3    3    0    0 -0.33303780544E+01 -0.17715383999E+02 -0.89012857871E+01  0.20103709531E+02  0.00000000000E+00 0.  1.
</event>
<event>
 7    1  0.1874105E-013  0.7246149E+02  0.7816164E-02  0.1226708E+00
        -11   -1    0    0    0    0  0.00000000000E+00  0.00000000000E+00  0.45593999997E+02  0.45594000000E+02  0.51100000000E-03 0.  1.
         11   -1    0    0    0    0 -0.00000000000E+00 -0.00000000000E+00 -0.45593999997E+02  0.45594000000E+02  0.51100000000E-03 0. -1.
    9900012    2    1    2    0    0 -0.18490759712E+02 -0.22156411484E+01 -0.19659480852E+01  0.72461489052E+02  0.69999894166E+02 0.  0.
        -12    1    1    2    0    0  0.18490759712E+02  0.22156411484E+01  0.19659480852E+01  0.18726510948E+02  0.00000000000E+00 0.  1.
         11    1    3    3    0    0  0.80509338631E+00  0.27624329238E+02 -0.92758919061E+01  0.29151224882E+02  0.51100000000E-03 0. -1.
        -11    1    3    3    0    0 -0.20033056301E+02 -0.11415431403E+02 -0.10133711779E+01  0.23079478770E+02  0.51100000000E-03 0.  1.
         12    1    3    3    0    0  0.73720320287E+00 -0.18424538983E+02  0.83233149989E+01  0.20230785399E+02  0.00000000000E+00 0. -1.
</event>
<event>
 7    1  0.1874105E-013  0.7246148E+02  0.7816164E-02  0.1226708E+00
        -11   -1    0    0    0    0  0.00000000000E+00  0.00000000000E+00  0.45593999997E+02  0.45594000000E+02  0.51100000000E-03 0.  1.
         11   -1    0    0    0    0 -0.00000000000E+00 -0.00000000000E+00 -0.45593999997E+02  0.45594000000E+02  0.51100000000E-03 0. -1.
    9900012    2    1    2    0    0  0.18373547202E+02 -0.14375451329E+01 -0.33209647274E+01  0.72461479247E+02  0.69999881393E+02 0.  0.
        -12    1    1    2    0    0 -0.18373547202E+02  0.14375451329E+01  0.33209647274E+01  0.18726520753E+02  0.00000000000E+00 0.  1.
         11    1    3    3    0    0  0.24649343049E+02  0.12698789064E+02  0.65904649833E+00  0.27735963999E+02  0.51100000000E-03 0. -1.
        -11    1    3    3    0    0 -0.17684375903E+02 -0.18716282076E+02 -0.13595401699E+02  0.29118229916E+02  0.51100000000E-03 0.  1.
        -12    1    3    3    0    0  0.11408580056E+02  0.45799478790E+01  0.96153904731E+01  0.15607285332E+02  0.00000000000E+00 0.  1.
</event>
<event>
 7    1  0.1874105E-013  0.7246162E+02  0.7816164E-02  0.1226708E+00
        -11   -1    0    0    0    0  0.00000000000E+00  0.00000000000E+00  0.45593999997E+02  0.45594000000E+02  0.51100000000E-03 0. -1.
         11   -1    0    0    0    0 -0.00000000000E+00 -0.00000000000E+00 -0.45593999997E+02  0.45594000000E+02  0.51100000000E-03 0.  1.
    9900012    2    1    2    0    0 -0.37109495632E+01 -0.17221469254E+02  0.63503717891E+01  0.72461618294E+02  0.70000062528E+02 0.  0.
        -12    1    1    2    0    0  0.37109495632E+01  0.17221469254E+02 -0.63503717891E+01  0.18726381706E+02  0.00000000000E+00 0.  1.
         11    1    3    3    0    0 -0.65346664950E+01  0.10225826353E+02  0.22031493766E+02  0.25152656095E+02  0.51100000000E-03 0. -1.
        -11    1    3    3    0    0  0.17591253570E+02 -0.75994550961E+01 -0.26413202259E+01  0.19343745571E+02  0.51100000000E-03 0.  1.
         12    1    3    3    0    0 -0.14767536638E+02 -0.19847840511E+02 -0.13039801751E+02  0.27965216628E+02  0.00000000000E+00 0. -1.
</event>
<event>
 7    1  0.2395293E-013  0.7246154E+02  0.7816164E-02  0.1226708E+00
        -11   -1    0    0    0    0  0.00000000000E+00  0.00000000000E+00  0.45593999997E+02  0.45594000000E+02  0.51100000000E-03 0. -1.
         11   -1    0    0    0    0 -0.00000000000E+00 -0.00000000000E+00 -0.45593999997E+02  0.45594000000E+02  0.51100000000E-03 0.  1.
    9900012    2    1    2    0    0  0.74907615913E+01 -0.31222273720E+01  0.16876627549E+02  0.72461538231E+02  0.69999958231E+02 0.  0.
        -12    1    1    2    0    0 -0.74907615913E+01  0.31222273720E+01 -0.16876627549E+02  0.18726461769E+02  0.00000000000E+00 0.  1.
         11    1    3    3    0    0 -0.16532727033E+01 -0.12743155910E+02  0.31041944223E+02  0.33596482473E+02  0.51100000000E-03 0. -1.
        -11    1    3    3    0    0  0.14923884271E+02  0.18178445925E+02 -0.30891115848E+01  0.23721737470E+02  0.51100000000E-03 0.  1.
        -12    1    3    3    0    0 -0.57798499760E+01 -0.85575173870E+01 -0.11076205089E+02  0.15143318287E+02  0.00000000000E+00 0.  1.
</event>
<event>
 7    1  0.1874105E-013  0.7246127E+02  0.7816164E-02  0.1226709E+00
        -11   -1    0    0    0    0  0.00000000000E+00  0.00000000000E+00  0.45593999997E+02  0.45594000000E+02  0.51100000000E-03 0. -1.
         11   -1    0    0    0    0 -0.00000000000E+00 -0.00000000000E+00 -0.45593999997E+02  0.45594000000E+02  0.51100000000E-03 0.  1.
    9900012    2    1    2    0    0  0.12208785438E+02 -0.87639418896E+01  0.11172695486E+02  0.72461274613E+02  0.69999614819E+02 0.  0.
        -12    1    1    2    0    0 -0.12208785438E+02  0.87639418896E+01 -0.11172695486E+02  0.18726725387E+02  0.00000000000E+00 0.  1.
         11    1    3    3    0    0  0.16242188803E+02 -0.57964272095E+01  0.26349663723E+02  0.31491459859E+02  0.51100000000E-03 0. -1.
        -11    1    3    3    0    0  0.59706820110E+00 -0.93938932058E+01 -0.25946483082E+02  0.27601117814E+02  0.51100000000E-03 0.  1.
         12    1    3    3    0    0 -0.46304715658E+01  0.64263785257E+01  0.10769514844E+02  0.13368696939E+02  0.00000000000E+00 0. -1.
</event>
<event>
 7    1  0.1874105E-013  0.7246156E+02  0.7816164E-02  0.1226708E+00
        -11   -1    0    0    0    0  0.00000000000E+00  0.00000000000E+00  0.45593999997E+02  0.45594000000E+02  0.51100000000E-03 0. -1.
         11   -1    0    0    0    0 -0.00000000000E+00 -0.00000000000E+00 -0.45593999997E+02  0.45594000000E+02  0.51100000000E-03 0.  1.
    9900012    2    1    2    0    0  0.73437516471E+01  0.13226351746E+02  0.11036864700E+02  0.72461562774E+02  0.69999990204E+02 0.  0.
        -12    1    1    2    0    0 -0.73437516471E+01 -0.13226351746E+02 -0.11036864700E+02  0.18726437226E+02  0.00000000000E+00 0.  1.
         11    1    3    3    0    0 -0.59604081370E+01  0.30898840816E+02  0.19453897436E+02  0.36996201895E+02  0.51100000000E-03 0. -1.
        -11    1    3    3    0    0 -0.19403942299E+01 -0.13965074724E+02  0.48591027679E+01  0.14913058767E+02  0.51100000000E-03 0.  1.
         12    1    3    3    0    0  0.15244554014E+02 -0.37074143462E+01 -0.13276135504E+02  0.20552302113E+02  0.00000000000E+00 0. -1.
</event>
<event>
 7    1  0.1874105E-013  0.7246145E+02  0.7816164E-02  0.1226708E+00
        -11   -1    0    0    0    0  0.00000000000E+00  0.00000000000E+00  0.45593999997E+02  0.45594000000E+02  0.51100000000E-03 0.  1.
         11   -1    0    0    0    0 -0.00000000000E+00 -0.00000000000E+00 -0.45593999997E+02  0.45594000000E+02  0.51100000000E-03 0. -1.
    9900012    2    1    2    0    0  0.80090164736E+01  0.16216037643E+02 -0.48558718210E+01  0.72461448986E+02  0.69999841974E+02 0.  0.
        -12    1    1    2    0    0 -0.80090164736E+01 -0.16216037643E+02  0.48558718210E+01  0.18726551014E+02  0.00000000000E+00 0.  1.
         11    1    3    3    0    0 -0.55350851727E+01  0.14484855298E+01 -0.18087296716E+01  0.60005650971E+01  0.51100000000E-03 0. -1.
        -11    1    3    3    0    0  0.28881137490E+02  0.12269498814E+02 -0.24612493241E+02  0.39880264889E+02  0.51100000000E-03 0.  1.
        -12    1    3    3    0    0 -0.15337035843E+02  0.24980533000E+01  0.21565351091E+02  0.26580619000E+02  0.00000000000E+00 0.  1.
</event>
<event>
 7    1  0.1874105E-013  0.7246157E+02  0.7816164E-02  0.1226708E+00
        -11   -1    0    0    0    0  0.00000000000E+00  0.00000000000E+00  0.45593999997E+02  0.45594000000E+02  0.51100000000E-03 0.  1.
         11   -1    0    0    0    0 -0.00000000000E+00 -0.00000000000E+00 -0.45593999997E+02  0.45594000000E+02  0.51100000000E-03 0. -1.
    9900012    2    1    2    0    0  0.18168802672E+02  0.45298954682E+00  0.45131531052E+01  0.72461571055E+02  0.70000000991E+02 0.  0.
        -12    1    1    2    0    0 -0.18168802672E+02 -0.45298954682E+00 -0.45131531052E+01  0.18726428945E+02  0.00000000000E+00 0.  1.
         11    1    3    3    0    0 -0.12044334893E+02 -0.13342124095E+02  0.38407993368E+01  0.18380152833E+02  0.51100000000E-03 0. -1.
        -11    1    3    3    0    0  0.14213378916E+02  0.19181471198E+02  0.17992752826E+02  0.29894617108E+02  0.51100000000E-03 0.  1.
         12    1    3    3    0    0  0.15999758650E+02 -0.53863575569E+01 -0.17320399058E+02  0.24186801113E+02  0.00000000000E+00 0. -1.
</event>
<event>
 7    1  0.1874105E-013  0.7246161E+02  0.7816164E-02  0.1226708E+00
        -11   -1    0    0    0    0  0.00000000000E+00  0.00000000000E+00  0.45593999997E+02  0.45594000000E+02  0.51100000000E-03 0.  1.
         11   -1    0    0    0    0 -0.00000000000E+00 -0.00000000000E+00 -0.45593999997E+02  0.45594000000E+02  0.51100000000E-03 0. -1.
    9900012    2    1    2    0    0 -0.63260116453E+01  0.24177689120E+01 -0.17458911117E+02  0.72461612008E+02  0.70000054340E+02 0.  0.
        -12    1    1    2    0    0  0.63260116453E+01 -0.24177689120E+01  0.17458911117E+02  0.18726387992E+02  0.00000000000E+00 0.  1.
         11    1    3    3    0    0 -0.15044885606E+02  0.31988846928E+02 -0.14390446697E+02  0.38166999713E+02  0.51100000000E-03 0. -1.
        -11    1    3    3    0    0 -0.18842777139E+01 -0.16761719679E+02 -0.49024422425E+01  0.17565297872E+02  0.51100000000E-03 0.  1.
         12    1    3    3    0    0  0.10603151675E+02 -0.12809358336E+02  0.18339778229E+01  0.16729314424E+02  0.00000000000E+00 0. -1.
</event>
<event>
 7    1  0.1874105E-013  0.7246153E+02  0.7816164E-02  0.1226708E+00
        -11   -1    0    0    0    0  0.00000000000E+00  0.00000000000E+00  0.45593999997E+02  0.45594000000E+02  0.51100000000E-03 0. -1.
         11   -1    0    0    0    0 -0.00000000000E+00 -0.00000000000E+00 -0.45593999997E+02  0.45594000000E+02  0.51100000000E-03 0.  1.
    9900012    2    1    2    0    0  0.15384604854E+02 -0.14669268710E+01 -0.10575564537E+02  0.72461534604E+02  0.69999953507E+02 0.  0.
        -12    1    1    2    0    0 -0.15384604854E+02  0.14669268710E+01  0.10575564537E+02  0.18726465396E+02  0.00000000000E+00 0.  1.
         11    1    3    3    0    0  0.96418313557E+01 -0.19493164005E+02  0.11181113508E+02  0.24453336262E+02  0.51100000000E-03 0. -1.
        -11    1    3    3    0    0 -0.42334323739E+01  0.28104192919E+02 -0.12332349373E+02  0.30981517887E+02  0.51100000000E-03 0.  1.
        -12    1    3    3    0    0  0.99762058717E+01 -0.10077955785E+02 -0.94243286723E+01  0.17026680455E+02  0.00000000000E+00 0.  1.
</event>
<event>
 7    1  0.2001120E-013  0.7246155E+02  0.7816164E-02  0.1226708E+00
        -11   -1    0    0    0    0  0.00000000000E+00  0.00000000000E+00  0.45593999997E+02  0.45594000000E+02  0.51100000000E-03 0. -1.
         11   -1    0    0    0    0 -0.00000000000E+00 -0.00000000000E+00 -0.45593999997E+02  0.45594000000E+02  0.51100000000E-03 0.  1.
    9900012    2    1    2    0    0 -0.64637711721E+01  0.19061300104E+01  0.17471866410E+02  0.72461553855E+02  0.69999978584E+02 0.  0.
        -12    1    1    2    0    0  0.64637711721E+01 -0.19061300104E+01 -0.17471866410E+02  0.18726446145E+02  0.00000000000E+00 0.  1.
         11    1    3    3    0    0  0.31975013134E+00  0.10709184104E+02  0.34950832722E+02  0.36556115392E+02  0.51100000000E-03 0. -1.
        -11    1    3    3    0    0 -0.31505240956E+01  0.67858194594E+01 -0.18409643747E+02  0.19871792344E+02  0.51100000000E-03 0.  1.
        -12    1    3    3    0    0 -0.36329972077E+01 -0.15588873553E+02  0.93067743523E+00  0.16033646118E+02  0.00000000000E+00 0.  1.
</event>
<event>
 7    1  0.1874105E-013  0.7246155E+02  0.7816164E-02  0.1226708E+00
        -11   -1    0    0    0    0  0.00000000000E+00  0.00000000000E+00  0.45593999997E+02  0.45594000000E+02  0.51100000000E-03 0.  1.
         11   -1    0    0    0    0 -0.00000000000E+00 -0.00000000000E+00 -0.45593999997E+02  0.45594000000E+02  0.51100000000E-03 0. -1.
    9900012    2    1    2    0    0  0.15844473420E+02  0.49934130609E+01 -0.86428197051E+01  0.72461552275E+02  0.69999976527E+02 0.  0.
        -12    1    1    2    0    0 -0.15844473420E+02 -0.49934130609E+01  0.86428197051E+01  0.18726447725E+02  0.00000000000E+00 0.  1.
         11    1    3    3    0    0 -0.10272556629E+02 -0.54165695427E+01 -0.51855313643E+01  0.12718269579E+02  0.51100000000E-03 0. -1.
        -11    1    3    3    0    0  0.15124178337E+02  0.17213939192E+02  0.21636478513E+02  0.31515038880E+02  0.51100000000E-03 0.  1.
        -12    1    3    3    0    0  0.10992851711E+02 -0.68039565887E+01 -0.25093766854E+02  0.28228243816E+02  0.00000000000E+00 0.  1.
</event>
<event>
 7    1  0.1874105E-013  0.7246157E+02  0.7816164E-02  0.1226708E+00
        -11   -1    0    0    0    0  0.00000000000E+00  0.00000000000E+00  0.45593999997E+02  0.45594000000E+02  0.51100000000E-03 0.  1.
         11   -1    0    0    0    0 -0.00000000000E+00 -0.00000000000E+00 -0.45593999997E+02  0.45594000000E+02  0.51100000000E-03 0. -1.
    9900012    2    1    2    0    0 -0.42951645734E+01 -0.54442940501E+01 -0.17395125919E+02  0.72461569957E+02  0.69999999561E+02 0.  0.
        -12    1    1    2    0    0  0.42951645734E+01  0.54442940501E+01  0.17395125919E+02  0.18726430043E+02  0.00000000000E+00 0.  1.
         11    1    3    3    0    0  0.21905046746E+02 -0.42163119486E+01 -0.21489774691E+02  0.30974485886E+02  0.51100000000E-03 0. -1.
        -11    1    3    3    0    0 -0.89585489404E+01  0.34214564968E+00  0.17452147512E+02  0.19620145662E+02  0.51100000000E-03 0.  1.
         12    1    3    3    0    0 -0.17241662379E+02 -0.15701277512E+01 -0.13357498740E+02  0.21866938408E+02  0.00000000000E+00 0. -1.
</event>
<event>
 7    1  0.1874105E-013  0.7246155E+02  0.7816164E-02  0.1226708E+00
        -11   -1    0    0    0    0  0.00000000000E+00  0.00000000000E+00  0.45593999997E+02  0.45594000000E+02  0.51100000000E-03 0.  1.
         11   -1    0    0    0    0 -0.00000000000E+00 -0.00000000000E+00 -0.45593999997E+02  0.45594000000E+02  0.51100000000E-03 0. -1.
    9900012    2    1    2    0    0 -0.98321954007E+01 -0.15307474867E+02 -0.44372495082E+01  0.72461547148E+02  0.69999969848E+02 0.  0.
        -12    1    1    2    0    0  0.98321954007E+01  0.15307474867E+02  0.44372495082E+01  0.18726452852E+02  0.00000000000E+00 0.  1.
         11    1    3    3    0    0 -0.93131307215E+01 -0.18276372319E+02  0.19141527588E+02  0.28056340952E+02  0.51100000000E-03 0. -1.
        -11    1    3    3    0    0  0.18414393317E+02  0.10897393559E+01 -0.13620547609E+02  0.22930257969E+02  0.51100000000E-03 0.  1.
        -12    1    3    3    0    0 -0.18933457996E+02  0.18791580955E+01 -0.99582294872E+01  0.21474948227E+02  0.00000000000E+00 0.  1.
</event>
<event>
 7    1  0.1874105E-013  0.7246155E+02  0.7816164E-02  0.1226708E+00
        -11   -1    0    0    0    0  0.00000000000E+00  0.00000000000E+00  0.45593999997E+02  0.45594000000E+02  0.51100000000E-03 0.  1.
         11   -1    0    0    0    0 -0.00000000000E+00 -0.00000000000E+00 -0.45593999997E+02  0.45594000000E+02  0.51100000000E-03 0. -1.
    9900012    2    1    2    0    0 -0.98421104466E+01 -0.56287412677E+01 -0.14904025352E+02  0.72461552446E+02  0.69999976749E+02 0.  0.
        -12    1    1    2    0    0  0.98421104466E+01  0.56287412677E+01  0.14904025352E+02  0.18726447554E+02  0.00000000000E+00 0.  1.
         11    1    3    3    0    0  0.32743160540E+01 -0.14984473551E+02 -0.92050353371E+01  0.17888215926E+02  0.51100000000E-03 0. -1.
        -11    1    3    3    0    0 -0.13788479302E+02  0.13811365004E+02  0.20315882751E+02  0.28171103225E+02  0.51100000000E-03 0.  1.
        -12    1    3    3    0    0  0.67205280123E+00 -0.44556327208E+01 -0.26014872766E+02  0.26402233294E+02  0.00000000000E+00 0.  1.
</event>
<event>
 7    1  0.1874105E-013  0.7246172E+02  0.7816164E-02  0.1226708E+00
        -11   -1    0    0    0    0  0.00000000000E+00  0.00000000000E+00  0.45593999997E+02  0.45594000000E+02  0.51100000000E-03 0.  1.
         11   -1    0    0    0    0 -0.00000000000E+00 -0.00000000000E+00 -0.45593999997E+02  0.45594000000E+02  0.51100000000E-03 0. -1.
    9900012    2    1    2    0    0  0.18280044956E+02  0.40578538444E+01 -0.21772998953E+00  0.72461718261E+02  0.70000192754E+02 0.  0.
        -12    1    1    2    0    0 -0.18280044956E+02 -0.40578538444E+01  0.21772998953E+00  0.18726281739E+02  0.00000000000E+00 0.  1.
         11    1    3    3    0    0  0.47635614646E+01 -0.17163988671E+02 -0.28349879793E+01  0.18036939375E+02  0.51100000000E-03 0.  1.
        -11    1    3    3    0    0  0.14641872983E+02  0.28439822481E+02  0.18493242241E+02  0.36948720628E+02  0.51100000000E-03 0. -1.
        -12    1    3    3    0    0 -0.11253894913E+01 -0.72179799657E+01 -0.15875984251E+02  0.17476058258E+02  0.00000000000E+00 0.  1.
</event>
<event>
 7    1  0.1874105E-013  0.7246159E+02  0.7816164E-02  0.1226708E+00
        -11   -1    0    0    0    0  0.00000000000E+00  0.00000000000E+00  0.45593999997E+02  0.45594000000E+02  0.51100000000E-03 0.  1.
         11   -1    0    0    0    0 -0.00000000000E+00 -0.00000000000E+00 -0.45593999997E+02  0.45594000000E+02  0.51100000000E-03 0. -1.
    9900012    2    1    2    0    0 -0.11716390942E+02  0.33006241679E+01 -0.14230612307E+02  0.72461594493E+02  0.70000031523E+02 0.  0.
        -12    1    1    2    0    0  0.11716390942E+02 -0.33006241679E+01  0.14230612307E+02  0.18726405507E+02  0.00000000000E+00 0.  1.
         11    1    3    3    0    0  0.24129235385E+01  0.51081274887E+00 -0.51836636170E+01  0.57405137768E+01  0.51100000000E-03 0. -1.
        -11    1    3    3    0    0 -0.27664100391E+02 -0.10424117493E+02  0.17326059573E+02  0.34265974618E+02  0.51100000000E-03 0.  1.
        -12    1    3    3    0    0  0.13534785911E+02  0.13213928912E+02 -0.26373008263E+02  0.32455106097E+02  0.00000000000E+00 0.  1.
</event>
<event>
 7    1  0.1874105E-013  0.7246152E+02  0.7816164E-02  0.1226708E+00
        -11   -1    0    0    0    0  0.00000000000E+00  0.00000000000E+00  0.45593999997E+02  0.45594000000E+02  0.51100000000E-03 0. -1.
         11   -1    0    0    0    0 -0.00000000000E+00 -0.00000000000E+00 -0.45593999997E+02  0.45594000000E+02  0.51100000000E-03 0.  1.
    9900012    2    1    2    0    0  0.33035389319E+01  0.90776073965E+01  0.16042590078E+02  0.72461520834E+02  0.69999935569E+02 0.  0.
        -12    1    1    2    0    0 -0.33035389319E+01 -0.90776073965E+01 -0.16042590078E+02  0.18726479166E+02  0.00000000000E+00 0.  1.
         11    1    3    3    0    0  0.16891641474E+02  0.10017969067E+02  0.39866307225E+02  0.44441081310E+02  0.51100000000E-03 0. -1.
        -11    1    3    3    0    0 -0.19106074219E+01 -0.22975157995E+01 -0.51609233148E+01  0.59635668263E+01  0.51100000000E-03 0.  1.
         12    1    3    3    0    0 -0.11677495121E+02  0.13571541287E+01 -0.18662793832E+02  0.22056872698E+02  0.00000000000E+00 0. -1.
</event>
<event>
 7    1  0.1874105E-013  0.7246166E+02  0.7816164E-02  0.1226708E+00
        -11   -1    0    0    0    0  0.00000000000E+00  0.00000000000E+00  0.45593999997E+02  0.45594000000E+02  0.51100000000E-03 0. -1.
         11   -1    0    0    0    0 -0.00000000000E+00 -0.00000000000E+00 -0.45593999997E+02  0.45594000000E+02  0.51100000000E-03 0.  1.
    9900012    2    1    2    0    0 -0.16684820131E+02  0.36827367464E+01  0.76635491635E+01  0.72461661369E+02  0.70000118641E+02 0.  0.
        -12    1    1    2    0    0  0.16684820131E+02 -0.36827367464E+01 -0.76635491635E+01  0.18726338631E+02  0.00000000000E+00 0.  1.
         11    1    3    3    0    0 -0.25292684251E+02 -0.14810609186E+02  0.81983941985E+01  0.30434974762E+02  0.51100000000E-03 0. -1.
        -11    1    3    3    0    0  0.18709239468E+02  0.35462302737E+01 -0.10155743076E+02  0.21581253631E+02  0.51100000000E-03 0.  1.
         12    1    3    3    0    0 -0.10101375348E+02  0.14947115659E+02  0.96208980405E+01  0.20445432975E+02  0.00000000000E+00 0. -1.
</event>
<event>
 7    1  0.1874105E-013  0.7246158E+02  0.7816164E-02  0.1226708E+00
        -11   -1    0    0    0    0  0.00000000000E+00  0.00000000000E+00  0.45593999997E+02  0.45594000000E+02  0.51100000000E-03 0.  1.
         11   -1    0    0    0    0 -0.00000000000E+00 -0.00000000000E+00 -0.45593999997E+02  0.45594000000E+02  0.51100000000E-03 0. -1.
    9900012    2    1    2    0    0 -0.19338147947E+01  0.18219170824E+02  0.38730985151E+01  0.72461582370E+02  0.70000015730E+02 0.  0.
        -12    1    1    2    0    0  0.19338147947E+01 -0.18219170824E+02 -0.38730985151E+01  0.18726417630E+02  0.00000000000E+00 0.  1.
         11    1    3    3    0    0 -0.18037908214E+02  0.13823643535E+02 -0.87121669322E+01  0.24338469677E+02  0.51100000000E-03 0. -1.
        -11    1    3    3    0    0  0.13527532938E+02 -0.22524173123E+01  0.27978599898E+02  0.31158780202E+02  0.51100000000E-03 0.  1.
        -12    1    3    3    0    0  0.25765604814E+01  0.66479446013E+01 -0.15393334451E+02  0.16964332491E+02  0.00000000000E+00 0.  1.
</event>
<event>
 7    1  0.1874105E-013  0.7246157E+02  0.7816164E-02  0.1226708E+00
        -11   -1    0    0    0    0  0.00000000000E+00  0.00000000000E+00  0.45593999997E+02  0.45594000000E+02  0.51100000000E-03 0. -1.
         11   -1    0    0    0    0 -0.00000000000E+00 -0.00000000000E+00 -0.45593999997E+02  0.45594000000E+02  0.51100000000E-03 0.  1.
    9900012    2    1    2    0    0 -0.17045450531E+02 -0.61635519960E+01 -0.47055591910E+01  0.72461573637E+02  0.70000004355E+02 0.  0.
        -12    1    1    2    0    0  0.17045450531E+02  0.61635519960E+01  0.47055591910E+01  0.18726426363E+02  0.00000000000E+00 0.  1.
         11    1    3    3    0    0 -0.16210733896E+02 -0.14786255528E+01  0.40452648910E+01  0.16773145062E+02  0.51100000000E-03 0. -1.
        -11    1    3    3    0    0  0.73979225348E+01 -0.61103857210E+01 -0.30720267188E+02  0.32183860673E+02  0.51100000000E-03 0.  1.
        -12    1    3    3    0    0 -0.82326391699E+01  0.14254592779E+01  0.21969443106E+02  0.23504567901E+02  0.00000000000E+00 0.  1.
</event>
<event>
 7    1  0.1874105E-013  0.7246156E+02  0.7816164E-02  0.1226708E+00
        -11   -1    0    0    0    0  0.00000000000E+00  0.00000000000E+00  0.45593999997E+02  0.45594000000E+02  0.51100000000E-03 0. -1.
         11   -1    0    0    0    0 -0.00000000000E+00 -0.00000000000E+00 -0.45593999997E+02  0.45594000000E+02  0.51100000000E-03 0.  1.
    9900012    2    1    2    0    0 -0.10134673131E+01  0.18594585713E+02  0.19732346687E+01  0.72461564437E+02  0.69999992369E+02 0.  0.
        -12    1    1    2    0    0  0.10134673131E+01 -0.18594585713E+02 -0.19732346687E+01  0.18726435563E+02  0.00000000000E+00 0.  1.
         11    1    3    3    0    0 -0.34551293978E+02  0.10627412264E+02  0.35983224364E+01  0.36327423960E+02  0.51100000000E-03 0. -1.
        -11    1    3    3    0    0  0.19930056765E+02  0.14634592454E+01 -0.51687279707E+01  0.20641332920E+02  0.51100000000E-03 0.  1.
         12    1    3    3    0    0  0.13607769900E+02  0.65037142045E+01  0.35436402030E+01  0.15492807557E+02  0.00000000000E+00 0. -1.
</event>
<event>
 7    1  0.1874105E-013  0.7246163E+02  0.7816164E-02  0.1226708E+00
        -11   -1    0    0    0    0  0.00000000000E+00  0.00000000000E+00  0.45593999997E+02  0.45594000000E+02  0.51100000000E-03 0.  1.
         11   -1    0    0    0    0 -0.00000000000E+00 -0.00000000000E+00 -0.45593999997E+02  0.45594000000E+02  0.51100000000E-03 0. -1.
    9900012    2    1    2    0    0 -0.12426907640E+02  0.12739288869E+02 -0.58274603507E+01  0.72461633334E+02  0.70000082121E+02 0.  0.
        -12    1    1    2    0    0  0.12426907640E+02 -0.12739288869E+02  0.58274603507E+01  0.18726366666E+02  0.00000000000E+00 0.  1.
         11    1    3    3    0    0  0.88715498756E+01  0.28794607055E+02  0.81395675894E+01  0.31210356509E+02  0.51100000000E-03 0.  1.
        -11    1    3    3    0    0 -0.15319693523E+01 -0.13464870290E+02 -0.16279751776E+02  0.21182067419E+02  0.51100000000E-03 0. -1.
         12    1    3    3    0    0 -0.19766488163E+02 -0.25904478959E+01  0.23127238355E+01  0.20069209405E+02  0.00000000000E+00 0. -1.
</event>
<event>
 7    1  0.1874105E-013  0.7246141E+02  0.7816164E-02  0.1226708E+00
        -11   -1    0    0    0    0  0.00000000000E+00  0.00000000000E+00  0.45593999997E+02  0.45594000000E+02  0.51100000000E-03 0.  1.
         11   -1    0    0    0    0 -0.00000000000E+00 -0.00000000000E+00 -0.45593999997E+02  0.45594000000E+02  0.51100000000E-03 0. -1.
    9900012    2    1    2    0    0 -0.79097200956E+01 -0.16967800903E+02 -0.46379197899E+00  0.72461413486E+02  0.69999795728E+02 0.  0.
        -12    1    1    2    0    0  0.79097200956E+01  0.16967800903E+02  0.46379197899E+00  0.18726586514E+02  0.00000000000E+00 0.  1.
         11    1    3    3    0    0 -0.29400566826E+02 -0.11808833478E+02 -0.87525336512E+01  0.32870179850E+02  0.51100000000E-03 0. -1.
        -11    1    3    3    0    0  0.32449256681E-01  0.13361959338E+01  0.15868541110E+02  0.15924731387E+02  0.51100000000E-03 0.  1.
         12    1    3    3    0    0  0.21458397474E+02 -0.64951633585E+01 -0.75797994374E+01  0.23666502249E+02  0.00000000000E+00 0. -1.
</event>
<event>
 7    1  0.1874105E-013  0.7246157E+02  0.7816164E-02  0.1226708E+00
        -11   -1    0    0    0    0  0.00000000000E+00  0.00000000000E+00  0.45593999997E+02  0.45594000000E+02  0.51100000000E-03 0.  1.
         11   -1    0    0    0    0 -0.00000000000E+00 -0.00000000000E+00 -0.45593999997E+02  0.45594000000E+02  0.51100000000E-03 0. -1.
    9900012    2    1    2    0    0 -0.96942691415E+01 -0.11115650839E+02 -0.11538740550E+02  0.72461572652E+02  0.70000003071E+02 0.  0.
        -12    1    1    2    0    0  0.96942691415E+01  0.11115650839E+02  0.11538740550E+02  0.18726427348E+02  0.00000000000E+00 0.  1.
         11    1    3    3    0    0 -0.27018875011E+02 -0.17229339668E+02 -0.10151193982E+02  0.33614230495E+02  0.51100000000E-03 0. -1.
        -11    1    3    3    0    0  0.14325814087E+02  0.15518269743E+02  0.10342775879E+02  0.23516348744E+02  0.51100000000E-03 0.  1.
         12    1    3    3    0    0  0.29987917818E+01 -0.94045809133E+01 -0.11730322447E+02  0.15330993413E+02  0.00000000000E+00 0. -1.
</event>
<event>
 7    1  0.1874105E-013  0.7246161E+02  0.7816164E-02  0.1226708E+00
        -11   -1    0    0    0    0  0.00000000000E+00  0.00000000000E+00  0.45593999997E+02  0.45594000000E+02  0.51100000000E-03 0.  1.
         11   -1    0    0    0    0 -0.00000000000E+00 -0.00000000000E+00 -0.45593999997E+02  0.45594000000E+02  0.51100000000E-03 0. -1.
    9900012    2    1    2    0    0  0.15551593175E+02 -0.10389732230E+02 -0.93757527676E+00  0.72461611307E+02  0.70000053427E+02 0.  0.
        -12    1    1    2    0    0 -0.15551593175E+02  0.10389732230E+02  0.93757527676E+00  0.18726388693E+02  0.00000000000E+00 0.  1.
         11    1    3    3    0    0  0.41471195116E+01 -0.11974846557E+02 -0.15766372252E+02  0.20228050934E+02  0.51100000000E-03 0. -1.
        -11    1    3    3    0    0  0.51775495680E+00  0.24131816099E+02  0.12237627745E+02  0.27062375201E+02  0.51100000000E-03 0.  1.
        -12    1    3    3    0    0  0.10886718706E+02 -0.22546701772E+02  0.25911692310E+01  0.25171185172E+02  0.00000000000E+00 0.  1.
</event>
<event>
 7    1  0.1874105E-013  0.7246154E+02  0.7816164E-02  0.1226708E+00
        -11   -1    0    0    0    0  0.00000000000E+00  0.00000000000E+00  0.45593999997E+02  0.45594000000E+02  0.51100000000E-03 0.  1.
         11   -1    0    0    0    0 -0.00000000000E+00 -0.00000000000E+00 -0.45593999997E+02  0.45594000000E+02  0.51100000000E-03 0. -1.
    9900012    2    1    2    0    0 -0.13514166286E+02 -0.12854556352E+02 -0.16756608488E+01  0.72461544150E+02  0.69999965942E+02 0.  0.
        -12    1    1    2    0    0  0.13514166286E+02  0.12854556352E+02  0.16756608488E+01  0.18726455850E+02  0.00000000000E+00 0.  1.
         11    1    3    3    0    0 -0.28617322081E+02  0.28236807221E+01 -0.58797485240E+01  0.29351247654E+02  0.51100000000E-03 0. -1.
        -11    1    3    3    0    0  0.19787654170E+02 -0.61836172608E+01  0.16779904150E+02  0.26671212262E+02  0.51100000000E-03 0.  1.
         12    1    3    3    0    0 -0.46844983759E+01 -0.94946198129E+01 -0.12575816475E+02  0.16439084234E+02  0.00000000000E+00 0. -1.
</event>
<event>
 7    1  0.1874105E-013  0.7246140E+02  0.7816164E-02  0.1226708E+00
        -11   -1    0    0    0    0  0.00000000000E+00  0.00000000000E+00  0.45593999997E+02  0.45594000000E+02  0.51100000000E-03 0. -1.
         11   -1    0    0    0    0 -0.00000000000E+00 -0.00000000000E+00 -0.45593999997E+02  0.45594000000E+02  0.51100000000E-03 0.  1.
    9900012    2    1    2    0    0  0.10163985664E+02 -0.96360436012E+01  0.12430833229E+02  0.72461399784E+02  0.69999777879E+02 0.  0.
        -12    1    1    2    0    0 -0.10163985664E+02  0.96360436012E+01 -0.12430833229E+02  0.18726600216E+02  0.00000000000E+00 0.  1.
         11    1    3    3    0    0  0.26112681156E+02  0.27322251002E+01 -0.14256263536E+01  0.26293907695E+02  0.51100000000E-03 0. -1.
        -11    1    3    3    0    0 -0.25204889124E+02  0.14168593640E+01  0.15268895835E+02  0.29503103336E+02  0.51100000000E-03 0.  1.
        -12    1    3    3    0    0  0.92561936323E+01 -0.13785128065E+02 -0.14124362521E+01  0.16664388753E+02  0.00000000000E+00 0.  1.
</event>
<event>
 7    1  0.1874105E-013  0.7246138E+02  0.7816164E-02  0.1226709E+00
        -11   -1    0    0    0    0  0.00000000000E+00  0.00000000000E+00  0.45593999997E+02  0.45594000000E+02  0.51100000000E-03 0.  1.
         11   -1    0    0    0    0 -0.00000000000E+00 -0.00000000000E+00 -0.45593999997E+02  0.45594000000E+02  0.51100000000E-03 0. -1.
    9900012    2    1    2    0    0  0.74381989740E+00  0.35531188202E+01 -0.18371400264E+02  0.72461380737E+02  0.69999753066E+02 0.  0.
        -12    1    1    2    0    0 -0.74381989740E+00 -0.35531188202E+01  0.18371400264E+02  0.18726619263E+02  0.00000000000E+00 0.  1.
         11    1    3    3    0    0 -0.10243668651E+01 -0.37476075607E-01 -0.99349765051E+01  0.99877169738E+01  0.51100000000E-03 0. -1.
        -11    1    3    3    0    0  0.93502877394E+01  0.24701543840E+02  0.14717760102E+02  0.30235849774E+02  0.51100000000E-03 0.  1.
        -12    1    3    3    0    0 -0.75821009769E+01 -0.21110948944E+02 -0.23154183860E+02  0.32237813989E+02  0.00000000000E+00 0.  1.
</event>
<event>
 7    1  0.1874105E-013  0.7246153E+02  0.7816164E-02  0.1226708E+00
        -11   -1    0    0    0    0  0.00000000000E+00  0.00000000000E+00  0.45593999997E+02  0.45594000000E+02  0.51100000000E-03 0. -1.
         11   -1    0    0    0    0 -0.00000000000E+00 -0.00000000000E+00 -0.45593999997E+02  0.45594000000E+02  0.51100000000E-03 0.  1.
    9900012    2    1    2    0    0  0.11135451915E+02 -0.15053587571E+02  0.26810984462E+00  0.72461530205E+02  0.69999947776E+02 0.  0.
        -12    1    1    2    0    0 -0.11135451915E+02  0.15053587571E+02 -0.26810984462E+00  0.18726469795E+02  0.00000000000E+00 0.  1.
         11    1    3    3    0    0 -0.13029665253E+02 -0.49703193069E+01  0.75374348647E+01  0.15852103180E+02  0.51100000000E-03 0. -1.
        -11    1    3    3    0    0  0.28615217370E+02 -0.69182459584E+00  0.14794277208E+02  0.32220799568E+02  0.51100000000E-03 0.  1.
        -12    1    3    3    0    0 -0.44501002027E+01 -0.93914436680E+01 -0.22063602228E+02  0.24388627457E+02  0.00000000000E+00 0.  1.
</event>
<event>
 7    1  0.1874105E-013  0.7246154E+02  0.7816164E-02  0.1226708E+00
        -11   -1    0    0    0    0  0.00000000000E+00  0.00000000000E+00  0.45593999997E+02  0.45594000000E+02  0.51100000000E-03 0.  1.
         11   -1    0    0    0    0 -0.00000000000E+00 -0.00000000000E+00 -0.45593999997E+02  0.45594000000E+02  0.51100000000E-03 0. -1.
    9900012    2    1    2    0    0 -0.17331504725E+02  0.25725693840E+00 -0.70875182043E+01  0.72461544077E+02  0.69999965846E+02 0.  0.
        -12    1    1    2    0    0  0.17331504725E+02 -0.25725693840E+00  0.70875182043E+01  0.18726455923E+02  0.00000000000E+00 0.  1.
         11    1    3    3    0    0  0.17410719777E+02 -0.81005656307E+00 -0.12952137408E+02  0.21715138002E+02  0.51100000000E-03 0. -1.
        -11    1    3    3    0    0  0.52459349575E+00 -0.11604706131E+02  0.64106869699E+01  0.13268056014E+02  0.51100000000E-03 0.  1.
         12    1    3    3    0    0 -0.35266817997E+02  0.12672019632E+02 -0.54606776652E+00  0.37478350060E+02  0.00000000000E+00 0. -1.
</event>
<event>
 7    1  0.1874105E-013  0.7246158E+02  0.7816164E-02  0.1226708E+00
        -11   -1    0    0    0    0  0.00000000000E+00  0.00000000000E+00  0.45593999997E+02  0.45594000000E+02  0.51100000000E-03 0. -1.
         11   -1    0    0    0    0 -0.00000000000E+00 -0.00000000000E+00 -0.45593999997E+02  0.45594000000E+02  0.51100000000E-03 0.  1.
    9900012    2    1    2    0    0  0.53567515474E+01 -0.14268743604E+02 -0.10880572179E+02  0.72461583308E+02  0.70000016953E+02 0.  0.
        -12    1    1    2    0    0 -0.53567515474E+01  0.14268743604E+02  0.10880572179E+02  0.18726416692E+02  0.00000000000E+00 0.  1.
         11    1    3    3    0    0  0.16628127177E+02 -0.62399413733E+01 -0.21780725373E+01  0.17893448018E+02  0.51100000000E-03 0. -1.
        -11    1    3    3    0    0 -0.23336713062E+02  0.14582715456E+02 -0.89519335193E+01  0.28937776013E+02  0.51100000000E-03 0.  1.
        -12    1    3    3    0    0  0.12065337432E+02 -0.22611517686E+02  0.24943387808E+00  0.25630359277E+02  0.00000000000E+00 0.  1.
</event>
<event>
 7    1  0.1874105E-013  0.7246155E+02  0.7816164E-02  0.1226708E+00
        -11   -1    0    0    0    0  0.00000000000E+00  0.00000000000E+00  0.45593999997E+02  0.45594000000E+02  0.51100000000E-03 0.  1.
         11   -1    0    0    0    0 -0.00000000000E+00 -0.00000000000E+00 -0.45593999997E+02  0.45594000000E+02  0.51100000000E-03 0. -1.
    9900012    2    1    2    0    0  0.13160794636E+02  0.12814042177E+02  0.36433315018E+01  0.72461546604E+02  0.69999969138E+02 0.  0.
        -12    1    1    2    0    0 -0.13160794636E+02 -0.12814042177E+02 -0.36433315018E+01  0.18726453396E+02  0.00000000000E+00 0.  1.
         11    1    3    3    0    0  0.14659113616E+02 -0.64315292578E+01  0.28604696566E+01  0.16261502622E+02  0.51100000000E-03 0. -1.
        -11    1    3    3    0    0 -0.85871104569E+01  0.10716249139E+02  0.25581559488E+02  0.29034335668E+02  0.51100000000E-03 0.  1.
        -12    1    3    3    0    0  0.70887914771E+01  0.85293222961E+01 -0.24798697642E+02  0.27165708314E+02  0.00000000000E+00 0.  1.
</event>
<event>
 7    1  0.1874105E-013  0.7246157E+02  0.7816164E-02  0.1226708E+00
        -11   -1    0    0    0    0  0.00000000000E+00  0.00000000000E+00  0.45593999997E+02  0.45594000000E+02  0.51100000000E-03 0. -1.
         11   -1    0    0    0    0 -0.00000000000E+00 -0.00000000000E+00 -0.45593999997E+02  0.45594000000E+02  0.51100000000E-03 0.  1.
    9900012    2    1    2    0    0 -0.12805840213E+02 -0.13509385124E+02 -0.20460335739E+01  0.72461567255E+02  0.69999996040E+02 0.  0.
        -12    1    1    2    0    0  0.12805840213E+02  0.13509385124E+02  0.20460335739E+01  0.18726432745E+02  0.00000000000E+00 0.  1.
         11    1    3    3    0    0 -0.18042921482E+01  0.25876285514E+02  0.11925459468E+02  0.28549154207E+02  0.51100000000E-03 0. -1.
        -11    1    3    3    0    0 -0.45046816060E+01 -0.21663596550E+02 -0.37351981342E+01  0.22440037371E+02  0.51100000000E-03 0.  1.
        -12    1    3    3    0    0 -0.64968664589E+01 -0.17722074087E+02 -0.10236294908E+02  0.21472375676E+02  0.00000000000E+00 0.  1.
</event>
<event>
 7    1  0.1874105E-013  0.7246157E+02  0.7816164E-02  0.1226708E+00
        -11   -1    0    0    0    0  0.00000000000E+00  0.00000000000E+00  0.45593999997E+02  0.45594000000E+02  0.51100000000E-03 0. -1.
         11   -1    0    0    0    0 -0.00000000000E+00 -0.00000000000E+00 -0.45593999997E+02  0.45594000000E+02  0.51100000000E-03 0.  1.
    9900012    2    1    2    0    0 -0.28107849722E+01 -0.17789307834E+02  0.51302144304E+01  0.72461572539E+02  0.70000002924E+02 0.  0.
        -12    1    1    2    0    0  0.28107849722E+01  0.17789307834E+02 -0.51302144304E+01  0.18726427461E+02  0.00000000000E+00 0.  1.
         11    1    3    3    0    0  0.15450533473E+01 -0.15224304819E+02  0.14122456593E+02  0.20823314519E+02  0.51100000000E-03 0. -1.
        -11    1    3    3    0    0  0.30854563399E+01  0.16846689305E+02 -0.21414116156E+02  0.27420710282E+02  0.51100000000E-03 0.  1.
        -12    1    3    3    0    0 -0.74412946595E+01 -0.19411692320E+02  0.12421873994E+02  0.24217547738E+02  0.00000000000E+00 0.  1.
</event>
<event>
 7    1  0.1874105E-013  0.7246154E+02  0.7816164E-02  0.1226708E+00
        -11   -1    0    0    0    0  0.00000000000E+00  0.00000000000E+00  0.45593999997E+02  0.45594000000E+02  0.51100000000E-03 0.  1.
         11   -1    0    0    0    0 -0.00000000000E+00 -0.00000000000E+00 -0.45593999997E+02  0.45594000000E+02  0.51100000000E-03 0. -1.
    9900012    2    1    2    0    0  0.10979023894E+02  0.31991364682E+01 -0.14829257525E+02  0.72461539615E+02  0.69999960034E+02 0.  0.
        -12    1    1    2    0    0 -0.10979023894E+02 -0.31991364682E+01  0.14829257525E+02  0.18726460385E+02  0.00000000000E+00 0.  1.
         11    1    3    3    0    0 -0.44513323420E+01  0.13429378438E+02 -0.15977562703E+01  0.14237815500E+02  0.51100000000E-03 0. -1.
        -11    1    3    3    0    0 -0.56818371680E+01 -0.13773020769E+01 -0.29541678225E+02  0.30114630784E+02  0.51100000000E-03 0.  1.
        -12    1    3    3    0    0  0.21112193404E+02 -0.88529398929E+01  0.16310176970E+02  0.28109093331E+02  0.00000000000E+00 0.  1.
</event>
<event>
 7    1  0.1874105E-013  0.7246155E+02  0.7816164E-02  0.1226708E+00
        -11   -1    0    0    0    0  0.00000000000E+00  0.00000000000E+00  0.45593999997E+02  0.45594000000E+02  0.51100000000E-03 0.  1.
         11   -1    0    0    0    0 -0.00000000000E+00 -0.00000000000E+00 -0.45593999997E+02  0.45594000000E+02  0.51100000000E-03 0. -1.
    9900012    2    1    2    0    0  0.10944790931E+01 -0.90687736456E+01 -0.16347461241E+02  0.72461547348E+02  0.69999970108E+02 0.  0.
        -12    1    1    2    0    0 -0.10944790931E+01  0.90687736456E+01  0.16347461241E+02  0.18726452652E+02  0.00000000000E+00 0.  1.
         11    1    3    3    0    0  0.86872087274E+01  0.13032813555E+02 -0.24875140059E+02  0.29395482950E+02  0.51100000000E-03 0. -1.
        -11    1    3    3    0    0  0.46270752364E+01 -0.25048541729E+02 -0.34478032128E+01  0.25704602997E+02  0.51100000000E-03 0.  1.
        -12    1    3    3    0    0 -0.12219804871E+02  0.29469545284E+01  0.11975482031E+02  0.17361461400E+02  0.00000000000E+00 0.  1.
</event>
<event>
 7    1  0.1874105E-013  0.7246148E+02  0.7816164E-02  0.1226708E+00
        -11   -1    0    0    0    0  0.00000000000E+00  0.00000000000E+00  0.45593999997E+02  0.45594000000E+02  0.51100000000E-03 0.  1.
         11   -1    0    0    0    0 -0.00000000000E+00 -0.00000000000E+00 -0.45593999997E+02  0.45594000000E+02  0.51100000000E-03 0. -1.
    9900012    2    1    2    0    0 -0.55489721407E+01 -0.67439639673E+01 -0.16565340858E+02  0.72461477110E+02  0.69999878610E+02 0.  0.
        -12    1    1    2    0    0  0.55489721407E+01  0.67439639673E+01  0.16565340858E+02  0.18726522890E+02  0.00000000000E+00 0.  1.
         11    1    3    3    0    0 -0.10491147381E+02 -0.30575648449E+02 -0.18515405536E+02  0.37252579694E+02  0.51100000000E-03 0. -1.
        -11    1    3    3    0    0 -0.56139663950E+01  0.21107820172E+02  0.73470764112E+01  0.23044223206E+02  0.51100000000E-03 0.  1.
        -12    1    3    3    0    0  0.10556141635E+02  0.27238643095E+01 -0.53970117335E+01  0.12164674210E+02  0.00000000000E+00 0.  1.
</event>
<event>
 7    1  0.1874105E-013  0.7246150E+02  0.7816164E-02  0.1226708E+00
        -11   -1    0    0    0    0  0.00000000000E+00  0.00000000000E+00  0.45593999997E+02  0.45594000000E+02  0.51100000000E-03 0.  1.
         11   -1    0    0    0    0 -0.00000000000E+00 -0.00000000000E+00 -0.45593999997E+02  0.45594000000E+02  0.51100000000E-03 0. -1.
    9900012    2    1    2    0    0  0.10540246043E+02 -0.12467590757E+02 -0.91730103566E+01  0.72461502064E+02  0.69999911117E+02 0.  0.
        -12    1    1    2    0    0 -0.10540246043E+02  0.12467590757E+02  0.91730103566E+01  0.18726497936E+02  0.00000000000E+00 0.  1.
         11    1    3    3    0    0  0.10304097210E+02 -0.62302073299E+01  0.23691032392E+02  0.26575457075E+02  0.51100000000E-03 0.  1.
        -11    1    3    3    0    0  0.10429794852E+02  0.39651933214E+01 -0.28824316622E+02  0.30908649400E+02  0.51100000000E-03 0. -1.
        -12    1    3    3    0    0 -0.10193646019E+02 -0.10202576749E+02 -0.40397261265E+01  0.14977395589E+02  0.00000000000E+00 0.  1.
</event>
<event>
 7    1  0.1874105E-013  0.7246156E+02  0.7816164E-02  0.1226708E+00
        -11   -1    0    0    0    0  0.00000000000E+00  0.00000000000E+00  0.45593999997E+02  0.45594000000E+02  0.51100000000E-03 0.  1.
         11   -1    0    0    0    0 -0.00000000000E+00 -0.00000000000E+00 -0.45593999997E+02  0.45594000000E+02  0.51100000000E-03 0. -1.
    9900012    2    1    2    0    0 -0.74440185332E+01  0.51568456587E+01 -0.16391246923E+02  0.72461562945E+02  0.69999990427E+02 0.  0.
        -12    1    1    2    0    0  0.74440185332E+01 -0.51568456587E+01  0.16391246923E+02  0.18726437055E+02  0.00000000000E+00 0.  1.
         11    1    3    3    0    0  0.21528519965E+02  0.27702192708E+01 -0.15683106155E+02  0.26778930255E+02  0.51100000000E-03 0.  1.
        -11    1    3    3    0    0 -0.36008729833E+02 -0.35653749900E+01 -0.25866665780E+01  0.36277146625E+02  0.51100000000E-03 0. -1.
         12    1    3    3    0    0  0.70361913352E+01  0.59520013779E+01  0.18785258098E+01  0.94054860654E+01  0.00000000000E+00 0. -1.
</event>
<event>
 7    1  0.1874105E-013  0.7246152E+02  0.7816164E-02  0.1226708E+00
        -11   -1    0    0    0    0  0.00000000000E+00  0.00000000000E+00  0.45593999997E+02  0.45594000000E+02  0.51100000000E-03 0.  1.
         11   -1    0    0    0    0 -0.00000000000E+00 -0.00000000000E+00 -0.45593999997E+02  0.45594000000E+02  0.51100000000E-03 0. -1.
    9900012    2    1    2    0    0  0.17255347466E+02  0.24133969501E+01  0.68636482782E+01  0.72461516916E+02  0.69999930465E+02 0.  0.
        -12    1    1    2    0    0 -0.17255347466E+02 -0.24133969501E+01 -0.68636482782E+01  0.18726483084E+02  0.00000000000E+00 0.  1.
         11    1    3    3    0    0 -0.15056931262E+01  0.10779440944E+02 -0.34803733284E+01  0.11427005628E+02  0.51100000000E-03 0. -1.
        -11    1    3    3    0    0  0.25278537347E+02 -0.27212349737E+02 -0.26449346626E+01  0.37235898113E+02  0.51100000000E-03 0.  1.
        -12    1    3    3    0    0 -0.65174967550E+01  0.18846305743E+02  0.12988956269E+02  0.23798613176E+02  0.00000000000E+00 0.  1.
</event>
<event>
 7    1  0.1874105E-013  0.7246161E+02  0.7816164E-02  0.1226708E+00
        -11   -1    0    0    0    0  0.00000000000E+00  0.00000000000E+00  0.45593999997E+02  0.45594000000E+02  0.51100000000E-03 0. -1.
         11   -1    0    0    0    0 -0.00000000000E+00 -0.00000000000E+00 -0.45593999997E+02  0.45594000000E+02  0.51100000000E-03 0.  1.
    9900012    2    1    2    0    0 -0.82492168899E+01 -0.10758957732E+02  0.12917934403E+02  0.72461607395E+02  0.70000048330E+02 0.  0.
        -12    1    1    2    0    0  0.82492168899E+01  0.10758957732E+02 -0.12917934403E+02  0.18726392605E+02  0.00000000000E+00 0.  1.
         11    1    3    3    0    0 -0.16177505582E+02 -0.96165192751E+01  0.22924039597E+02  0.29659749182E+02  0.51100000000E-03 0. -1.
        -11    1    3    3    0    0  0.23949309525E+02 -0.43946392663E+01 -0.10332639890E+02  0.26450817159E+02  0.51100000000E-03 0.  1.
        -12    1    3    3    0    0 -0.16021020833E+02  0.32522008095E+01  0.32653469527E+00  0.16351041054E+02  0.00000000000E+00 0.  1.
</event>
<event>
 7    1  0.1874105E-013  0.7246154E+02  0.7816164E-02  0.1226708E+00
        -11   -1    0    0    0    0  0.00000000000E+00  0.00000000000E+00  0.45593999997E+02  0.45594000000E+02  0.51100000000E-03 0.  1.
         11   -1    0    0    0    0 -0.00000000000E+00 -0.00000000000E+00 -0.45593999997E+02  0.45594000000E+02  0.51100000000E-03 0. -1.
    9900012    2    1    2    0    0 -0.35431434554E+01 -0.10181495580E+02 -0.15312198417E+02  0.72461544432E+02  0.69999966309E+02 0.  0.
        -12    1    1    2    0    0  0.35431434554E+01  0.10181495580E+02  0.15312198417E+02  0.18726455568E+02  0.00000000000E+00 0.  1.
         11    1    3    3    0    0 -0.56277762495E+01 -0.28979317240E+02 -0.13829478487E+02  0.32599496449E+02  0.51100000000E-03 0. -1.
        -11    1    3    3    0    0  0.77728620772E+01  0.35730317864E+01  0.14648139973E+02  0.16963252812E+02  0.51100000000E-03 0.  1.
         12    1    3    3    0    0 -0.56882292831E+01  0.15224789874E+02 -0.16130859903E+02  0.22898795172E+02  0.00000000000E+00 0. -1.
</event>
<event>
 7    1  0.1874105E-013  0.7246152E+02  0.7816164E-02  0.1226708E+00
        -11   -1    0    0    0    0  0.00000000000E+00  0.00000000000E+00  0.45593999997E+02  0.45594000000E+02  0.51100000000E-03 0. -1.
         11   -1    0    0    0    0 -0.00000000000E+00 -0.00000000000E+00 -0.45593999997E+02  0.45594000000E+02  0.51100000000E-03 0.  1.
    9900012    2    1    2    0    0  0.67312891779E+01  0.38532020693E+00  0.17470611365E+02  0.72461521764E+02  0.69999936780E+02 0.  0.
        -12    1    1    2    0    0 -0.67312891779E+01 -0.38532020693E+00 -0.17470611365E+02  0.18726478236E+02  0.00000000000E+00 0.  1.
         11    1    3    3    0    0  0.56823022558E+01 -0.12385920206E+01 -0.17561520408E+02  0.18499450489E+02  0.51100000000E-03 0.  1.
        -11    1    3    3    0    0 -0.12984627400E+02  0.15328861201E+02  0.24548774797E+02  0.31720921782E+02  0.51100000000E-03 0. -1.
        -12    1    3    3    0    0  0.14033614322E+02 -0.13704948973E+02  0.10483356976E+02  0.22241149493E+02  0.00000000000E+00 0.  1.
</event>
<event>
 7    1  0.1874105E-013  0.7246148E+02  0.7816164E-02  0.1226708E+00
        -11   -1    0    0    0    0  0.00000000000E+00  0.00000000000E+00  0.45593999997E+02  0.45594000000E+02  0.51100000000E-03 0.  1.
         11   -1    0    0    0    0 -0.00000000000E+00 -0.00000000000E+00 -0.45593999997E+02  0.45594000000E+02  0.51100000000E-03 0. -1.
    9900012    2    1    2    0    0 -0.14657681844E+02  0.11653191847E+02  0.19474306996E+00  0.72461482915E+02  0.69999886173E+02 0.  0.
        -12    1    1    2    0    0  0.14657681844E+02 -0.11653191847E+02 -0.19474306996E+00  0.18726517085E+02  0.00000000000E+00 0.  1.
         11    1    3    3    0    0  0.11757875620E+02  0.80293922594E+01 -0.80824039005E+01  0.16372050337E+02  0.51100000000E-03 0. -1.
        -11    1    3    3    0    0 -0.26325413974E+02 -0.18365365171E+02 -0.12547666025E+01  0.32123021313E+02  0.51100000000E-03 0.  1.
         12    1    3    3    0    0 -0.90143490040E-01  0.21989164758E+02  0.95319135729E+01  0.23966411266E+02  0.00000000000E+00 0. -1.
</event>
<event>
 7    1  0.1874105E-013  0.7246156E+02  0.7816164E-02  0.1226708E+00
        -11   -1    0    0    0    0  0.00000000000E+00  0.00000000000E+00  0.45593999997E+02  0.45594000000E+02  0.51100000000E-03 0.  1.
         11   -1    0    0    0    0 -0.00000000000E+00 -0.00000000000E+00 -0.45593999997E+02  0.45594000000E+02  0.51100000000E-03 0. -1.
    9900012    2    1    2    0    0  0.39079713149E+01 -0.17253402563E+02  0.61422540321E+01  0.72461563489E+02  0.69999991135E+02 0.  0.
        -12    1    1    2    0    0 -0.39079713149E+01  0.17253402563E+02 -0.61422540321E+01  0.18726436511E+02  0.00000000000E+00 0.  1.
         11    1    3    3    0    0  0.10130908086E+02 -0.23340965827E+00 -0.19391725382E+02  0.21879871852E+02  0.51100000000E-03 0. -1.
        -11    1    3    3    0    0 -0.41933847462E+01 -0.68126156237E+01  0.35369095970E+02  0.36262503461E+02  0.51100000000E-03 0.  1.
        -12    1    3    3    0    0 -0.20295520250E+01 -0.10207377281E+02 -0.98351165558E+01  0.14319188177E+02  0.00000000000E+00 0.  1.
</event>
<event>
 7    1  0.1874105E-013  0.7246156E+02  0.7816164E-02  0.1226708E+00
        -11   -1    0    0    0    0  0.00000000000E+00  0.00000000000E+00  0.45593999997E+02  0.45594000000E+02  0.51100000000E-03 0. -1.
         11   -1    0    0    0    0 -0.00000000000E+00 -0.00000000000E+00 -0.45593999997E+02  0.45594000000E+02  0.51100000000E-03 0.  1.
    9900012    2    1    2    0    0  0.15040966867E+02  0.99154312768E+01 -0.51120676080E+01  0.72461556212E+02  0.69999981655E+02 0.  0.
        -12    1    1    2    0    0 -0.15040966867E+02 -0.99154312768E+01  0.51120676080E+01  0.18726443788E+02  0.00000000000E+00 0.  1.
         11    1    3    3    0    0 -0.11953175969E+02  0.17585790663E+02  0.21165095455E+02  0.30001661868E+02  0.51100000000E-03 0. -1.
        -11    1    3    3    0    0  0.14192179304E+02  0.35974637285E+01 -0.18825238389E+02  0.23848465346E+02  0.51100000000E-03 0.  1.
         12    1    3    3    0    0  0.12801963532E+02 -0.11267823114E+02 -0.74519246737E+01  0.18611428998E+02  0.00000000000E+00 0. -1.
</event>
<event>
 7    1  0.1874105E-013  0.7246156E+02  0.7816164E-02  0.1226708E+00
        -11   -1    0    0    0    0  0.00000000000E+00  0.00000000000E+00  0.45593999997E+02  0.45594000000E+02  0.51100000000E-03 0. -1.
         11   -1    0    0    0    0 -0.00000000000E+00 -0.00000000000E+00 -0.45593999997E+02  0.45594000000E+02  0.51100000000E-03 0.  1.
    9900012    2    1    2    0    0  0.63526442438E+01 -0.97363829476E+01  0.14680820148E+02  0.72461555543E+02  0.69999980784E+02 0.  0.
        -12    1    1    2    0    0 -0.63526442438E+01  0.97363829476E+01 -0.14680820148E+02  0.18726444457E+02  0.00000000000E+00 0.  1.
         11    1    3    3    0    0  0.18096617848E+02 -0.11524511015E+01 -0.23236563008E+02  0.29474626067E+02  0.51100000000E-03 0. -1.
        -11    1    3    3    0    0 -0.58009754716E+01 -0.13028524559E+01  0.26870568448E+01  0.65244935200E+01  0.51100000000E-03 0.  1.
         12    1    3    3    0    0 -0.59429981322E+01 -0.72810793903E+01  0.35230326311E+02  0.36462435956E+02  0.00000000000E+00 0. -1.
</event>
<event>
 7    1  0.1874105E-013  0.7246158E+02  0.7816164E-02  0.1226708E+00
        -11   -1    0    0    0    0  0.00000000000E+00  0.00000000000E+00  0.45593999997E+02  0.45594000000E+02  0.51100000000E-03 0. -1.
         11   -1    0    0    0    0 -0.00000000000E+00 -0.00000000000E+00 -0.45593999997E+02  0.45594000000E+02  0.51100000000E-03 0.  1.
    9900012    2    1    2    0    0  0.23759085005E+01 -0.12222636475E+02  0.13987178196E+02  0.72461576490E+02  0.70000008071E+02 0.  0.
        -12    1    1    2    0    0 -0.23759085005E+01  0.12222636475E+02 -0.13987178196E+02  0.18726423510E+02  0.00000000000E+00 0.  1.
         11    1    3    3    0    0  0.21512114030E+02 -0.19355442748E+02 -0.21827887652E+01  0.29020144401E+02  0.51100000000E-03 0. -1.
        -11    1    3    3    0    0 -0.22163143130E+02  0.16773859310E+02  0.18079220125E+02  0.33157585409E+02  0.51100000000E-03 0.  1.
        -12    1    3    3    0    0  0.30269376010E+01 -0.96410530361E+01 -0.19092531641E+01  0.10283846680E+02  0.00000000000E+00 0.  1.
</event>
<event>
 7    1  0.1874105E-013  0.7246156E+02  0.7816164E-02  0.1226708E+00
        -11   -1    0    0    0    0  0.00000000000E+00  0.00000000000E+00  0.45593999997E+02  0.45594000000E+02  0.51100000000E-03 0.  1.
         11   -1    0    0    0    0 -0.00000000000E+00 -0.00000000000E+00 -0.45593999997E+02  0.45594000000E+02  0.51100000000E-03 0. -1.
    9900012    2    1    2    0    0  0.24761011543E+01  0.18561459485E+02  0.14442642033E+00  0.72461555753E+02  0.69999981057E+02 0.  0.
        -12    1    1    2    0    0 -0.24761011543E+01 -0.18561459485E+02 -0.14442642033E+00  0.18726444247E+02  0.00000000000E+00 0.  1.
         11    1    3    3    0    0  0.30837398850E+01  0.65154676768E+01 -0.20821305255E+02  0.22033781416E+02  0.51100000000E-03 0. -1.
        -11    1    3    3    0    0 -0.11856587642E+02 -0.12729242270E+02  0.14029675157E+02  0.22348245223E+02  0.51100000000E-03 0.  1.
        -12    1    3    3    0    0  0.11248948911E+02  0.24775234078E+02  0.69360565180E+01  0.28079529114E+02  0.00000000000E+00 0.  1.
</event>
<event>
 7    1  0.1874105E-013  0.7246158E+02  0.7816164E-02  0.1226708E+00
        -11   -1    0    0    0    0  0.00000000000E+00  0.00000000000E+00  0.45593999997E+02  0.45594000000E+02  0.51100000000E-03 0. -1.
         11   -1    0    0    0    0 -0.00000000000E+00 -0.00000000000E+00 -0.45593999997E+02  0.45594000000E+02  0.51100000000E-03 0.  1.
    9900012    2    1    2    0    0 -0.64709290464E+01  0.66978264974E+01  0.16246388212E+02  0.72461576625E+02  0.70000008246E+02 0.  0.
        -12    1    1    2    0    0  0.64709290464E+01 -0.66978264974E+01 -0.16246388212E+02  0.18726423375E+02  0.00000000000E+00 0.  1.
         11    1    3    3    0    0  0.80053906543E+01  0.25994181055E+02  0.62703029250E-01  0.27199037854E+02  0.51100000000E-03 0. -1.
        -11    1    3    3    0    0  0.40543031418E+01 -0.18592164148E+02  0.18542224440E+02  0.26569155596E+02  0.51100000000E-03 0.  1.
         12    1    3    3    0    0 -0.18530622842E+02 -0.70419041008E+00 -0.23585392574E+01  0.18693383174E+02  0.00000000000E+00 0. -1.
</event>
<event>
 7    1  0.1874105E-013  0.7246162E+02  0.7816164E-02  0.1226708E+00
        -11   -1    0    0    0    0  0.00000000000E+00  0.00000000000E+00  0.45593999997E+02  0.45594000000E+02  0.51100000000E-03 0. -1.
         11   -1    0    0    0    0 -0.00000000000E+00 -0.00000000000E+00 -0.45593999997E+02  0.45594000000E+02  0.51100000000E-03 0.  1.
    9900012    2    1    2    0    0  0.11962168446E+02  0.13435247420E+02  0.52036663508E+01  0.72461615120E+02  0.70000058394E+02 0.  0.
        -12    1    1    2    0    0 -0.11962168446E+02 -0.13435247420E+02 -0.52036663508E+01  0.18726384880E+02  0.00000000000E+00 0.  1.
         11    1    3    3    0    0  0.20172017960E+02 -0.12739090292E-01 -0.27153019211E+02  0.33825980007E+02  0.51100000000E-03 0.  1.
        -11    1    3    3    0    0 -0.10215527234E+02  0.57585085767E+01  0.25774851270E+02  0.28317139261E+02  0.51100000000E-03 0. -1.
        -12    1    3    3    0    0  0.20056777186E+01  0.76894779339E+01  0.65818342926E+01  0.10318495853E+02  0.00000000000E+00 0.  1.
</event>
<event>
 7    1  0.1874105E-013  0.7246156E+02  0.7816164E-02  0.1226708E+00
        -11   -1    0    0    0    0  0.00000000000E+00  0.00000000000E+00  0.45593999997E+02  0.45594000000E+02  0.51100000000E-03 0. -1.
         11   -1    0    0    0    0 -0.00000000000E+00 -0.00000000000E+00 -0.45593999997E+02  0.45594000000E+02  0.51100000000E-03 0.  1.
    9900012    2    1    2    0    0  0.14891606126E+02 -0.11286453913E+02  0.12392128805E+01  0.72461558173E+02  0.69999984210E+02 0.  0.
        -12    1    1    2    0    0 -0.14891606126E+02  0.11286453913E+02 -0.12392128805E+01  0.18726441827E+02  0.00000000000E+00 0.  1.
         11    1    3    3    0    0 -0.46600609753E+01 -0.10368436143E+02 -0.38567268865E+01  0.12003956801E+02  0.51100000000E-03 0. -1.
        -11    1    3    3    0    0  0.70481997833E+01  0.15196482879E+02  0.26206810543E+02  0.31103169150E+02  0.51100000000E-03 0.  1.
        -12    1    3    3    0    0  0.12503467318E+02 -0.16114500650E+02 -0.21110870776E+02  0.29354432222E+02  0.00000000000E+00 0.  1.
</event>
<event>
 7    1  0.1874105E-013  0.7246157E+02  0.7816164E-02  0.1226708E+00
        -11   -1    0    0    0    0  0.00000000000E+00  0.00000000000E+00  0.45593999997E+02  0.45594000000E+02  0.51100000000E-03 0.  1.
         11   -1    0    0    0    0 -0.00000000000E+00 -0.00000000000E+00 -0.45593999997E+02  0.45594000000E+02  0.51100000000E-03 0. -1.
    9900012    2    1    2    0    0 -0.14299175122E+02  0.84546478087E+01 -0.86447422981E+01  0.72461573535E+02  0.70000004222E+02 0.  0.
        -12    1    1    2    0    0  0.14299175122E+02 -0.84546478087E+01  0.86447422981E+01  0.18726426465E+02  0.00000000000E+00 0.  1.
         11    1    3    3    0    0 -0.41690036310E+02  0.59302908071E+01 -0.80122502363E+01  0.42865179700E+02  0.51100000000E-03 0.  1.
        -11    1    3    3    0    0  0.20193031847E+02 -0.30297115400E+01  0.56148029771E+00  0.20426770365E+02  0.51100000000E-03 0. -1.
        -12    1    3    3    0    0  0.71978293410E+01  0.55540685416E+01 -0.11939723595E+01  0.91696234700E+01  0.00000000000E+00 0.  1.
</event>
<event>
 7    1  0.1874105E-013  0.7246153E+02  0.7816164E-02  0.1226708E+00
        -11   -1    0    0    0    0  0.00000000000E+00  0.00000000000E+00  0.45593999997E+02  0.45594000000E+02  0.51100000000E-03 0. -1.
         11   -1    0    0    0    0 -0.00000000000E+00 -0.00000000000E+00 -0.45593999997E+02  0.45594000000E+02  0.51100000000E-03 0.  1.
    9900012    2    1    2    0    0  0.43696976715E+01 -0.67552173276E+01  0.16910159115E+02  0.72461529425E+02  0.69999946760E+02 0.  0.
        -12    1    1    2    0    0 -0.43696976715E+01  0.67552173276E+01 -0.16910159115E+02  0.18726470575E+02  0.00000000000E+00 0.  1.
         11    1    3    3    0    0  0.11126698470E+02 -0.14874819493E+02  0.23585542641E+02  0.30022349937E+02  0.51100000000E-03 0. -1.
        -11    1    3    3    0    0  0.37158228883E+01  0.15339430263E+02 -0.19018579680E+02  0.24714607701E+02  0.51100000000E-03 0.  1.
        -12    1    3    3    0    0 -0.10472823687E+02 -0.72198280973E+01  0.12343196155E+02  0.17724571787E+02  0.00000000000E+00 0.  1.
</event>
<event>
 7    1  0.1874105E-013  0.7246156E+02  0.7816164E-02  0.1226708E+00
        -11   -1    0    0    0    0  0.00000000000E+00  0.00000000000E+00  0.45593999997E+02  0.45594000000E+02  0.51100000000E-03 0. -1.
         11   -1    0    0    0    0 -0.00000000000E+00 -0.00000000000E+00 -0.45593999997E+02  0.45594000000E+02  0.51100000000E-03 0.  1.
    9900012    2    1    2    0    0  0.76126150309E+01  0.78529393877E+01  0.15200618727E+02  0.72461564826E+02  0.69999992877E+02 0.  0.
        -12    1    1    2    0    0 -0.76126150309E+01 -0.78529393877E+01 -0.15200618727E+02  0.18726435174E+02  0.00000000000E+00 0.  1.
         11    1    3    3    0    0 -0.22221638598E+02 -0.33675084458E+01  0.27491049014E+01  0.22642855675E+02  0.51100000000E-03 0. -1.
        -11    1    3    3    0    0  0.12232115909E+02 -0.10009317012E+02  0.15420205240E+02  0.22081526591E+02  0.51100000000E-03 0.  1.
        -12    1    3    3    0    0  0.17602137719E+02  0.21229764845E+02 -0.29686914149E+01  0.27737182560E+02  0.00000000000E+00 0.  1.
</event>
<event>
 7    1  0.1874105E-013  0.7246155E+02  0.7816164E-02  0.1226708E+00
        -11   -1    0    0    0    0  0.00000000000E+00  0.00000000000E+00  0.45593999997E+02  0.45594000000E+02  0.51100000000E-03 0.  1.
         11   -1    0    0    0    0 -0.00000000000E+00 -0.00000000000E+00 -0.45593999997E+02  0.45594000000E+02  0.51100000000E-03 0. -1.
    9900012    2    1    2    0    0  0.15739300900E+02  0.94659975270E+01  0.36536477617E+01  0.72461552286E+02  0.69999976541E+02 0.  0.
        -12    1    1    2    0    0 -0.15739300900E+02 -0.94659975270E+01 -0.36536477617E+01  0.18726447714E+02  0.00000000000E+00 0.  1.
         11    1    3    3    0    0 -0.10403280423E+02  0.26441790186E+02 -0.64078023833E+01  0.29128275669E+02  0.51100000000E-03 0. -1.
        -11    1    3    3    0    0  0.30046778132E+02 -0.61976325606E+01  0.69921931276E+01  0.31466018027E+02  0.51100000000E-03 0.  1.
        -12    1    3    3    0    0 -0.39041968084E+01 -0.10778160098E+02  0.30692570175E+01  0.11867258591E+02  0.00000000000E+00 0.  1.
</event>
<event>
 8    1  0.1874105E-013  0.7246159E+02  0.7816164E-02  0.1226708E+00
        -11   -1    0    0    0    0  0.00000000000E+00  0.00000000000E+00  0.45593999997E+02  0.45594000000E+02  0.51100000000E-03 0.  1.
         11   -1    0    0    0    0 -0.00000000000E+00 -0.00000000000E+00 -0.45593999997E+02  0.45594000000E+02  0.51100000000E-03 0. -1.
    9900012    2    1    2    0    0 -0.21395510803E+01  0.74220512682E+01 -0.17059131479E+02  0.72461588420E+02  0.70000023612E+02 0.  0.
         24    2    3    3    0    0  0.14388897364E+02  0.12987576972E+02 -0.10499520644E+02  0.53828467938E+02  0.49107499466E+02 0.  0.
        -12    1    1    2    0    0  0.21395510803E+01 -0.74220512682E+01  0.17059131479E+02  0.18726411580E+02  0.00000000000E+00 0.  1.
         11    1    3    3    0    0 -0.16528448444E+02 -0.55655257039E+01 -0.65596108352E+01  0.18633120482E+02  0.51100000000E-03 0. -1.
        -11    1    4    4    0    0  0.27044186392E+02  0.85909364458E+01 -0.22210166826E+02  0.36034479562E+02  0.51100000000E-03 0.  1.
         12    1    4    4    0    0 -0.12655289028E+02  0.43966405263E+01  0.11710646182E+02  0.17793988375E+02  0.00000000000E+00 0. -1.
</event>
<event>
 7    1  0.1874105E-013  0.7246155E+02  0.7816164E-02  0.1226708E+00
        -11   -1    0    0    0    0  0.00000000000E+00  0.00000000000E+00  0.45593999997E+02  0.45594000000E+02  0.51100000000E-03 0. -1.
         11   -1    0    0    0    0 -0.00000000000E+00 -0.00000000000E+00 -0.45593999997E+02  0.45594000000E+02  0.51100000000E-03 0.  1.
    9900012    2    1    2    0    0  0.13773871337E+02  0.12652836235E+02 -0.93061420399E+00  0.72461552413E+02  0.69999976707E+02 0.  0.
        -12    1    1    2    0    0 -0.13773871337E+02 -0.12652836235E+02  0.93061420399E+00  0.18726447587E+02  0.00000000000E+00 0.  1.
         11    1    3    3    0    0  0.11989344218E+02  0.76281585312E+01  0.15418683214E+02  0.20968284853E+02  0.51100000000E-03 0. -1.
        -11    1    3    3    0    0 -0.19319339368E+02  0.15132334130E+02 -0.34726994521E+01  0.24784754418E+02  0.51100000000E-03 0.  1.
        -12    1    3    3    0    0  0.21103866487E+02 -0.10107656426E+02 -0.12876597966E+02  0.26708513143E+02  0.00000000000E+00 0.  1.
</event>
<event>
 7    1  0.1874105E-013  0.7246144E+02  0.7816164E-02  0.1226708E+00
        -11   -1    0    0    0    0  0.00000000000E+00  0.00000000000E+00  0.45593999997E+02  0.45594000000E+02  0.51100000000E-03 0.  1.
         11   -1    0    0    0    0 -0.00000000000E+00 -0.00000000000E+00 -0.45593999997E+02  0.45594000000E+02  0.51100000000E-03 0. -1.
    9900012    2    1    2    0    0 -0.20712065575E+01 -0.14260829949E+02 -0.11959212604E+02  0.72461443094E+02  0.69999834298E+02 0.  0.
        -12    1    1    2    0    0  0.20712065575E+01  0.14260829949E+02  0.11959212604E+02  0.18726556906E+02  0.00000000000E+00 0.  1.
         11    1    3    3    0    0  0.22416138019E+02 -0.10146683982E+02 -0.82692491633E+01  0.25958022295E+02  0.51100000000E-03 0.  1.
        -11    1    3    3    0    0 -0.22719038827E+02  0.57533408158E+01 -0.17634343805E+02  0.29329605137E+02  0.51100000000E-03 0. -1.
         12    1    3    3    0    0 -0.17683057488E+01 -0.98674867831E+01  0.13944380364E+02  0.17173815662E+02  0.00000000000E+00 0. -1.
</event>
<event>
 7    1  0.1874105E-013  0.7246162E+02  0.7816164E-02  0.1226708E+00
        -11   -1    0    0    0    0  0.00000000000E+00  0.00000000000E+00  0.45593999997E+02  0.45594000000E+02  0.51100000000E-03 0. -1.
         11   -1    0    0    0    0 -0.00000000000E+00 -0.00000000000E+00 -0.45593999997E+02  0.45594000000E+02  0.51100000000E-03 0.  1.
    9900012    2    1    2    0    0  0.16333962927E+02  0.80001718362E+01  0.44582614217E+01  0.72461623169E+02  0.70000068879E+02 0.  0.
        -12    1    1    2    0    0 -0.16333962927E+02 -0.80001718362E+01 -0.44582614217E+01  0.18726376831E+02  0.00000000000E+00 0.  1.
         11    1    3    3    0    0  0.14956002675E+02 -0.23578607352E+02  0.52390185297E+01  0.28409154442E+02  0.51100000000E-03 0. -1.
        -11    1    3    3    0    0 -0.88332077760E+01  0.32290036559E+02  0.17022906876E+01  0.33519692935E+02  0.51100000000E-03 0.  1.
        -12    1    3    3    0    0  0.10211168028E+02 -0.71125737150E+00 -0.24830477955E+01  0.10532775792E+02  0.00000000000E+00 0.  1.
</event>
<event>
 7    1  0.1874105E-013  0.7246156E+02  0.7816164E-02  0.1226708E+00
        -11   -1    0    0    0    0  0.00000000000E+00  0.00000000000E+00  0.45593999997E+02  0.45594000000E+02  0.51100000000E-03 0. -1.
         11   -1    0    0    0    0 -0.00000000000E+00 -0.00000000000E+00 -0.45593999997E+02  0.45594000000E+02  0.51100000000E-03 0.  1.
    9900012    2    1    2    0    0 -0.11161013066E+00 -0.18670207493E+02  0.14458337013E+01  0.72461560409E+02  0.69999987122E+02 0.  0.
        -12    1    1    2    0    0  0.11161013066E+00  0.18670207493E+02 -0.14458337013E+01  0.18726439591E+02  0.00000000000E+00 0.  1.
         11    1    3    3    0    0 -0.23984523577E+02  0.15070796036E+02 -0.76522794385E+01  0.29341841204E+02  0.51100000000E-03 0. -1.
        -11    1    3    3    0    0  0.17348362546E+02 -0.23753715284E+02  0.25844543529E+01  0.29527683238E+02  0.51100000000E-03 0.  1.
         12    1    3    3    0    0  0.65245509007E+01 -0.99872882451E+01  0.65136587869E+01  0.13592035967E+02  0.00000000000E+00 0. -1.
</event>
<event>
 7    1  0.1874105E-013  0.7246155E+02  0.7816164E-02  0.1226708E+00
        -11   -1    0    0    0    0  0.00000000000E+00  0.00000000000E+00  0.45593999997E+02  0.45594000000E+02  0.51100000000E-03 0. -1.
         11   -1    0    0    0    0 -0.00000000000E+00 -0.00000000000E+00 -0.45593999997E+02  0.45594000000E+02  0.51100000000E-03 0.  1.
    9900012    2    1    2    0    0 -0.17013645679E+02  0.14510709274E+01  0.76883118040E+01  0.72461551204E+02  0.69999975131E+02 0.  0.
        -12    1    1    2    0    0  0.17013645679E+02 -0.14510709274E+01 -0.76883118040E+01  0.18726448796E+02  0.00000000000E+00 0.  1.
         11    1    3    3    0    0 -0.14898411929E+02  0.21522424835E+02  0.15721356598E+02  0.30534218548E+02  0.51100000000E-03 0. -1.
        -11    1    3    3    0    0  0.16216887348E+02 -0.72730120012E+01 -0.81894556805E+01  0.19569142123E+02  0.51100000000E-03 0.  1.
         12    1    3    3    0    0 -0.18332121098E+02 -0.12798341907E+02  0.15641088624E+00  0.22358190532E+02  0.00000000000E+00 0. -1.
</event>
<event>
 7    1  0.1874105E-013  0.7246149E+02  0.7816164E-02  0.1226708E+00
        -11   -1    0    0    0    0  0.00000000000E+00  0.00000000000E+00  0.45593999997E+02  0.45594000000E+02  0.51100000000E-03 0. -1.
         11   -1    0    0    0    0 -0.00000000000E+00 -0.00000000000E+00 -0.45593999997E+02  0.45594000000E+02  0.51100000000E-03 0.  1.
    9900012    2    1    2    0    0 -0.14505020574E+02  0.31751065594E+01  0.11410757670E+02  0.72461486334E+02  0.69999890625E+02 0.  0.
        -12    1    1    2    0    0  0.14505020574E+02 -0.31751065594E+01 -0.11410757670E+02  0.18726513666E+02  0.00000000000E+00 0.  1.
         11    1    3    3    0    0 -0.18523105104E+02  0.18227793482E+02 -0.24093005342E+01  0.26099092077E+02  0.51100000000E-03 0. -1.
        -11    1    3    3    0    0  0.94176413727E+01 -0.24011826236E+02 -0.36002983531E+01  0.26042694114E+02  0.51100000000E-03 0.  1.
        -12    1    3    3    0    0 -0.53995568423E+01  0.89591393131E+01  0.17420356557E+02  0.20319700143E+02  0.00000000000E+00 0.  1.
</event>
<event>
 7    1  0.1874105E-013  0.7246151E+02  0.7816164E-02  0.1226708E+00
        -11   -1    0    0    0    0  0.00000000000E+00  0.00000000000E+00  0.45593999997E+02  0.45594000000E+02  0.51100000000E-03 0.  1.
         11   -1    0    0    0    0 -0.00000000000E+00 -0.00000000000E+00 -0.45593999997E+02  0.45594000000E+02  0.51100000000E-03 0. -1.
    9900012    2    1    2    0    0 -0.12398391857E+02  0.13764234114E+02 -0.27399459952E+01  0.72461506323E+02  0.69999916665E+02 0.  0.
        -12    1    1    2    0    0  0.12398391857E+02 -0.13764234114E+02  0.27399459952E+01  0.18726493677E+02  0.00000000000E+00 0.  1.
         11    1    3    3    0    0  0.48153369241E+01 -0.18606090504E+02  0.60079944805E+01  0.20136287430E+02  0.51100000000E-03 0. -1.
        -11    1    3    3    0    0 -0.24588729433E+02  0.35577184261E+02 -0.52846271186E+01  0.43569128281E+02  0.51100000000E-03 0.  1.
        -12    1    3    3    0    0  0.73750006524E+01 -0.32068596433E+01 -0.34633133571E+01  0.87560906119E+01  0.00000000000E+00 0.  1.
</event>
<event>
 7    1  0.1874105E-013  0.7246143E+02  0.7816164E-02  0.1226708E+00
        -11   -1    0    0    0    0  0.00000000000E+00  0.00000000000E+00  0.45593999997E+02  0.45594000000E+02  0.51100000000E-03 0. -1.
         11   -1    0    0    0    0 -0.00000000000E+00 -0.00000000000E+00 -0.45593999997E+02  0.45594000000E+02  0.51100000000E-03 0.  1.
    9900012    2    1    2    0    0 -0.35160227150E+01  0.98777137597E+01  0.15516214180E+02  0.72461426706E+02  0.69999812950E+02 0.  0.
        -12    1    1    2    0    0  0.35160227150E+01 -0.98777137597E+01 -0.15516214180E+02  0.18726573294E+02  0.00000000000E+00 0.  1.
         11    1    3    3    0    0  0.17477944001E+01  0.24076810286E+02  0.24121330460E+02  0.34126033497E+02  0.51100000000E-03 0. -1.
        -11    1    3    3    0    0  0.22944638137E+01  0.78752333814E+01 -0.12226928829E+02  0.14723506846E+02  0.51100000000E-03 0.  1.
         12    1    3    3    0    0 -0.75582809288E+01 -0.22074329908E+02  0.36218125483E+01  0.23611886363E+02  0.00000000000E+00 0. -1.
</event>
<event>
 7    1  0.1874105E-013  0.7246161E+02  0.7816164E-02  0.1226708E+00
        -11   -1    0    0    0    0  0.00000000000E+00  0.00000000000E+00  0.45593999997E+02  0.45594000000E+02  0.51100000000E-03 0.  1.
         11   -1    0    0    0    0 -0.00000000000E+00 -0.00000000000E+00 -0.45593999997E+02  0.45594000000E+02  0.51100000000E-03 0. -1.
    9900012    2    1    2    0    0  0.66621295194E+01  0.75876786079E+01  0.15770884636E+02  0.72461611170E+02  0.70000053249E+02 0.  0.
        -12    1    1    2    0    0 -0.66621295194E+01 -0.75876786079E+01 -0.15770884636E+02  0.18726388830E+02  0.00000000000E+00 0.  1.
         11    1    3    3    0    0 -0.52875454416E+01  0.21565358406E+02 -0.15070655314E+02  0.26835563564E+02  0.51100000000E-03 0. -1.
        -11    1    3    3    0    0  0.11323389573E+02 -0.52871605445E+01 -0.10735596565E+01  0.12542956136E+02  0.51100000000E-03 0.  1.
         12    1    3    3    0    0  0.62628538818E+00 -0.86905192534E+01  0.31915099607E+02  0.33083091470E+02  0.00000000000E+00 0. -1.
</event>
<event>
 7    1  0.1874105E-013  0.7246156E+02  0.7816164E-02  0.1226708E+00
        -11   -1    0    0    0    0  0.00000000000E+00  0.00000000000E+00  0.45593999997E+02  0.45594000000E+02  0.51100000000E-03 0.  1.
         11   -1    0    0    0    0 -0.00000000000E+00 -0.00000000000E+00 -0.45593999997E+02  0.45594000000E+02  0.51100000000E-03 0. -1.
    9900012    2    1    2    0    0 -0.17733842266E+02  0.49875991111E+01  0.33636644818E+01  0.72461560265E+02  0.69999986935E+02 0.  0.
        -12    1    1    2    0    0  0.17733842266E+02 -0.49875991111E+01 -0.33636644818E+01  0.18726439735E+02  0.00000000000E+00 0.  1.
         11    1    3    3    0    0  0.13769418538E+02 -0.21868284992E+02 -0.41337400237E+01  0.26170719940E+02  0.51100000000E-03 0. -1.
        -11    1    3    3    0    0 -0.24485497368E+02  0.16631863087E+02  0.13477012212E+02  0.32523657690E+02  0.51100000000E-03 0.  1.
         12    1    3    3    0    0 -0.70177634360E+01  0.10224021016E+02 -0.59796077067E+01  0.13767182635E+02  0.00000000000E+00 0. -1.
</event>
<event>
 7    1  0.1874105E-013  0.7246158E+02  0.7816164E-02  0.1226708E+00
        -11   -1    0    0    0    0  0.00000000000E+00  0.00000000000E+00  0.45593999997E+02  0.45594000000E+02  0.51100000000E-03 0.  1.
         11   -1    0    0    0    0 -0.00000000000E+00 -0.00000000000E+00 -0.45593999997E+02  0.45594000000E+02  0.51100000000E-03 0. -1.
    9900012    2    1    2    0    0 -0.60171890623E+01 -0.15367100334E+02 -0.88501145096E+01  0.72461578459E+02  0.70000010637E+02 0.  0.
        -12    1    1    2    0    0  0.60171890623E+01  0.15367100334E+02  0.88501145096E+01  0.18726421541E+02  0.00000000000E+00 0.  1.
         11    1    3    3    0    0 -0.11107120660E+01  0.23674317650E+02 -0.20007528184E+02  0.31016256734E+02  0.51100000000E-03 0. -1.
        -11    1    3    3    0    0 -0.27820813540E+01 -0.93416847042E+01  0.53144845470E+01  0.11101837507E+02  0.51100000000E-03 0.  1.
         12    1    3    3    0    0 -0.21243956423E+01 -0.29699733280E+02  0.58429291271E+01  0.30343484219E+02  0.00000000000E+00 0. -1.
</event>
<event>
 7    1  0.1874105E-013  0.7246160E+02  0.7816164E-02  0.1226708E+00
        -11   -1    0    0    0    0  0.00000000000E+00  0.00000000000E+00  0.45593999997E+02  0.45594000000E+02  0.51100000000E-03 0.  1.
         11   -1    0    0    0    0 -0.00000000000E+00 -0.00000000000E+00 -0.45593999997E+02  0.45594000000E+02  0.51100000000E-03 0. -1.
    9900012    2    1    2    0    0 -0.38016824149E+01 -0.17969563106E+02  0.36496719298E+01  0.72461599048E+02  0.70000037457E+02 0.  0.
        -12    1    1    2    0    0  0.38016824149E+01  0.17969563106E+02 -0.36496719298E+01  0.18726400952E+02  0.00000000000E+00 0.  1.
         11    1    3    3    0    0  0.83155827459E+01 -0.18257174936E+02  0.28112117061E+02  0.34536422498E+02  0.51100000000E-03 0. -1.
        -11    1    3    3    0    0  0.82662849182E+01 -0.13533734359E+01 -0.53807849802E+01  0.99556985325E+01  0.51100000000E-03 0.  1.
         12    1    3    3    0    0 -0.20383550079E+02  0.16409852654E+01 -0.19081660151E+02  0.27969478018E+02  0.00000000000E+00 0. -1.
</event>
<event>
 7    1  0.1874105E-013  0.7246156E+02  0.7816164E-02  0.1226708E+00
        -11   -1    0    0    0    0  0.00000000000E+00  0.00000000000E+00  0.45593999997E+02  0.45594000000E+02  0.51100000000E-03 0.  1.
         11   -1    0    0    0    0 -0.00000000000E+00 -0.00000000000E+00 -0.45593999997E+02  0.45594000000E+02  0.51100000000E-03 0. -1.
    9900012    2    1    2    0    0  0.43271913590E+01  0.18219625991E+02  0.68343845589E-02  0.72461564060E+02  0.69999991879E+02 0.  0.
        -12    1    1    2    0    0 -0.43271913590E+01 -0.18219625991E+02 -0.68343845589E-02  0.18726435940E+02  0.00000000000E+00 0.  1.
         11    1    3    3    0    0  0.93519793681E+01  0.14607196691E+02  0.15515939701E+02  0.23271744634E+02  0.51100000000E-03 0.  1.
        -11    1    3    3    0    0 -0.23282241503E+02 -0.84835097189E+01 -0.81334557526E+01  0.26080372108E+02  0.51100000000E-03 0. -1.
        -12    1    3    3    0    0  0.18257453494E+02  0.12095939019E+02 -0.73756495637E+01  0.23109447318E+02  0.00000000000E+00 0.  1.
</event>
<event>
 7    1  0.1874105E-013  0.7246157E+02  0.7816164E-02  0.1226708E+00
        -11   -1    0    0    0    0  0.00000000000E+00  0.00000000000E+00  0.45593999997E+02  0.45594000000E+02  0.51100000000E-03 0.  1.
         11   -1    0    0    0    0 -0.00000000000E+00 -0.00000000000E+00 -0.45593999997E+02  0.45594000000E+02  0.51100000000E-03 0. -1.
    9900012    2    1    2    0    0  0.89697454131E+00  0.15663286952E+02 -0.10224290135E+02  0.72461568673E+02  0.69999997888E+02 0.  0.
        -12    1    1    2    0    0 -0.89697454131E+00 -0.15663286952E+02  0.10224290135E+02  0.18726431327E+02  0.00000000000E+00 0.  1.
         11    1    3    3    0    0  0.10265016066E+02 -0.12762404657E+02  0.14898735993E+02  0.22140954404E+02  0.51100000000E-03 0.  1.
        -11    1    3    3    0    0 -0.15491407787E+02  0.19635880684E+02 -0.29563729479E+02  0.38724225317E+02  0.51100000000E-03 0. -1.
         12    1    3    3    0    0  0.61233662622E+01  0.87898109248E+01  0.44407033506E+01  0.11596388952E+02  0.00000000000E+00 0. -1.
</event>
<event>
 7    1  0.1874105E-013  0.7246162E+02  0.7816164E-02  0.1226708E+00
        -11   -1    0    0    0    0  0.00000000000E+00  0.00000000000E+00  0.45593999997E+02  0.45594000000E+02  0.51100000000E-03 0.  1.
         11   -1    0    0    0    0 -0.00000000000E+00 -0.00000000000E+00 -0.45593999997E+02  0.45594000000E+02  0.51100000000E-03 0. -1.
    9900012    2    1    2    0    0 -0.60862130951E+01 -0.14496412989E+02 -0.10172975988E+02  0.72461617011E+02  0.70000060858E+02 0.  0.
        -12    1    1    2    0    0  0.60862130951E+01  0.14496412989E+02  0.10172975988E+02  0.18726382989E+02  0.00000000000E+00 0.  1.
         11    1    3    3    0    0  0.16578080349E+00 -0.12019507685E+02 -0.29367404349E+02  0.31732325580E+02  0.51100000000E-03 0. -1.
        -11    1    3    3    0    0  0.12646909335E+02  0.50714196250E+00  0.17394059543E+02  0.21511736711E+02  0.51100000000E-03 0.  1.
         12    1    3    3    0    0 -0.18898903234E+02 -0.29840472669E+01  0.18003688189E+01  0.19217554720E+02  0.00000000000E+00 0. -1.
</event>
<event>
 7    1  0.1874105E-013  0.7246166E+02  0.7816164E-02  0.1226708E+00
        -11   -1    0    0    0    0  0.00000000000E+00  0.00000000000E+00  0.45593999997E+02  0.45594000000E+02  0.51100000000E-03 0.  1.
         11   -1    0    0    0    0 -0.00000000000E+00 -0.00000000000E+00 -0.45593999997E+02  0.45594000000E+02  0.51100000000E-03 0. -1.
    9900012    2    1    2    0    0 -0.48854459197E+01  0.72659115982E+01 -0.16553392025E+02  0.72461659174E+02  0.70000115782E+02 0.  0.
        -12    1    1    2    0    0  0.48854459197E+01 -0.72659115982E+01  0.16553392025E+02  0.18726340826E+02  0.00000000000E+00 0.  1.
         11    1    3    3    0    0  0.29670966026E+02  0.23654430572E+01 -0.90419741521E+01  0.31108179674E+02  0.51100000000E-03 0. -1.
        -11    1    3    3    0    0 -0.26710736790E+02  0.12215066761E+02 -0.23936689614E+01  0.29468643797E+02  0.51100000000E-03 0.  1.
        -12    1    3    3    0    0 -0.78456751558E+01 -0.73145982204E+01 -0.51177489117E+01  0.11884835703E+02  0.00000000000E+00 0.  1.
</event>
<event>
 7    1  0.1874105E-013  0.7246160E+02  0.7816164E-02  0.1226708E+00
        -11   -1    0    0    0    0  0.00000000000E+00  0.00000000000E+00  0.45593999997E+02  0.45594000000E+02  0.51100000000E-03 0. -1.
         11   -1    0    0    0    0 -0.00000000000E+00 -0.00000000000E+00 -0.45593999997E+02  0.45594000000E+02  0.51100000000E-03 0.  1.
    9900012    2    1    2    0    0 -0.13885085577E+02 -0.12545475690E+02  0.70253974729E+00  0.72461598213E+02  0.70000036370E+02 0.  0.
        -12    1    1    2    0    0  0.13885085577E+02  0.12545475690E+02 -0.70253974729E+00  0.18726401787E+02  0.00000000000E+00 0.  1.
         11    1    3    3    0    0 -0.28075977966E+01 -0.19306285496E+01  0.17198367503E+02  0.17532648888E+02  0.51100000000E-03 0. -1.
        -11    1    3    3    0    0  0.10356862089E+02  0.27520707763E+01 -0.25856797309E+02  0.27989506126E+02  0.51100000000E-03 0.  1.
        -12    1    3    3    0    0 -0.21434349869E+02 -0.13366917917E+02  0.93609695524E+01  0.26939443199E+02  0.00000000000E+00 0.  1.
</event>
<event>
 7    1  0.1874105E-013  0.7246156E+02  0.7816164E-02  0.1226708E+00
        -11   -1    0    0    0    0  0.00000000000E+00  0.00000000000E+00  0.45593999997E+02  0.45594000000E+02  0.51100000000E-03 0. -1.
         11   -1    0    0    0    0 -0.00000000000E+00 -0.00000000000E+00 -0.45593999997E+02  0.45594000000E+02  0.51100000000E-03 0.  1.
    9900012    2    1    2    0    0 -0.54783753187E+01 -0.38865508851E+01 -0.17480323352E+02  0.72461559377E+02  0.69999985778E+02 0.  0.
        -12    1    1    2    0    0  0.54783753187E+01  0.38865508851E+01  0.17480323352E+02  0.18726440623E+02  0.00000000000E+00 0.  1.
         11    1    3    3    0    0  0.10289946687E+02  0.50539712273E+01  0.41161733403E+01  0.12180661362E+02  0.51100000000E-03 0. -1.
        -11    1    3    3    0    0 -0.68449835134E+01  0.14322598370E+02 -0.30037442570E+02  0.33974086887E+02  0.51100000000E-03 0.  1.
        -12    1    3    3    0    0 -0.89233384919E+01 -0.23263120483E+02  0.84409458779E+01  0.26306811128E+02  0.00000000000E+00 0.  1.
</event>
<event>
 7    1  0.1874105E-013  0.7246159E+02  0.7816164E-02  0.1226708E+00
        -11   -1    0    0    0    0  0.00000000000E+00  0.00000000000E+00  0.45593999997E+02  0.45594000000E+02  0.51100000000E-03 0.  1.
         11   -1    0    0    0    0 -0.00000000000E+00 -0.00000000000E+00 -0.45593999997E+02  0.45594000000E+02  0.51100000000E-03 0. -1.
    9900012    2    1    2    0    0  0.13584628969E+02  0.11746460994E+02 -0.53063008940E+01  0.72461592996E+02  0.70000029573E+02 0.  0.
        -12    1    1    2    0    0 -0.13584628969E+02 -0.11746460994E+02  0.53063008940E+01  0.18726407004E+02  0.00000000000E+00 0.  1.
         11    1    3    3    0    0  0.67488822247E+01 -0.13184460644E+02  0.12427552148E+00  0.14811916096E+02  0.51100000000E-03 0. -1.
        -11    1    3    3    0    0  0.11305203289E+02  0.37376315396E+02 -0.14457118877E+02  0.41638982462E+02  0.51100000000E-03 0.  1.
        -12    1    3    3    0    0 -0.44694565445E+01 -0.12445393758E+02  0.90265424613E+01  0.16010694438E+02  0.00000000000E+00 0.  1.
</event>
<event>
 7    1  0.1874105E-013  0.7246187E+02  0.7816164E-02  0.1226707E+00
        -11   -1    0    0    0    0  0.00000000000E+00  0.00000000000E+00  0.45593999997E+02  0.45594000000E+02  0.51100000000E-03 0.  1.
         11   -1    0    0    0    0 -0.00000000000E+00 -0.00000000000E+00 -0.45593999997E+02  0.45594000000E+02  0.51100000000E-03 0. -1.
    9900012    2    1    2    0    0  0.11915254223E+02  0.13955466218E+02  0.37336017402E+01  0.72461865788E+02  0.70000384934E+02 0.  0.
        -12    1    1    2    0    0 -0.11915254223E+02 -0.13955466218E+02 -0.37336017402E+01  0.18726134212E+02  0.00000000000E+00 0.  1.
         11    1    3    3    0    0  0.19701767616E+01  0.24319639508E+02 -0.21508672009E+01  0.24493931743E+02  0.51100000000E-03 0. -1.
        -11    1    3    3    0    0  0.13258450930E+02 -0.25504201359E+02 -0.48013289555E+01  0.29142813317E+02  0.51100000000E-03 0.  1.
        -12    1    3    3    0    0 -0.33133734684E+01  0.15140028070E+02  0.10685797897E+02  0.18825120727E+02  0.00000000000E+00 0.  1.
</event>
<event>
 7    1  0.1874105E-013  0.7246154E+02  0.7816164E-02  0.1226708E+00
        -11   -1    0    0    0    0  0.00000000000E+00  0.00000000000E+00  0.45593999997E+02  0.45594000000E+02  0.51100000000E-03 0. -1.
         11   -1    0    0    0    0 -0.00000000000E+00 -0.00000000000E+00 -0.45593999997E+02  0.45594000000E+02  0.51100000000E-03 0.  1.
    9900012    2    1    2    0    0  0.74965469999E+01 -0.13299363894E+02  0.10844761526E+02  0.72461544130E+02  0.69999965916E+02 0.  0.
        -12    1    1    2    0    0 -0.74965469999E+01  0.13299363894E+02 -0.10844761526E+02  0.18726455870E+02  0.00000000000E+00 0.  1.
         11    1    3    3    0    0 -0.13887856540E+02  0.14367494197E+02 -0.88624045251E+01  0.21859543979E+02  0.51100000000E-03 0. -1.
        -11    1    3    3    0    0  0.26123738195E+02 -0.30925760649E+02  0.19266176604E+02  0.44833446557E+02  0.51100000000E-03 0.  1.
        -12    1    3    3    0    0 -0.47393346553E+01  0.32589025588E+01  0.44098944787E+00  0.57685535930E+01  0.00000000000E+00 0.  1.
</event>
<event>
 7    1  0.1874105E-013  0.7246146E+02  0.7816164E-02  0.1226708E+00
        -11   -1    0    0    0    0  0.00000000000E+00  0.00000000000E+00  0.45593999997E+02  0.45594000000E+02  0.51100000000E-03 0.  1.
         11   -1    0    0    0    0 -0.00000000000E+00 -0.00000000000E+00 -0.45593999997E+02  0.45594000000E+02  0.51100000000E-03 0. -1.
    9900012    2    1    2    0    0 -0.15456718471E+02 -0.10256902871E+02 -0.25630049707E+01  0.72461462763E+02  0.69999859920E+02 0.  0.
        -12    1    1    2    0    0  0.15456718471E+02  0.10256902871E+02  0.25630049707E+01  0.18726537237E+02  0.00000000000E+00 0.  1.
         11    1    3    3    0    0  0.27026868844E+01  0.15447064921E+01 -0.75802582577E+01  0.81945683264E+01  0.51100000000E-03 0. -1.
        -11    1    3    3    0    0 -0.21368294920E+02 -0.15956036026E+02  0.29185748041E+02  0.39534883362E+02  0.51100000000E-03 0.  1.
        -12    1    3    3    0    0  0.32088895639E+01  0.41544266627E+01 -0.24168494754E+02  0.24732011075E+02  0.00000000000E+00 0.  1.
</event>
<event>
 7    1  0.1874105E-013  0.7246158E+02  0.7816164E-02  0.1226708E+00
        -11   -1    0    0    0    0  0.00000000000E+00  0.00000000000E+00  0.45593999997E+02  0.45594000000E+02  0.51100000000E-03 0. -1.
         11   -1    0    0    0    0 -0.00000000000E+00 -0.00000000000E+00 -0.45593999997E+02  0.45594000000E+02  0.51100000000E-03 0.  1.
    9900012    2    1    2    0    0 -0.96962399686E+01  0.15370502572E+02 -0.45176816917E+01  0.72461578380E+02  0.70000010532E+02 0.  0.
        -12    1    1    2    0    0  0.96962399686E+01 -0.15370502572E+02  0.45176816917E+01  0.18726421620E+02  0.00000000000E+00 0.  1.
         11    1    3    3    0    0  0.91900511763E+01 -0.12391201895E+02  0.55163484716E+01  0.16383803763E+02  0.51100000000E-03 0. -1.
        -11    1    3    3    0    0 -0.10389444304E+02  0.14402595197E+02 -0.27353266490E+02  0.32612520438E+02  0.51100000000E-03 0.  1.
        -12    1    3    3    0    0 -0.84968468406E+01  0.13359109270E+02  0.17319236327E+02  0.23465254179E+02  0.00000000000E+00 0.  1.
</event>
<event>
 7    1  0.1874105E-013  0.7246158E+02  0.7816164E-02  0.1226708E+00
        -11   -1    0    0    0    0  0.00000000000E+00  0.00000000000E+00  0.45593999997E+02  0.45594000000E+02  0.51100000000E-03 0.  1.
         11   -1    0    0    0    0 -0.00000000000E+00 -0.00000000000E+00 -0.45593999997E+02  0.45594000000E+02  0.51100000000E-03 0. -1.
    9900012    2    1    2    0    0  0.84612408058E+01  0.78988501182E+01 -0.14720547723E+02  0.72461576038E+02  0.70000007482E+02 0.  0.
        -12    1    1    2    0    0 -0.84612408058E+01 -0.78988501182E+01  0.14720547723E+02  0.18726423962E+02  0.00000000000E+00 0.  1.
         11    1    3    3    0    0  0.32791293119E+02 -0.31361517746E+01 -0.16817370628E+02  0.36985514833E+02  0.51100000000E-03 0. -1.
        -11    1    3    3    0    0 -0.11388068233E+02  0.27475910218E+01 -0.10402435510E+02  0.15666780758E+02  0.51100000000E-03 0.  1.
         12    1    3    3    0    0 -0.12941984080E+02  0.82874108710E+01  0.12499258416E+02  0.19809280447E+02  0.00000000000E+00 0. -1.
</event>
<event>
 8    1  0.1874105E-013  0.7246165E+02  0.7816164E-02  0.1226708E+00
        -11   -1    0    0    0    0  0.00000000000E+00  0.00000000000E+00  0.45593999997E+02  0.45594000000E+02  0.51100000000E-03 0. -1.
         11   -1    0    0    0    0 -0.00000000000E+00 -0.00000000000E+00 -0.45593999997E+02  0.45594000000E+02  0.51100000000E-03 0.  1.
    9900012    2    1    2    0    0 -0.73931049014E+01  0.64655567322E+01  0.15944119368E+02  0.72461645139E+02  0.70000097499E+02 0.  0.
         24    2    3    3    0    0 -0.12839299888E+02  0.13672728554E+02 -0.53201386845E+00  0.53671559131E+02  0.50284809765E+02 0.  0.
        -12    1    1    2    0    0  0.73931049014E+01 -0.64655567322E+01 -0.15944119368E+02  0.18726354861E+02  0.00000000000E+00 0.  1.
         11    1    3    3    0    0  0.54461949867E+01 -0.72071718215E+01  0.16476133237E+02  0.18790086008E+02  0.51100000000E-03 0. -1.
        -11    1    4    4    0    0 -0.79486978575E+01  0.30180173260E+02  0.10839844181E+02  0.33038263843E+02  0.51100000000E-03 0.  1.
         12    1    4    4    0    0 -0.48906020306E+01 -0.16507444706E+02 -0.11371858049E+02  0.20633295288E+02  0.00000000000E+00 0. -1.
</event>
<event>
 7    1  0.1874105E-013  0.7246156E+02  0.7816164E-02  0.1226708E+00
        -11   -1    0    0    0    0  0.00000000000E+00  0.00000000000E+00  0.45593999997E+02  0.45594000000E+02  0.51100000000E-03 0.  1.
         11   -1    0    0    0    0 -0.00000000000E+00 -0.00000000000E+00 -0.45593999997E+02  0.45594000000E+02  0.51100000000E-03 0. -1.
    9900012    2    1    2    0    0 -0.37783941938E+01  0.14623541311E+02 -0.11070464427E+02  0.72461563986E+02  0.69999991782E+02 0.  0.
        -12    1    1    2    0    0  0.37783941938E+01 -0.14623541311E+02  0.11070464427E+02  0.18726436014E+02  0.00000000000E+00 0.  1.
         11    1    3    3    0    0 -0.43169350461E+01  0.13262140693E+02 -0.35073272030E+02  0.37744598490E+02  0.51100000000E-03 0. -1.
        -11    1    3    3    0    0 -0.53657340557E+01 -0.10191967467E+02  0.75851077139E+01  0.13791343738E+02  0.51100000000E-03 0.  1.
         12    1    3    3    0    0  0.59042749081E+01  0.11553368085E+02  0.16417699890E+02  0.20925621758E+02  0.00000000000E+00 0. -1.
</event>
<event>
 7    1  0.1874105E-013  0.7246163E+02  0.7816164E-02  0.1226708E+00
        -11   -1    0    0    0    0  0.00000000000E+00  0.00000000000E+00  0.45593999997E+02  0.45594000000E+02  0.51100000000E-03 0. -1.
         11   -1    0    0    0    0 -0.00000000000E+00 -0.00000000000E+00 -0.45593999997E+02  0.45594000000E+02  0.51100000000E-03 0.  1.
    9900012    2    1    2    0    0  0.12728288211E+02 -0.12551979011E+02  0.55781283428E+01  0.72461627855E+02  0.70000074984E+02 0.  0.
        -12    1    1    2    0    0 -0.12728288211E+02  0.12551979011E+02 -0.55781283428E+01  0.18726372145E+02  0.00000000000E+00 0.  1.
         11    1    3    3    0    0  0.17633738787E+02  0.74612747536E+01  0.12883816077E+02  0.23078389925E+02  0.51100000000E-03 0. -1.
        -11    1    3    3    0    0 -0.20337490550E+01 -0.34170071129E+02 -0.69770661558E+01  0.34934357709E+02  0.51100000000E-03 0.  1.
        -12    1    3    3    0    0 -0.28717015205E+01  0.14156817364E+02 -0.32862157832E+00  0.14448880221E+02  0.00000000000E+00 0.  1.
</event>
<event>
 7    1  0.1874105E-013  0.7246147E+02  0.7816164E-02  0.1226708E+00
        -11   -1    0    0    0    0  0.00000000000E+00  0.00000000000E+00  0.45593999997E+02  0.45594000000E+02  0.51100000000E-03 0. -1.
         11   -1    0    0    0    0 -0.00000000000E+00 -0.00000000000E+00 -0.45593999997E+02  0.45594000000E+02  0.51100000000E-03 0.  1.
    9900012    2    1    2    0    0  0.18182774939E+02 -0.14256352600E+01  0.42470290131E+01  0.72461468132E+02  0.69999866914E+02 0.  0.
        -12    1    1    2    0    0 -0.18182774939E+02  0.14256352600E+01 -0.42470290131E+01  0.18726531868E+02  0.00000000000E+00 0.  1.
         11    1    3    3    0    0  0.29177194797E+02 -0.17611107738E+02 -0.18925741081E+02  0.38982604937E+02  0.51100000000E-03 0.  1.
        -11    1    3    3    0    0 -0.32457326184E+01  0.13292984822E+02  0.20758608205E+02  0.24862784249E+02  0.51100000000E-03 0. -1.
         12    1    3    3    0    0 -0.77486872391E+01  0.28924876557E+01  0.24141618893E+01  0.86160789456E+01  0.00000000000E+00 0. -1.
</event>
<event>
 7    1  0.1874105E-013  0.7246152E+02  0.7816164E-02  0.1226708E+00
        -11   -1    0    0    0    0  0.00000000000E+00  0.00000000000E+00  0.45593999997E+02  0.45594000000E+02  0.51100000000E-03 0. -1.
         11   -1    0    0    0    0 -0.00000000000E+00 -0.00000000000E+00 -0.45593999997E+02  0.45594000000E+02  0.51100000000E-03 0.  1.
    9900012    2    1    2    0    0  0.11864126892E+02  0.14421988553E+02 -0.13891830278E+01  0.72461519012E+02  0.69999933195E+02 0.  0.
        -12    1    1    2    0    0 -0.11864126892E+02 -0.14421988553E+02  0.13891830278E+01  0.18726480988E+02  0.00000000000E+00 0.  1.
         11    1    3    3    0    0 -0.19789677536E+02  0.78377002629E+01 -0.72754562728E+01  0.22494291423E+02  0.51100000000E-03 0. -1.
        -11    1    3    3    0    0  0.21728341448E+02 -0.20933928122E+01 -0.14127159982E+02  0.26001533896E+02  0.51100000000E-03 0.  1.
         12    1    3    3    0    0  0.99254629792E+01  0.86776811018E+01  0.20013433227E+02  0.23965693693E+02  0.00000000000E+00 0. -1.
</event>
<event>
 7    1  0.1874105E-013  0.7246157E+02  0.7816164E-02  0.1226708E+00
        -11   -1    0    0    0    0  0.00000000000E+00  0.00000000000E+00  0.45593999997E+02  0.45594000000E+02  0.51100000000E-03 0.  1.
         11   -1    0    0    0    0 -0.00000000000E+00 -0.00000000000E+00 -0.45593999997E+02  0.45594000000E+02  0.51100000000E-03 0. -1.
    9900012    2    1    2    0    0  0.12649523300E+02 -0.94768251846E+01 -0.10042841919E+02  0.72461566034E+02  0.69999994450E+02 0.  0.
        -12    1    1    2    0    0 -0.12649523300E+02  0.94768251846E+01  0.10042841919E+02  0.18726433966E+02  0.00000000000E+00 0.  1.
         11    1    3    3    0    0  0.47361187225E+01 -0.23481846129E+02  0.11621420017E+01  0.23982879153E+02  0.51100000000E-03 0.  1.
        -11    1    3    3    0    0 -0.76822884183E+01  0.25594744787E+02 -0.11385749813E+02  0.29047268634E+02  0.51100000000E-03 0. -1.
         12    1    3    3    0    0  0.15595692996E+02 -0.11589723842E+02  0.18076589280E+00  0.19431418246E+02  0.00000000000E+00 0. -1.
</event>
<event>
 7    1  0.1874105E-013  0.7246153E+02  0.7816164E-02  0.1226708E+00
        -11   -1    0    0    0    0  0.00000000000E+00  0.00000000000E+00  0.45593999997E+02  0.45594000000E+02  0.51100000000E-03 0.  1.
         11   -1    0    0    0    0 -0.00000000000E+00 -0.00000000000E+00 -0.45593999997E+02  0.45594000000E+02  0.51100000000E-03 0. -1.
    9900012    2    1    2    0    0 -0.57000388064E+01 -0.12381776377E+02 -0.12840625698E+02  0.72461534851E+02  0.69999953829E+02 0.  0.
        -12    1    1    2    0    0  0.57000388064E+01  0.12381776377E+02  0.12840625698E+02  0.18726465149E+02  0.00000000000E+00 0.  1.
         11    1    3    3    0    0  0.41081497558E+01  0.53448974850E+01 -0.38606552377E+02  0.39190696731E+02  0.51100000000E-03 0. -1.
        -11    1    3    3    0    0 -0.31370781632E+01 -0.10191148316E+02  0.10346961773E+02  0.14858007322E+02  0.51100000000E-03 0.  1.
         12    1    3    3    0    0 -0.66711103990E+01 -0.75355255465E+01  0.15418964907E+02  0.18412830798E+02  0.00000000000E+00 0. -1.
</event>
<event>
 7    1  0.1874105E-013  0.7246157E+02  0.7816164E-02  0.1226708E+00
        -11   -1    0    0    0    0  0.00000000000E+00  0.00000000000E+00  0.45593999997E+02  0.45594000000E+02  0.51100000000E-03 0.  1.
         11   -1    0    0    0    0 -0.00000000000E+00 -0.00000000000E+00 -0.45593999997E+02  0.45594000000E+02  0.51100000000E-03 0. -1.
    9900012    2    1    2    0    0 -0.48229220372E+01 -0.16462110967E+02 -0.75111586336E+01  0.72461570055E+02  0.69999999689E+02 0.  0.
        -12    1    1    2    0    0  0.48229220372E+01  0.16462110967E+02  0.75111586336E+01  0.18726429945E+02  0.00000000000E+00 0.  1.
         11    1    3    3    0    0  0.10298396915E+01  0.21753241969E+02 -0.75940253580E+01  0.23063679832E+02  0.51100000000E-03 0. -1.
        -11    1    3    3    0    0 -0.14279871094E+02 -0.13415443498E+02  0.92243572106E+01  0.21655890860E+02  0.51100000000E-03 0.  1.
         12    1    3    3    0    0  0.84271093658E+01 -0.24799909438E+02 -0.91414904863E+01  0.27741999364E+02  0.00000000000E+00 0. -1.
</event>
<event>
 7    1  0.1874105E-013  0.7246157E+02  0.7816164E-02  0.1226708E+00
        -11   -1    0    0    0    0  0.00000000000E+00  0.00000000000E+00  0.45593999997E+02  0.45594000000E+02  0.51100000000E-03 0. -1.
         11   -1    0    0    0    0 -0.00000000000E+00 -0.00000000000E+00 -0.45593999997E+02  0.45594000000E+02  0.51100000000E-03 0.  1.
    9900012    2    1    2    0    0 -0.48700386794E+01 -0.16016396283E+02  0.83926676566E+01  0.72461572230E+02  0.70000002521E+02 0.  0.
        -12    1    1    2    0    0  0.48700386794E+01  0.16016396283E+02 -0.83926676566E+01  0.18726427770E+02  0.00000000000E+00 0.  1.
         11    1    3    3    0    0  0.34223101636E+01  0.13668967079E+02  0.28988651988E+02  0.32231891229E+02  0.51100000000E-03 0. -1.
        -11    1    3    3    0    0  0.46725858070E+01 -0.90790676243E+01 -0.62361038880E+01  0.11964594394E+02  0.51100000000E-03 0.  1.
         12    1    3    3    0    0 -0.12964934650E+02 -0.20606295738E+02 -0.14359880443E+02  0.28265086607E+02  0.00000000000E+00 0. -1.
</event>
<event>
 7    1  0.1874105E-013  0.7246159E+02  0.7816164E-02  0.1226708E+00
        -11   -1    0    0    0    0  0.00000000000E+00  0.00000000000E+00  0.45593999997E+02  0.45594000000E+02  0.51100000000E-03 0. -1.
         11   -1    0    0    0    0 -0.00000000000E+00 -0.00000000000E+00 -0.45593999997E+02  0.45594000000E+02  0.51100000000E-03 0.  1.
    9900012    2    1    2    0    0  0.28553573979E+01 -0.13804368699E+02  0.12327392945E+02  0.72461594102E+02  0.70000031014E+02 0.  0.
        -12    1    1    2    0    0 -0.28553573979E+01  0.13804368699E+02 -0.12327392945E+02  0.18726405898E+02  0.00000000000E+00 0.  1.
         11    1    3    3    0    0  0.12536758368E+02 -0.80658515377E+01 -0.17514669263E+02  0.22999824153E+02  0.51100000000E-03 0.  1.
        -11    1    3    3    0    0  0.11673808739E+02  0.18485156574E+01  0.22881878902E+02  0.25754129823E+02  0.51100000000E-03 0. -1.
        -12    1    3    3    0    0 -0.21355209709E+02 -0.75870328184E+01  0.69601833061E+01  0.23707640126E+02  0.00000000000E+00 0.  1.
</event>
<event>
 7    1  0.1874105E-013  0.7246154E+02  0.7816164E-02  0.1226708E+00
        -11   -1    0    0    0    0  0.00000000000E+00  0.00000000000E+00  0.45593999997E+02  0.45594000000E+02  0.51100000000E-03 0. -1.
         11   -1    0    0    0    0 -0.00000000000E+00 -0.00000000000E+00 -0.45593999997E+02  0.45594000000E+02  0.51100000000E-03 0.  1.
    9900012    2    1    2    0    0  0.84603827190E+01 -0.73359080558E+00  0.16690240743E+02  0.72461538314E+02  0.69999958340E+02 0.  0.
        -12    1    1    2    0    0 -0.84603827190E+01  0.73359080558E+00 -0.16690240743E+02  0.18726461686E+02  0.00000000000E+00 0.  1.
         11    1    3    3    0    0  0.26799311569E+02 -0.30683141148E+01  0.26284874545E+02  0.37663142224E+02  0.51100000000E-03 0. -1.
        -11    1    3    3    0    0 -0.23056745056E+02 -0.10454048511E+01  0.57683421691E+00  0.23087639591E+02  0.51100000000E-03 0.  1.
         12    1    3    3    0    0  0.47178162064E+01  0.33801281603E+01 -0.10171468019E+02  0.11710756500E+02  0.00000000000E+00 0. -1.
</event>
<event>
 7    1  0.1874105E-013  0.7246157E+02  0.7816164E-02  0.1226708E+00
        -11   -1    0    0    0    0  0.00000000000E+00  0.00000000000E+00  0.45593999997E+02  0.45594000000E+02  0.51100000000E-03 0. -1.
         11   -1    0    0    0    0 -0.00000000000E+00 -0.00000000000E+00 -0.45593999997E+02  0.45594000000E+02  0.51100000000E-03 0.  1.
    9900012    2    1    2    0    0 -0.33407141312E+01  0.18251392218E+02 -0.25309425922E+01  0.72461565229E+02  0.69999993402E+02 0.  0.
        -12    1    1    2    0    0  0.33407141312E+01 -0.18251392218E+02  0.25309425922E+01  0.18726434771E+02  0.00000000000E+00 0.  1.
         11    1    3    3    0    0  0.12233394921E+02 -0.48784339523E+01  0.91730263892E+01  0.16049905997E+02  0.51100000000E-03 0. -1.
        -11    1    3    3    0    0 -0.23844941900E+02  0.17742992238E+02  0.10970525349E+02  0.31681973651E+02  0.51100000000E-03 0.  1.
        -12    1    3    3    0    0  0.82708328480E+01  0.53868339325E+01 -0.22674494330E+02  0.24729685581E+02  0.00000000000E+00 0.  1.
</event>
<event>
 7    1  0.1874105E-013  0.7246159E+02  0.7816164E-02  0.1226708E+00
        -11   -1    0    0    0    0  0.00000000000E+00  0.00000000000E+00  0.45593999997E+02  0.45594000000E+02  0.51100000000E-03 0.  1.
         11   -1    0    0    0    0 -0.00000000000E+00 -0.00000000000E+00 -0.45593999997E+02  0.45594000000E+02  0.51100000000E-03 0. -1.
    9900012    2    1    2    0    0  0.16827388976E+01  0.21087250335E+01 -0.18531059848E+02  0.72461587889E+02  0.70000022920E+02 0.  0.
        -12    1    1    2    0    0 -0.16827388976E+01 -0.21087250335E+01  0.18531059848E+02  0.18726412111E+02  0.00000000000E+00 0.  1.
         11    1    3    3    0    0  0.46254818161E+00  0.12707984885E+02 -0.12418347903E+01  0.12776892603E+02  0.51100000000E-03 0. -1.
        -11    1    3    3    0    0 -0.43013434703E+01 -0.24272334576E+02  0.11604731388E+02  0.27245505542E+02  0.51100000000E-03 0.  1.
        -12    1    3    3    0    0  0.55215341862E+01  0.13673074724E+02 -0.28893956446E+02  0.32439189744E+02  0.00000000000E+00 0.  1.
</event>
<event>
 7    1  0.1874105E-013  0.7246165E+02  0.7816164E-02  0.1226708E+00
        -11   -1    0    0    0    0  0.00000000000E+00  0.00000000000E+00  0.45593999997E+02  0.45594000000E+02  0.51100000000E-03 0. -1.
         11   -1    0    0    0    0 -0.00000000000E+00 -0.00000000000E+00 -0.45593999997E+02  0.45594000000E+02  0.51100000000E-03 0.  1.
    9900012    2    1    2    0    0  0.59082345549E+01 -0.15011088067E+02  0.95097982473E+01  0.72461647894E+02  0.70000101087E+02 0.  0.
        -12    1    1    2    0    0 -0.59082345549E+01  0.15011088067E+02 -0.95097982473E+01  0.18726352106E+02  0.00000000000E+00 0.  1.
         11    1    3    3    0    0 -0.91987847363E+01 -0.24494944732E+02  0.34342212298E+00  0.26167496958E+02  0.51100000000E-03 0. -1.
        -11    1    3    3    0    0 -0.49557731023E+01  0.21410778369E+02  0.32511755639E+01  0.22216013598E+02  0.51100000000E-03 0.  1.
         12    1    3    3    0    0  0.20062792394E+02 -0.11926921703E+02  0.59152005604E+01  0.24078137337E+02  0.00000000000E+00 0. -1.
</event>
<event>
 7    1  0.2462604E-013  0.7246157E+02  0.7816164E-02  0.1226708E+00
        -11   -1    0    0    0    0  0.00000000000E+00  0.00000000000E+00  0.45593999997E+02  0.45594000000E+02  0.51100000000E-03 0. -1.
         11   -1    0    0    0    0 -0.00000000000E+00 -0.00000000000E+00 -0.45593999997E+02  0.45594000000E+02  0.51100000000E-03 0.  1.
    9900012    2    1    2    0    0  0.64279823494E+01 -0.36346806633E+01  0.17208987538E+02  0.72461571812E+02  0.70000001977E+02 0.  0.
        -12    1    1    2    0    0 -0.64279823494E+01  0.36346806633E+01 -0.17208987538E+02  0.18726428188E+02  0.00000000000E+00 0.  1.
         11    1    3    3    0    0  0.11734488252E+02  0.18782064758E+02  0.13696884286E+02  0.26039754425E+02  0.51100000000E-03 0. -1.
        -11    1    3    3    0    0  0.80660915065E+01 -0.29854741464E+02  0.12210154423E+01  0.30949285921E+02  0.51100000000E-03 0.  1.
        -12    1    3    3    0    0 -0.13372597409E+02  0.74379960429E+01  0.22910878097E+01  0.15472531466E+02  0.00000000000E+00 0.  1.
</event>
<event>
 7    1  0.1874105E-013  0.7246141E+02  0.7816164E-02  0.1226708E+00
        -11   -1    0    0    0    0  0.00000000000E+00  0.00000000000E+00  0.45593999997E+02  0.45594000000E+02  0.51100000000E-03 0.  1.
         11   -1    0    0    0    0 -0.00000000000E+00 -0.00000000000E+00 -0.45593999997E+02  0.45594000000E+02  0.51100000000E-03 0. -1.
    9900012    2    1    2    0    0  0.75648494424E-01 -0.11118053476E+02 -0.15068781853E+02  0.72461414024E+02  0.69999796428E+02 0.  0.
        -12    1    1    2    0    0 -0.75648494424E-01  0.11118053476E+02  0.15068781853E+02  0.18726585976E+02  0.00000000000E+00 0.  1.
         11    1    3    3    0    0  0.44256136311E+01  0.84042723292E+01 -0.12364183111E+02  0.15591371770E+02  0.51100000000E-03 0. -1.
        -11    1    3    3    0    0  0.65138138330E+01 -0.36198030997E+02 -0.35459851608E+01  0.36949982811E+02  0.51100000000E-03 0.  1.
        -12    1    3    3    0    0 -0.10863778970E+02  0.16675705191E+02  0.84138641888E+00  0.19920059444E+02  0.00000000000E+00 0.  1.
</event>
<event>
 7    1  0.1874105E-013  0.7246158E+02  0.7816164E-02  0.1226708E+00
        -11   -1    0    0    0    0  0.00000000000E+00  0.00000000000E+00  0.45593999997E+02  0.45594000000E+02  0.51100000000E-03 0.  1.
         11   -1    0    0    0    0 -0.00000000000E+00 -0.00000000000E+00 -0.45593999997E+02  0.45594000000E+02  0.51100000000E-03 0. -1.
    9900012    2    1    2    0    0  0.60489183769E+01 -0.16218964022E+02  0.71438593701E+01  0.72461576578E+02  0.70000008186E+02 0.  0.
        -12    1    1    2    0    0 -0.60489183769E+01  0.16218964022E+02 -0.71438593701E+01  0.18726423422E+02  0.00000000000E+00 0.  1.
         11    1    3    3    0    0  0.20263972038E+02 -0.10828868809E+02  0.25918693369E+02  0.34636276195E+02  0.51100000000E-03 0.  1.
        -11    1    3    3    0    0 -0.12114784768E+01  0.88801641908E+01 -0.15974558730E+02  0.18316973632E+02  0.51100000000E-03 0. -1.
        -12    1    3    3    0    0 -0.13003575184E+02 -0.14270259404E+02 -0.28002752696E+01  0.19508326751E+02  0.00000000000E+00 0.  1.
</event>
<event>
 7    1  0.1874105E-013  0.7246157E+02  0.7816164E-02  0.1226708E+00
        -11   -1    0    0    0    0  0.00000000000E+00  0.00000000000E+00  0.45593999997E+02  0.45594000000E+02  0.51100000000E-03 0.  1.
         11   -1    0    0    0    0 -0.00000000000E+00 -0.00000000000E+00 -0.45593999997E+02  0.45594000000E+02  0.51100000000E-03 0. -1.
    9900012    2    1    2    0    0  0.73274521079E+01 -0.53868550613E+01 -0.16369773978E+02  0.72461567827E+02  0.69999996785E+02 0.  0.
        -12    1    1    2    0    0 -0.73274521079E+01  0.53868550613E+01  0.16369773978E+02  0.18726432173E+02  0.00000000000E+00 0.  1.
         11    1    3    3    0    0  0.76930333505E+01  0.40884256552E+01 -0.96196486042E+01  0.12978275155E+02  0.51100000000E-03 0. -1.
        -11    1    3    3    0    0 -0.32237580603E+01 -0.26811781205E+02 -0.23059021300E+02  0.35510318092E+02  0.51100000000E-03 0.  1.
        -12    1    3    3    0    0  0.28581768177E+01  0.17336500488E+02  0.16308895926E+02  0.23972974580E+02  0.00000000000E+00 0.  1.
</event>
<event>
 7    1  0.1874105E-013  0.7246180E+02  0.7816164E-02  0.1226707E+00
        -11   -1    0    0    0    0  0.00000000000E+00  0.00000000000E+00  0.45593999997E+02  0.45594000000E+02  0.51100000000E-03 0.  1.
         11   -1    0    0    0    0 -0.00000000000E+00 -0.00000000000E+00 -0.45593999997E+02  0.45594000000E+02  0.51100000000E-03 0. -1.
    9900012    2    1    2    0    0  0.89680895704E+00  0.10902118465E+02 -0.15199021206E+02  0.72461796462E+02  0.70000294624E+02 0.  0.
        -12    1    1    2    0    0 -0.89680895704E+00 -0.10902118465E+02  0.15199021206E+02  0.18726203538E+02  0.00000000000E+00 0.  1.
         11    1    3    3    0    0 -0.15827219047E+02  0.59792151895E+01 -0.23561166149E+02  0.29006558355E+02  0.51100000000E-03 0. -1.
        -11    1    3    3    0    0  0.67427153942E+01 -0.16990917143E+02  0.60930777793E+01  0.19268655203E+02  0.51100000000E-03 0.  1.
        -12    1    3    3    0    0  0.99813126103E+01  0.21913820418E+02  0.22690671635E+01  0.24186582903E+02  0.00000000000E+00 0.  1.
</event>
<event>
 7    1  0.1995783E-013  0.7246156E+02  0.7816164E-02  0.1226708E+00
        -11   -1    0    0    0    0  0.00000000000E+00  0.00000000000E+00  0.45593999997E+02  0.45594000000E+02  0.51100000000E-03 0. -1.
         11   -1    0    0    0    0 -0.00000000000E+00 -0.00000000000E+00 -0.45593999997E+02  0.45594000000E+02  0.51100000000E-03 0.  1.
    9900012    2    1    2    0    0 -0.99034077667E+01 -0.12218693740E+02  0.10163939168E+02  0.72461558226E+02  0.69999984279E+02 0.  0.
        -12    1    1    2    0    0  0.99034077667E+01  0.12218693740E+02 -0.10163939168E+02  0.18726441774E+02  0.00000000000E+00 0.  1.
         11    1    3    3    0    0  0.62406723596E+01 -0.13568843697E+01  0.17525023641E+02  0.18652441679E+02  0.51100000000E-03 0. -1.
        -11    1    3    3    0    0 -0.16051387623E+02  0.17333939350E+02 -0.96525170498E+01  0.25520258299E+02  0.51100000000E-03 0.  1.
        -12    1    3    3    0    0 -0.92692503721E-01 -0.28195748720E+02  0.22914325763E+01  0.28288858249E+02  0.00000000000E+00 0.  1.
</event>
<event>
 7    1  0.1874105E-013  0.7246171E+02  0.7816164E-02  0.1226708E+00
        -11   -1    0    0    0    0  0.00000000000E+00  0.00000000000E+00  0.45593999997E+02  0.45594000000E+02  0.51100000000E-03 0.  1.
         11   -1    0    0    0    0 -0.00000000000E+00 -0.00000000000E+00 -0.45593999997E+02  0.45594000000E+02  0.51100000000E-03 0. -1.
    9900012    2    1    2    0    0  0.98048919635E+01 -0.13884401517E+02  0.78588500531E+01  0.72461707360E+02  0.70000178553E+02 0.  0.
        -12    1    1    2    0    0 -0.98048919635E+01  0.13884401517E+02 -0.78588500531E+01  0.18726292640E+02  0.00000000000E+00 0.  1.
         11    1    3    3    0    0  0.27732956430E+02 -0.18513513023E+02 -0.11313428758E+02  0.35211655845E+02  0.51100000000E-03 0. -1.
        -11    1    3    3    0    0 -0.15138110018E+02  0.14078571836E+02  0.75380151975E+01  0.22004323058E+02  0.51100000000E-03 0.  1.
         12    1    3    3    0    0 -0.27899544482E+01 -0.94494603301E+01  0.11634263614E+02  0.15245728457E+02  0.00000000000E+00 0. -1.
</event>
<event>
 7    1  0.1874105E-013  0.7246159E+02  0.7816164E-02  0.1226708E+00
        -11   -1    0    0    0    0  0.00000000000E+00  0.00000000000E+00  0.45593999997E+02  0.45594000000E+02  0.51100000000E-03 0.  1.
         11   -1    0    0    0    0 -0.00000000000E+00 -0.00000000000E+00 -0.45593999997E+02  0.45594000000E+02  0.51100000000E-03 0. -1.
    9900012    2    1    2    0    0 -0.87234253609E+01 -0.15555339706E+02  0.57106593324E+01  0.72461591550E+02  0.70000027690E+02 0.  0.
        -12    1    1    2    0    0  0.87234253609E+01  0.15555339706E+02 -0.57106593324E+01  0.18726408450E+02  0.00000000000E+00 0.  1.
         11    1    3    3    0    0  0.23483683193E+01 -0.32935904414E+02 -0.91820318856E+01  0.34272413734E+02  0.51100000000E-03 0. -1.
        -11    1    3    3    0    0 -0.14006078140E+02 -0.20510315506E+01  0.11363899946E+01  0.14200997773E+02  0.51100000000E-03 0.  1.
         12    1    3    3    0    0  0.29342844595E+01  0.19431596258E+02  0.13756301223E+02  0.23988180043E+02  0.00000000000E+00 0. -1.
</event>
<event>
 7    1  0.1874105E-013  0.7246154E+02  0.7816164E-02  0.1226708E+00
        -11   -1    0    0    0    0  0.00000000000E+00  0.00000000000E+00  0.45593999997E+02  0.45594000000E+02  0.51100000000E-03 0.  1.
         11   -1    0    0    0    0 -0.00000000000E+00 -0.00000000000E+00 -0.45593999997E+02  0.45594000000E+02  0.51100000000E-03 0. -1.
    9900012    2    1    2    0    0 -0.15563839638E+02  0.27830086295E-01 -0.10413768744E+02  0.72461535885E+02  0.69999955175E+02 0.  0.
        -12    1    1    2    0    0  0.15563839638E+02 -0.27830086295E-01  0.10413768744E+02  0.18726464115E+02  0.00000000000E+00 0.  1.
         11    1    3    3    0    0 -0.11540506671E+02  0.99982847719E+01 -0.24825247376E+02  0.29145186569E+02  0.51100000000E-03 0. -1.
        -11    1    3    3    0    0  0.15766350116E+02 -0.12780764685E+02  0.10847361017E+02  0.23012843875E+02  0.51100000000E-03 0.  1.
         12    1    3    3    0    0 -0.19789683083E+02  0.28103099999E+01  0.35641176141E+01  0.20303505441E+02  0.00000000000E+00 0. -1.
</event>
<event>
 7    1  0.1874105E-013  0.7246158E+02  0.7816164E-02  0.1226708E+00
        -11   -1    0    0    0    0  0.00000000000E+00  0.00000000000E+00  0.45593999997E+02  0.45594000000E+02  0.51100000000E-03 0.  1.
         11   -1    0    0    0    0 -0.00000000000E+00 -0.00000000000E+00 -0.45593999997E+02  0.45594000000E+02  0.51100000000E-03 0. -1.
    9900012    2    1    2    0    0  0.16107979028E+02 -0.76828965597E+01  0.56731622346E+01  0.72461583962E+02  0.70000017804E+02 0.  0.
        -12    1    1    2    0    0 -0.16107979028E+02  0.76828965597E+01 -0.56731622347E+01  0.18726416038E+02  0.00000000000E+00 0.  1.
         11    1    3    3    0    0 -0.10549081184E+02 -0.30705358018E+00 -0.14753393760E+02  0.18139460395E+02  0.51100000000E-03 0. -1.
        -11    1    3    3    0    0  0.30305411137E+02  0.10435608799E+02  0.14685502616E+02  0.35255976267E+02  0.51100000000E-03 0.  1.
        -12    1    3    3    0    0 -0.36483509261E+01 -0.17811451779E+02  0.57410533789E+01  0.19066147299E+02  0.00000000000E+00 0.  1.
</event>
<event>
 7    1  0.1874105E-013  0.7246156E+02  0.7816164E-02  0.1226708E+00
        -11   -1    0    0    0    0  0.00000000000E+00  0.00000000000E+00  0.45593999997E+02  0.45594000000E+02  0.51100000000E-03 0.  1.
         11   -1    0    0    0    0 -0.00000000000E+00 -0.00000000000E+00 -0.45593999997E+02  0.45594000000E+02  0.51100000000E-03 0. -1.
    9900012    2    1    2    0    0 -0.11042249551E+02  0.13543037169E+02 -0.67330779469E+01  0.72461562284E+02  0.69999989565E+02 0.  0.
        -12    1    1    2    0    0  0.11042249551E+02 -0.13543037169E+02  0.67330779469E+01  0.18726437716E+02  0.00000000000E+00 0.  1.
         11    1    3    3    0    0  0.48984131891E+01  0.17557720582E+02 -0.15628005486E+02  0.24010467707E+02  0.51100000000E-03 0. -1.
        -11    1    3    3    0    0 -0.14352374641E+02 -0.21555582774E+02 -0.45499156578E+01  0.26293260340E+02  0.51100000000E-03 0.  1.
        -12    1    3    3    0    0 -0.15882880992E+01  0.17540899361E+02  0.13444843197E+02  0.22157834236E+02  0.00000000000E+00 0.  1.
</event>
<event>
 7    1  0.1874105E-013  0.7246153E+02  0.7816164E-02  0.1226708E+00
        -11   -1    0    0    0    0  0.00000000000E+00  0.00000000000E+00  0.45593999997E+02  0.45594000000E+02  0.51100000000E-03 0.  1.
         11   -1    0    0    0    0 -0.00000000000E+00 -0.00000000000E+00 -0.45593999997E+02  0.45594000000E+02  0.51100000000E-03 0. -1.
    9900012    2    1    2    0    0  0.31777366502E+01  0.17748895863E+02  0.50556380934E+01  0.72461526997E+02  0.69999943598E+02 0.  0.
        -12    1    1    2    0    0 -0.31777366502E+01 -0.17748895863E+02 -0.50556380934E+01  0.18726473003E+02  0.00000000000E+00 0.  1.
         11    1    3    3    0    0 -0.14131310276E+00  0.71696759434E+01 -0.25632020623E+02  0.26616248871E+02  0.51100000000E-03 0. -1.
        -11    1    3    3    0    0  0.40043315513E+01 -0.10015258701E+02  0.19781875486E+02  0.22531370931E+02  0.51100000000E-03 0.  1.
         12    1    3    3    0    0 -0.68528179831E+00  0.20594478621E+02  0.10905783230E+02  0.23313907195E+02  0.00000000000E+00 0. -1.
</event>
<event>
 7    1  0.1874105E-013  0.7246160E+02  0.7816164E-02  0.1226708E+00
        -11   -1    0    0    0    0  0.00000000000E+00  0.00000000000E+00  0.45593999997E+02  0.45594000000E+02  0.51100000000E-03 0. -1.
         11   -1    0    0    0    0 -0.00000000000E+00 -0.00000000000E+00 -0.45593999997E+02  0.45594000000E+02  0.51100000000E-03 0.  1.
    9900012    2    1    2    0    0  0.10319414942E+02 -0.59689344087E+01  0.14441586448E+02  0.72461603607E+02  0.70000043396E+02 0.  0.
        -12    1    1    2    0    0 -0.10319414942E+02  0.59689344087E+01 -0.14441586448E+02  0.18726396393E+02  0.00000000000E+00 0.  1.
         11    1    3    3    0    0  0.44664324209E+01 -0.55687239642E+01 -0.53574175451E+01  0.89253363059E+01  0.51100000000E-03 0. -1.
        -11    1    3    3    0    0  0.44430267105E+01  0.20697016018E+02  0.32562433901E+02  0.38838370978E+02  0.51100000000E-03 0.  1.
        -12    1    3    3    0    0  0.14099558105E+01 -0.21097226462E+02 -0.12763429908E+02  0.24697896323E+02  0.00000000000E+00 0.  1.
</event>
<event>
 7    1  0.1874105E-013  0.7246156E+02  0.7816164E-02  0.1226708E+00
        -11   -1    0    0    0    0  0.00000000000E+00  0.00000000000E+00  0.45593999997E+02  0.45594000000E+02  0.51100000000E-03 0.  1.
         11   -1    0    0    0    0 -0.00000000000E+00 -0.00000000000E+00 -0.45593999997E+02  0.45594000000E+02  0.51100000000E-03 0. -1.
    9900012    2    1    2    0    0 -0.95542473031E-01  0.17619151078E+02 -0.63431888007E+01  0.72461557273E+02  0.69999983037E+02 0.  0.
        -12    1    1    2    0    0  0.95542473031E-01 -0.17619151078E+02  0.63431888007E+01  0.18726442727E+02  0.00000000000E+00 0.  1.
         11    1    3    3    0    0 -0.94391507222E+01 -0.15939332136E+01 -0.75780726485E+01  0.12209233177E+02  0.51100000000E-03 0. -1.
        -11    1    3    3    0    0 -0.61028063684E+01  0.33232273237E+02  0.13118171794E+02  0.36245201910E+02  0.51100000000E-03 0.  1.
        -12    1    3    3    0    0  0.15446414618E+02 -0.14019188945E+02 -0.11883287946E+02  0.24007122185E+02  0.00000000000E+00 0.  1.
</event>
<event>
 7    1  0.1874105E-013  0.7246152E+02  0.7816164E-02  0.1226708E+00
        -11   -1    0    0    0    0  0.00000000000E+00  0.00000000000E+00  0.45593999997E+02  0.45594000000E+02  0.51100000000E-03 0. -1.
         11   -1    0    0    0    0 -0.00000000000E+00 -0.00000000000E+00 -0.45593999997E+02  0.45594000000E+02  0.51100000000E-03 0.  1.
    9900012    2    1    2    0    0 -0.11227220938E+02  0.13076578244E+02  0.73235080081E+01  0.72461517199E+02  0.69999930833E+02 0.  0.
        -12    1    1    2    0    0  0.11227220938E+02 -0.13076578244E+02 -0.73235080081E+01  0.18726482801E+02  0.00000000000E+00 0.  1.
         11    1    3    3    0    0  0.10469841772E+02  0.16383216408E+02  0.19397726663E+02  0.27464507397E+02  0.51100000000E-03 0. -1.
        -11    1    3    3    0    0 -0.22544980019E+02 -0.17840359061E+02 -0.89075714237E+01  0.30098162143E+02  0.51100000000E-03 0.  1.
        -12    1    3    3    0    0  0.84791730853E+00  0.14533720897E+02 -0.31666472310E+01  0.14898847659E+02  0.00000000000E+00 0.  1.
</event>
<event>
 7    1  0.1874105E-013  0.7246168E+02  0.7816164E-02  0.1226708E+00
        -11   -1    0    0    0    0  0.00000000000E+00  0.00000000000E+00  0.45593999997E+02  0.45594000000E+02  0.51100000000E-03 0. -1.
         11   -1    0    0    0    0 -0.00000000000E+00 -0.00000000000E+00 -0.45593999997E+02  0.45594000000E+02  0.51100000000E-03 0.  1.
    9900012    2    1    2    0    0  0.14873608394E+02 -0.11366696761E+02  0.49896251762E+00  0.72461682009E+02  0.70000145529E+02 0.  0.
        -12    1    1    2    0    0 -0.14873608394E+02  0.11366696761E+02 -0.49896251762E+00  0.18726317991E+02  0.00000000000E+00 0.  1.
         11    1    3    3    0    0  0.18322422810E+02 -0.15560742985E+02 -0.13094032685E+02  0.27373373780E+02  0.51100000000E-03 0. -1.
        -11    1    3    3    0    0  0.96992591767E+01  0.14572616021E+02  0.20510783627E+02  0.26965329806E+02  0.51100000000E-03 0.  1.
        -12    1    3    3    0    0 -0.13148073593E+02 -0.10378569797E+02 -0.69177884249E+01  0.18122978423E+02  0.00000000000E+00 0.  1.
</event>
<event>
 7    1  0.1874105E-013  0.7246174E+02  0.7816164E-02  0.1226708E+00
        -11   -1    0    0    0    0  0.00000000000E+00  0.00000000000E+00  0.45593999997E+02  0.45594000000E+02  0.51100000000E-03 0.  1.
         11   -1    0    0    0    0 -0.00000000000E+00 -0.00000000000E+00 -0.45593999997E+02  0.45594000000E+02  0.51100000000E-03 0. -1.
    9900012    2    1    2    0    0 -0.14426849953E+02  0.49393599529E-01 -0.11938857029E+02  0.72461741792E+02  0.70000223408E+02 0.  0.
        -12    1    1    2    0    0  0.14426849953E+02 -0.49393599529E-01  0.11938857029E+02  0.18726258208E+02  0.00000000000E+00 0.  1.
         11    1    3    3    0    0 -0.62443800498E+01 -0.17880580052E+02 -0.27251818342E+02  0.33186880366E+02  0.51100000000E-03 0. -1.
        -11    1    3    3    0    0 -0.18180589436E+01 -0.82551217524E+01  0.72795624636E+01  0.11155465180E+02  0.51100000000E-03 0.  1.
         12    1    3    3    0    0 -0.63644109596E+01  0.26185095404E+02  0.80333988492E+01  0.28119396246E+02  0.00000000000E+00 0. -1.
</event>
<event>
 7    1  0.1874105E-013  0.7246168E+02  0.7816164E-02  0.1226708E+00
        -11   -1    0    0    0    0  0.00000000000E+00  0.00000000000E+00  0.45593999997E+02  0.45594000000E+02  0.51100000000E-03 0. -1.
         11   -1    0    0    0    0 -0.00000000000E+00 -0.00000000000E+00 -0.45593999997E+02  0.45594000000E+02  0.51100000000E-03 0.  1.
    9900012    2    1    2    0    0 -0.13540803037E+02  0.12934238276E+02  0.16533727634E+00  0.72461676199E+02  0.70000137960E+02 0.  0.
        -12    1    1    2    0    0  0.13540803037E+02 -0.12934238276E+02 -0.16533727634E+00  0.18726323801E+02  0.00000000000E+00 0.  1.
         11    1    3    3    0    0  0.26105245638E+01 -0.20839984881E+02  0.12973606390E+02  0.24686722572E+02  0.51100000000E-03 0. -1.
        -11    1    3    3    0    0  0.71678596086E+01  0.72676957951E+01  0.33544337705E-01  0.10207778359E+02  0.51100000000E-03 0.  1.
         12    1    3    3    0    0 -0.23319187210E+02  0.26506527362E+02 -0.12841813451E+02  0.37567175268E+02  0.00000000000E+00 0. -1.
</event>
<event>
 7    1  0.1874105E-013  0.7246155E+02  0.7816164E-02  0.1226708E+00
        -11   -1    0    0    0    0  0.00000000000E+00  0.00000000000E+00  0.45593999997E+02  0.45594000000E+02  0.51100000000E-03 0.  1.
         11   -1    0    0    0    0 -0.00000000000E+00 -0.00000000000E+00 -0.45593999997E+02  0.45594000000E+02  0.51100000000E-03 0. -1.
    9900012    2    1    2    0    0 -0.18539370296E+02  0.80631944781E+00  0.25142765907E+01  0.72461548420E+02  0.69999971504E+02 0.  0.
        -12    1    1    2    0    0  0.18539370296E+02 -0.80631944781E+00 -0.25142765907E+01  0.18726451580E+02  0.00000000000E+00 0.  1.
         11    1    3    3    0    0 -0.33422120174E+02 -0.81076595487E+01  0.14075159049E+02  0.37160225548E+02  0.51100000000E-03 0. -1.
        -11    1    3    3    0    0  0.10599206281E+02 -0.66267468999E+01  0.37685581641E+01  0.13055993993E+02  0.51100000000E-03 0.  1.
         12    1    3    3    0    0  0.42835435971E+01  0.15540725896E+02 -0.15329440622E+02  0.22245328879E+02  0.00000000000E+00 0. -1.
</event>
<event>
 7    1  0.1874105E-013  0.7246158E+02  0.7816164E-02  0.1226708E+00
        -11   -1    0    0    0    0  0.00000000000E+00  0.00000000000E+00  0.45593999997E+02  0.45594000000E+02  0.51100000000E-03 0.  1.
         11   -1    0    0    0    0 -0.00000000000E+00 -0.00000000000E+00 -0.45593999997E+02  0.45594000000E+02  0.51100000000E-03 0. -1.
    9900012    2    1    2    0    0 -0.22444666304E+01 -0.83318370372E+01 -0.16619914195E+02  0.72461583185E+02  0.70000016793E+02 0.  0.
        -12    1    1    2    0    0  0.22444666304E+01  0.83318370372E+01  0.16619914195E+02  0.18726416815E+02  0.00000000000E+00 0.  1.
         11    1    3    3    0    0  0.42610952668E+01 -0.45559667119E+01 -0.26992917700E+02  0.27704356549E+02  0.51100000000E-03 0. -1.
        -11    1    3    3    0    0 -0.21949247022E+02  0.84841341005E+01  0.81990320768E+01  0.24919351989E+02  0.51100000000E-03 0.  1.
        -12    1    3    3    0    0  0.15443685125E+02 -0.12260004426E+02  0.21739714278E+01  0.19837874648E+02  0.00000000000E+00 0.  1.
</event>
<event>
 7    1  0.1874105E-013  0.7246152E+02  0.7816164E-02  0.1226708E+00
        -11   -1    0    0    0    0  0.00000000000E+00  0.00000000000E+00  0.45593999997E+02  0.45594000000E+02  0.51100000000E-03 0. -1.
         11   -1    0    0    0    0 -0.00000000000E+00 -0.00000000000E+00 -0.45593999997E+02  0.45594000000E+02  0.51100000000E-03 0.  1.
    9900012    2    1    2    0    0  0.18163918983E+02  0.81628534691E-01  0.45548149775E+01  0.72461522607E+02  0.69999937879E+02 0.  0.
        -12    1    1    2    0    0 -0.18163918983E+02 -0.81628534691E-01 -0.45548149775E+01  0.18726477393E+02  0.00000000000E+00 0.  1.
         11    1    3    3    0    0 -0.82622902147E+01  0.21646873565E+02 -0.10724562544E+02  0.25531721774E+02  0.51100000000E-03 0. -1.
        -11    1    3    3    0    0  0.18192408107E+02 -0.11190415034E+02  0.23169960863E+02  0.31512476704E+02  0.51100000000E-03 0.  1.
        -12    1    3    3    0    0  0.82338010910E+01 -0.10374829997E+02 -0.78905833410E+01  0.15417324130E+02  0.00000000000E+00 0.  1.
</event>
<event>
 7    1  0.1874105E-013  0.7246158E+02  0.7816164E-02  0.1226708E+00
        -11   -1    0    0    0    0  0.00000000000E+00  0.00000000000E+00  0.45593999997E+02  0.45594000000E+02  0.51100000000E-03 0.  1.
         11   -1    0    0    0    0 -0.00000000000E+00 -0.00000000000E+00 -0.45593999997E+02  0.45594000000E+02  0.51100000000E-03 0. -1.
    9900012    2    1    2    0    0  0.51330987887E+01  0.10744729733E+02 -0.14452713800E+02  0.72461578655E+02  0.70000010892E+02 0.  0.
        -12    1    1    2    0    0 -0.51330987887E+01 -0.10744729733E+02  0.14452713800E+02  0.18726421345E+02  0.00000000000E+00 0.  1.
         11    1    3    3    0    0  0.25608594564E+02  0.23642662918E+02  0.42215934558E+01  0.35108367620E+02  0.51100000000E-03 0. -1.
        -11    1    3    3    0    0 -0.79124128682E+01 -0.17266073886E+02 -0.12064361778E+02  0.22500497999E+02  0.51100000000E-03 0.  1.
         12    1    3    3    0    0 -0.12563082907E+02  0.43681407006E+01 -0.66099454781E+01  0.14852713036E+02  0.00000000000E+00 0. -1.
</event>
<event>
 7    1  0.1874105E-013  0.7246157E+02  0.7816164E-02  0.1226708E+00
        -11   -1    0    0    0    0  0.00000000000E+00  0.00000000000E+00  0.45593999997E+02  0.45594000000E+02  0.51100000000E-03 0. -1.
         11   -1    0    0    0    0 -0.00000000000E+00 -0.00000000000E+00 -0.45593999997E+02  0.45594000000E+02  0.51100000000E-03 0.  1.
    9900012    2    1    2    0    0  0.11989671871E+02 -0.13615298234E+02  0.46422682414E+01  0.72461568626E+02  0.69999997826E+02 0.  0.
        -12    1    1    2    0    0 -0.11989671871E+02  0.13615298234E+02 -0.46422682414E+01  0.18726431374E+02  0.00000000000E+00 0.  1.
         11    1    3    3    0    0  0.19981035432E+02 -0.92301145113E+01  0.15761017041E+02  0.27071136830E+02  0.51100000000E-03 0. -1.
        -11    1    3    3    0    0 -0.23255671582E+02 -0.97233526997E+01  0.93116508035E+00  0.25223737176E+02  0.51100000000E-03 0.  1.
         12    1    3    3    0    0  0.15264308021E+02  0.53381689765E+01 -0.12049913880E+02  0.20166694620E+02  0.00000000000E+00 0. -1.
</event>
<event>
 7    1  0.1874105E-013  0.7246159E+02  0.7816164E-02  0.1226708E+00
        -11   -1    0    0    0    0  0.00000000000E+00  0.00000000000E+00  0.45593999997E+02  0.45594000000E+02  0.51100000000E-03 0.  1.
         11   -1    0    0    0    0 -0.00000000000E+00 -0.00000000000E+00 -0.45593999997E+02  0.45594000000E+02  0.51100000000E-03 0. -1.
    9900012    2    1    2    0    0  0.13463811570E+01 -0.16706697023E+02 -0.83517531594E+01  0.72461594887E+02  0.70000032036E+02 0.  0.
        -12    1    1    2    0    0 -0.13463811570E+01  0.16706697023E+02  0.83517531594E+01  0.18726405113E+02  0.00000000000E+00 0.  1.
         11    1    3    3    0    0 -0.18061499798E+02 -0.26074946622E+02 -0.38265335146E+01  0.31949381454E+02  0.51100000000E-03 0.  1.
        -11    1    3    3    0    0  0.11303838129E+02  0.15307714926E+02  0.11029662706E+02  0.21994461857E+02  0.51100000000E-03 0. -1.
         12    1    3    3    0    0  0.81040428261E+01 -0.59394653272E+01 -0.15554882351E+02  0.18517751576E+02  0.00000000000E+00 0. -1.
</event>
<event>
 7    1  0.1874105E-013  0.7246100E+02  0.7816164E-02  0.1226710E+00
        -11   -1    0    0    0    0  0.00000000000E+00  0.00000000000E+00  0.45593999997E+02  0.45594000000E+02  0.51100000000E-03 0.  1.
         11   -1    0    0    0    0 -0.00000000000E+00 -0.00000000000E+00 -0.45593999997E+02  0.45594000000E+02  0.51100000000E-03 0. -1.
    9900012    2    1    2    0    0 -0.10749467433E+02 -0.98752049962E+00 -0.15302751487E+02  0.72461002112E+02  0.69999259833E+02 0.  0.
        -12    1    1    2    0    0  0.10749467433E+02  0.98752049962E+00  0.15302751487E+02  0.18726997888E+02  0.00000000000E+00 0.  1.
         11    1    3    3    0    0 -0.27825531395E+02 -0.90072531294E+01 -0.10073426107E+02  0.30933230031E+02  0.51100000000E-03 0.  1.
        -11    1    3    3    0    0  0.11320874832E+02 -0.14144525833E+02 -0.42426583488E+01  0.18607255792E+02  0.51100000000E-03 0. -1.
         12    1    3    3    0    0  0.57551891298E+01  0.22164258462E+02 -0.98666703088E+00  0.22920516289E+02  0.00000000000E+00 0. -1.
</event>
<event>
 7    1  0.1874105E-013  0.7246156E+02  0.7816164E-02  0.1226708E+00
        -11   -1    0    0    0    0  0.00000000000E+00  0.00000000000E+00  0.45593999997E+02  0.45594000000E+02  0.51100000000E-03 0.  1.
         11   -1    0    0    0    0 -0.00000000000E+00 -0.00000000000E+00 -0.45593999997E+02  0.45594000000E+02  0.51100000000E-03 0. -1.
    9900012    2    1    2    0    0 -0.15771551690E+02 -0.10048619911E+02  0.98123272998E+00  0.72461563540E+02  0.69999991201E+02 0.  0.
        -12    1    1    2    0    0  0.15771551690E+02  0.10048619911E+02 -0.98123272998E+00  0.18726436460E+02  0.00000000000E+00 0.  1.
         11    1    3    3    0    0 -0.27644077441E+02 -0.16741624125E+02  0.13203227745E+02  0.34911347998E+02  0.51100000000E-03 0. -1.
        -11    1    3    3    0    0  0.40992432270E+01  0.18133372382E+02 -0.14442667006E+02  0.23541742066E+02  0.51100000000E-03 0.  1.
         12    1    3    3    0    0  0.77732825236E+01 -0.11440368169E+02  0.22206719910E+01  0.14008473476E+02  0.00000000000E+00 0. -1.
</event>
<event>
 7    1  0.1874105E-013  0.7246148E+02  0.7816164E-02  0.1226708E+00
        -11   -1    0    0    0    0  0.00000000000E+00  0.00000000000E+00  0.45593999997E+02  0.45594000000E+02  0.51100000000E-03 0. -1.
         11   -1    0    0    0    0 -0.00000000000E+00 -0.00000000000E+00 -0.45593999997E+02  0.45594000000E+02  0.51100000000E-03 0.  1.
    9900012    2    1    2    0    0 -0.15942331279E+02  0.41657078167E+01  0.88978473912E+01  0.72461475057E+02  0.69999875936E+02 0.  0.
        -12    1    1    2    0    0  0.15942331279E+02 -0.41657078167E+01 -0.88978473912E+01  0.18726524943E+02  0.00000000000E+00 0.  1.
         11    1    3    3    0    0 -0.20707971499E+02  0.22251175859E+02 -0.12069172491E+02  0.32704737204E+02  0.51100000000E-03 0.  1.
        -11    1    3    3    0    0  0.12386651617E+02 -0.21386030764E+02  0.19124925586E+02  0.31249867665E+02  0.51100000000E-03 0. -1.
        -12    1    3    3    0    0 -0.76210113977E+01  0.33005627225E+01  0.18420942957E+01  0.85068701885E+01  0.00000000000E+00 0.  1.
</event>
<event>
 7    1  0.1874105E-013  0.7246154E+02  0.7816164E-02  0.1226708E+00
        -11   -1    0    0    0    0  0.00000000000E+00  0.00000000000E+00  0.45593999997E+02  0.45594000000E+02  0.51100000000E-03 0. -1.
         11   -1    0    0    0    0 -0.00000000000E+00 -0.00000000000E+00 -0.45593999997E+02  0.45594000000E+02  0.51100000000E-03 0.  1.
    9900012    2    1    2    0    0 -0.17534096122E+02  0.56059363394E+01 -0.34364796314E+01  0.72461536337E+02  0.69999955764E+02 0.  0.
        -12    1    1    2    0    0  0.17534096122E+02 -0.56059363394E+01  0.34364796314E+01  0.18726463663E+02  0.00000000000E+00 0.  1.
         11    1    3    3    0    0 -0.64320581908E+00 -0.68883776678E+01  0.13165385962E+02  0.14872486289E+02  0.51100000000E-03 0. -1.
        -11    1    3    3    0    0  0.36761680740E+01  0.16446604039E+02 -0.28788287680E+02  0.33358214939E+02  0.51100000000E-03 0.  1.
        -12    1    3    3    0    0 -0.20567058377E+02 -0.39522900320E+01  0.12186422086E+02  0.24230835108E+02  0.00000000000E+00 0.  1.
</event>
<event>
 7    1  0.1874105E-013  0.7246159E+02  0.7816164E-02  0.1226708E+00
        -11   -1    0    0    0    0  0.00000000000E+00  0.00000000000E+00  0.45593999997E+02  0.45594000000E+02  0.51100000000E-03 0.  1.
         11   -1    0    0    0    0 -0.00000000000E+00 -0.00000000000E+00 -0.45593999997E+02  0.45594000000E+02  0.51100000000E-03 0. -1.
    9900012    2    1    2    0    0 -0.11070010566E+02  0.13336504628E+02 -0.70902106159E+01  0.72461586136E+02  0.70000020636E+02 0.  0.
        -12    1    1    2    0    0  0.11070010566E+02 -0.13336504628E+02  0.70902106159E+01  0.18726413864E+02  0.00000000000E+00 0.  1.
         11    1    3    3    0    0 -0.91968103153E+01 -0.19061880363E+02 -0.32232324342E+01  0.21408545736E+02  0.51100000000E-03 0. -1.
        -11    1    3    3    0    0 -0.43431712764E+01  0.27387916953E+02  0.14894842228E+02  0.31477253009E+02  0.51100000000E-03 0.  1.
        -12    1    3    3    0    0  0.24699710254E+01  0.50104680387E+01 -0.18761820410E+02  0.19575787390E+02  0.00000000000E+00 0.  1.
</event>
<event>
 7    1  0.1874105E-013  0.7246154E+02  0.7816164E-02  0.1226708E+00
        -11   -1    0    0    0    0  0.00000000000E+00  0.00000000000E+00  0.45593999997E+02  0.45594000000E+02  0.51100000000E-03 0. -1.
         11   -1    0    0    0    0 -0.00000000000E+00 -0.00000000000E+00 -0.45593999997E+02  0.45594000000E+02  0.51100000000E-03 0.  1.
    9900012    2    1    2    0    0 -0.17890362162E+02 -0.86310135329E+00 -0.54653762925E+01  0.72461539036E+02  0.69999959280E+02 0.  0.
        -12    1    1    2    0    0  0.17890362162E+02  0.86310135329E+00  0.54653762925E+01  0.18726460964E+02  0.00000000000E+00 0.  1.
         11    1    3    3    0    0  0.16059054004E+02  0.97091022747E+01  0.18866725323E+02  0.26610396599E+02  0.51100000000E-03 0. -1.
        -11    1    3    3    0    0 -0.20205109972E+02 -0.78693838329E+01 -0.23264948358E+02  0.31803010758E+02  0.51100000000E-03 0.  1.
        -12    1    3    3    0    0 -0.13744306194E+02 -0.27028197950E+01 -0.10671532573E+01  0.14048131679E+02  0.00000000000E+00 0.  1.
</event>
<event>
 7    1  0.1874105E-013  0.7246153E+02  0.7816164E-02  0.1226708E+00
        -11   -1    0    0    0    0  0.00000000000E+00  0.00000000000E+00  0.45593999997E+02  0.45594000000E+02  0.51100000000E-03 0.  1.
         11   -1    0    0    0    0 -0.00000000000E+00 -0.00000000000E+00 -0.45593999997E+02  0.45594000000E+02  0.51100000000E-03 0. -1.
    9900012    2    1    2    0    0  0.63875055748E+01 -0.10288159830E+02 -0.14284049480E+02  0.72461533977E+02  0.69999952690E+02 0.  0.
        -12    1    1    2    0    0 -0.63875055748E+01  0.10288159830E+02  0.14284049480E+02  0.18726466023E+02  0.00000000000E+00 0.  1.
         11    1    3    3    0    0  0.95858516027E+01 -0.29828689098E+02 -0.58165291050E+01  0.31866459724E+02  0.51100000000E-03 0. -1.
        -11    1    3    3    0    0 -0.13398793756E+02  0.19442253568E+02  0.45606014168E+01  0.24048450749E+02  0.51100000000E-03 0.  1.
         12    1    3    3    0    0  0.10200447728E+02  0.98275699747E-01 -0.13028121792E+02  0.16546623504E+02  0.00000000000E+00 0. -1.
</event>
<event>
 7    1  0.1874105E-013  0.7246156E+02  0.7816164E-02  0.1226708E+00
        -11   -1    0    0    0    0  0.00000000000E+00  0.00000000000E+00  0.45593999997E+02  0.45594000000E+02  0.51100000000E-03 0.  1.
         11   -1    0    0    0    0 -0.00000000000E+00 -0.00000000000E+00 -0.45593999997E+02  0.45594000000E+02  0.51100000000E-03 0. -1.
    9900012    2    1    2    0    0  0.15572585044E+02  0.68374768081E+01  0.78372865777E+01  0.72461560003E+02  0.69999986594E+02 0.  0.
        -12    1    1    2    0    0 -0.15572585044E+02 -0.68374768081E+01 -0.78372865777E+01  0.18726439997E+02  0.00000000000E+00 0.  1.
         11    1    3    3    0    0  0.34415094925E+02  0.60919151299E+00  0.36851090410E+01  0.34617190844E+02  0.51100000000E-03 0. -1.
        -11    1    3    3    0    0 -0.15192532938E+02 -0.10127550864E+02  0.90591844080E+01  0.20382570152E+02  0.51100000000E-03 0.  1.
         12    1    3    3    0    0 -0.36499769429E+01  0.16355836160E+02 -0.49070068713E+01  0.17461799008E+02  0.00000000000E+00 0. -1.
</event>
<event>
 7    1  0.1874105E-013  0.7246164E+02  0.7816164E-02  0.1226708E+00
        -11   -1    0    0    0    0  0.00000000000E+00  0.00000000000E+00  0.45593999997E+02  0.45594000000E+02  0.51100000000E-03 0.  1.
         11   -1    0    0    0    0 -0.00000000000E+00 -0.00000000000E+00 -0.45593999997E+02  0.45594000000E+02  0.51100000000E-03 0. -1.
    9900012    2    1    2    0    0 -0.18442729088E+02  0.31669602415E+01 -0.71598059490E+00  0.72461640995E+02  0.70000092100E+02 0.  0.
        -12    1    1    2    0    0  0.18442729088E+02 -0.31669602415E+01  0.71598059490E+00  0.18726359005E+02  0.00000000000E+00 0.  1.
         11    1    3    3    0    0  0.68498421295E+01 -0.85215609989E+01  0.48541412166E+01  0.11962442320E+02  0.51100000000E-03 0. -1.
        -11    1    3    3    0    0 -0.37835238403E+01  0.19163191497E+02  0.18825115873E+02  0.27127991980E+02  0.51100000000E-03 0.  1.
        -12    1    3    3    0    0 -0.21509047377E+02 -0.74746702568E+01 -0.24395237684E+02  0.33371206694E+02  0.00000000000E+00 0.  1.
</event>
<event>
 7    1  0.1874105E-013  0.7246159E+02  0.7816164E-02  0.1226708E+00
        -11   -1    0    0    0    0  0.00000000000E+00  0.00000000000E+00  0.45593999997E+02  0.45594000000E+02  0.51100000000E-03 0.  1.
         11   -1    0    0    0    0 -0.00000000000E+00 -0.00000000000E+00 -0.45593999997E+02  0.45594000000E+02  0.51100000000E-03 0. -1.
    9900012    2    1    2    0    0 -0.52658526727E+01 -0.13684074731E+02 -0.11648826395E+02  0.72461594526E+02  0.70000031566E+02 0.  0.
        -12    1    1    2    0    0  0.52658526727E+01  0.13684074731E+02  0.11648826395E+02  0.18726405474E+02  0.00000000000E+00 0.  1.
         11    1    3    3    0    0 -0.60943908003E+01 -0.17846960509E+02 -0.22434338046E+02  0.29307936169E+02  0.51100000000E-03 0. -1.
        -11    1    3    3    0    0 -0.80712942810E+01  0.21805634625E+01  0.24947008967E+02  0.26310718444E+02  0.51100000000E-03 0.  1.
         12    1    3    3    0    0  0.88998324087E+01  0.19823223161E+01 -0.14161497316E+02  0.16842939912E+02  0.00000000000E+00 0. -1.
</event>
<event>
 7    1  0.1874105E-013  0.7246158E+02  0.7816164E-02  0.1226708E+00
        -11   -1    0    0    0    0  0.00000000000E+00  0.00000000000E+00  0.45593999997E+02  0.45594000000E+02  0.51100000000E-03 0.  1.
         11   -1    0    0    0    0 -0.00000000000E+00 -0.00000000000E+00 -0.45593999997E+02  0.45594000000E+02  0.51100000000E-03 0. -1.
    9900012    2    1    2    0    0 -0.16934240109E+02 -0.18891673847E+01 -0.77679810819E+01  0.72461575580E+02  0.70000006886E+02 0.  0.
        -12    1    1    2    0    0  0.16934240109E+02  0.18891673847E+01  0.77679810819E+01  0.18726424420E+02  0.00000000000E+00 0.  1.
         11    1    3    3    0    0  0.13909593346E+02  0.78158093382E+01  0.10084254688E+02  0.18874741204E+02  0.51100000000E-03 0. -1.
        -11    1    3    3    0    0 -0.34110047725E+02 -0.95209747057E+01  0.23816344527E-01  0.35413908040E+02  0.51100000000E-03 0.  1.
        -12    1    3    3    0    0  0.32662142709E+01 -0.18400201713E+00 -0.17876052114E+02  0.18172926336E+02  0.00000000000E+00 0.  1.
</event>
<event>
 7    1  0.1874105E-013  0.7246155E+02  0.7816164E-02  0.1226708E+00
        -11   -1    0    0    0    0  0.00000000000E+00  0.00000000000E+00  0.45593999997E+02  0.45594000000E+02  0.51100000000E-03 0. -1.
         11   -1    0    0    0    0 -0.00000000000E+00 -0.00000000000E+00 -0.45593999997E+02  0.45594000000E+02  0.51100000000E-03 0.  1.
    9900012    2    1    2    0    0 -0.61945589418E+00 -0.15347346585E+02  0.10712375789E+02  0.72461554319E+02  0.69999979189E+02 0.  0.
        -12    1    1    2    0    0  0.61945589418E+00  0.15347346585E+02 -0.10712375789E+02  0.18726445681E+02  0.00000000000E+00 0.  1.
         11    1    3    3    0    0  0.20606251959E+02 -0.91935604449E+01  0.22195799138E+02  0.31651108560E+02  0.51100000000E-03 0. -1.
        -11    1    3    3    0    0 -0.11492198271E+02 -0.18927305059E+02 -0.21780210478E+01  0.22249882558E+02  0.51100000000E-03 0.  1.
         12    1    3    3    0    0 -0.97335095823E+01  0.12773518918E+02 -0.93054023012E+01  0.18560563201E+02  0.00000000000E+00 0. -1.
</event>
<event>
 7    1  0.1874105E-013  0.7246146E+02  0.7816164E-02  0.1226708E+00
        -11   -1    0    0    0    0  0.00000000000E+00  0.00000000000E+00  0.45593999997E+02  0.45594000000E+02  0.51100000000E-03 0.  1.
         11   -1    0    0    0    0 -0.00000000000E+00 -0.00000000000E+00 -0.45593999997E+02  0.45594000000E+02  0.51100000000E-03 0. -1.
    9900012    2    1    2    0    0 -0.17550781748E+02 -0.15804878112E+01  0.63368323067E+01  0.72461459332E+02  0.69999855451E+02 0.  0.
        -12    1    1    2    0    0  0.17550781748E+02  0.15804878112E+01 -0.63368323067E+01  0.18726540668E+02  0.00000000000E+00 0.  1.
         11    1    3    3    0    0  0.53427623948E+01  0.11914326384E+02 -0.15728580392E+02  0.20442224062E+02  0.51100000000E-03 0. -1.
        -11    1    3    3    0    0 -0.21658863825E+02 -0.25617184015E+02  0.10326860066E+02  0.35099722764E+02  0.51100000000E-03 0.  1.
        -12    1    3    3    0    0 -0.12346803179E+01  0.12122369819E+02  0.11738552633E+02  0.16919512506E+02  0.00000000000E+00 0.  1.
</event>
<event>
 7    1  0.1874105E-013  0.7246157E+02  0.7816164E-02  0.1226708E+00
        -11   -1    0    0    0    0  0.00000000000E+00  0.00000000000E+00  0.45593999997E+02  0.45594000000E+02  0.51100000000E-03 0. -1.
         11   -1    0    0    0    0 -0.00000000000E+00 -0.00000000000E+00 -0.45593999997E+02  0.45594000000E+02  0.51100000000E-03 0.  1.
    9900012    2    1    2    0    0  0.53334138410E+01  0.17696976076E+02  0.30084991548E+01  0.72461565940E+02  0.69999994328E+02 0.  0.
        -12    1    1    2    0    0 -0.53334138410E+01 -0.17696976076E+02 -0.30084991548E+01  0.18726434060E+02  0.00000000000E+00 0.  1.
         11    1    3    3    0    0  0.15047694032E+02 -0.15010161732E+01  0.97241017524E+01  0.17978996090E+02  0.51100000000E-03 0. -1.
        -11    1    3    3    0    0 -0.28336737440E+02  0.26995550499E+01  0.85115671562E+00  0.28477758940E+02  0.51100000000E-03 0.  1.
        -12    1    3    3    0    0  0.18622457249E+02  0.16498437199E+02 -0.75667593132E+01  0.26004810911E+02  0.00000000000E+00 0.  1.
</event>
<event>
 7    1  0.1874105E-013  0.7246162E+02  0.7816164E-02  0.1226708E+00
        -11   -1    0    0    0    0  0.00000000000E+00  0.00000000000E+00  0.45593999997E+02  0.45594000000E+02  0.51100000000E-03 0.  1.
         11   -1    0    0    0    0 -0.00000000000E+00 -0.00000000000E+00 -0.45593999997E+02  0.45594000000E+02  0.51100000000E-03 0. -1.
    9900012    2    1    2    0    0  0.15212752512E+02 -0.87905327215E+01  0.64788937430E+01  0.72461618378E+02  0.70000062637E+02 0.  0.
        -12    1    1    2    0    0 -0.15212752512E+02  0.87905327215E+01 -0.64788937430E+01  0.18726381622E+02  0.00000000000E+00 0.  1.
         11    1    3    3    0    0  0.13315020395E+02 -0.16095176292E+02 -0.98749949856E+01  0.23105410497E+02  0.51100000000E-03 0. -1.
        -11    1    3    3    0    0 -0.20866692025E+01 -0.93884574706E+01  0.27337797761E+02  0.28980208915E+02  0.51100000000E-03 0.  1.
        -12    1    3    3    0    0  0.39844013195E+01  0.16693101041E+02 -0.10983909033E+02  0.20375998966E+02  0.00000000000E+00 0.  1.
</event>
<event>
 7    1  0.1874105E-013  0.7246157E+02  0.7816164E-02  0.1226708E+00
        -11   -1    0    0    0    0  0.00000000000E+00  0.00000000000E+00  0.45593999997E+02  0.45594000000E+02  0.51100000000E-03 0. -1.
         11   -1    0    0    0    0 -0.00000000000E+00 -0.00000000000E+00 -0.45593999997E+02  0.45594000000E+02  0.51100000000E-03 0.  1.
    9900012    2    1    2    0    0  0.11635160489E+02 -0.13719957710E+02  0.52023873297E+01  0.72461573937E+02  0.70000004745E+02 0.  0.
        -12    1    1    2    0    0 -0.11635160489E+02  0.13719957710E+02 -0.52023873297E+01  0.18726426063E+02  0.00000000000E+00 0.  1.
         11    1    3    3    0    0  0.10228407982E+02 -0.32378151187E+00  0.48060667917E+01  0.11305902997E+02  0.51100000000E-03 0. -1.
        -11    1    3    3    0    0 -0.14832610305E+02  0.14470101393E+01 -0.24033629998E+02  0.28279242174E+02  0.51100000000E-03 0.  1.
        -12    1    3    3    0    0  0.16239362811E+02 -0.14843186338E+02  0.24429950536E+02  0.32876428765E+02  0.00000000000E+00 0.  1.
</event>
<event>
 7    1  0.1874105E-013  0.7246166E+02  0.7816164E-02  0.1226708E+00
        -11   -1    0    0    0    0  0.00000000000E+00  0.00000000000E+00  0.45593999997E+02  0.45594000000E+02  0.51100000000E-03 0.  1.
         11   -1    0    0    0    0 -0.00000000000E+00 -0.00000000000E+00 -0.45593999997E+02  0.45594000000E+02  0.51100000000E-03 0. -1.
    9900012    2    1    2    0    0 -0.16216831668E+02  0.93631815571E+01 -0.14453399179E+00  0.72461663244E+02  0.70000121085E+02 0.  0.
        -12    1    1    2    0    0  0.16216831668E+02 -0.93631815571E+01  0.14453399179E+00  0.18726336756E+02  0.00000000000E+00 0.  1.
         11    1    3    3    0    0 -0.15429793577E+02 -0.91655072580E+01 -0.28487496282E+02  0.33669310919E+02  0.51100000000E-03 0. -1.
        -11    1    3    3    0    0 -0.97514380049E+01  0.79249729831E+01  0.14467728921E+02  0.19162748246E+02  0.51100000000E-03 0.  1.
         12    1    3    3    0    0  0.89643999144E+01  0.10603715832E+02  0.13875233369E+02  0.19629604079E+02  0.00000000000E+00 0. -1.
</event>
<event>
 7    1  0.1874105E-013  0.7246152E+02  0.7816164E-02  0.1226708E+00
        -11   -1    0    0    0    0  0.00000000000E+00  0.00000000000E+00  0.45593999997E+02  0.45594000000E+02  0.51100000000E-03 0.  1.
         11   -1    0    0    0    0 -0.00000000000E+00 -0.00000000000E+00 -0.45593999997E+02  0.45594000000E+02  0.51100000000E-03 0. -1.
    9900012    2    1    2    0    0  0.14604411677E+01  0.89241796563E+01 -0.16398389769E+02  0.72461519872E+02  0.69999934316E+02 0.  0.
        -12    1    1    2    0    0 -0.14604411677E+01 -0.89241796563E+01  0.16398389769E+02  0.18726480128E+02  0.00000000000E+00 0.  1.
         11    1    3    3    0    0 -0.14876455588E+02 -0.90538622580E+01 -0.30462607629E+02  0.35089198003E+02  0.51100000000E-03 0. -1.
        -11    1    3    3    0    0  0.14039270749E+02 -0.11551563204E+01  0.10971135948E+02  0.17855008640E+02  0.51100000000E-03 0.  1.
         12    1    3    3    0    0  0.22976260067E+01  0.19133198235E+02  0.30930819120E+01  0.19517313229E+02  0.00000000000E+00 0. -1.
</event>
<event>
 7    1  0.1874105E-013  0.7246159E+02  0.7816164E-02  0.1226708E+00
        -11   -1    0    0    0    0  0.00000000000E+00  0.00000000000E+00  0.45593999997E+02  0.45594000000E+02  0.51100000000E-03 0. -1.
         11   -1    0    0    0    0 -0.00000000000E+00 -0.00000000000E+00 -0.45593999997E+02  0.45594000000E+02  0.51100000000E-03 0.  1.
    9900012    2    1    2    0    0 -0.15897241327E+02  0.93333352343E+01  0.32931924345E+01  0.72461586974E+02  0.70000021728E+02 0.  0.
        -12    1    1    2    0    0  0.15897241327E+02 -0.93333352343E+01 -0.32931924345E+01  0.18726413026E+02  0.00000000000E+00 0.  1.
         11    1    3    3    0    0 -0.17072256711E+02  0.31720680164E+02  0.13877962283E+02  0.38603903127E+02  0.51100000000E-03 0. -1.
        -11    1    3    3    0    0  0.77256828545E+01  0.10757656258E+01 -0.25602497924E+01  0.82096483792E+01  0.51100000000E-03 0.  1.
         12    1    3    3    0    0 -0.65506674707E+01 -0.23463110555E+02 -0.80245200556E+01  0.25648035468E+02  0.00000000000E+00 0. -1.
</event>
<event>
 7    1  0.1874105E-013  0.7246158E+02  0.7816164E-02  0.1226708E+00
        -11   -1    0    0    0    0  0.00000000000E+00  0.00000000000E+00  0.45593999997E+02  0.45594000000E+02  0.51100000000E-03 0.  1.
         11   -1    0    0    0    0 -0.00000000000E+00 -0.00000000000E+00 -0.45593999997E+02  0.45594000000E+02  0.51100000000E-03 0. -1.
    9900012    2    1    2    0    0 -0.87518518813E+00  0.89634083923E+01 -0.16418593061E+02  0.72461579167E+02  0.70000011558E+02 0.  0.
        -12    1    1    2    0    0  0.87518518813E+00 -0.89634083923E+01  0.16418593061E+02  0.18726420833E+02  0.00000000000E+00 0.  1.
         11    1    3    3    0    0 -0.24806560567E+02  0.76681245582E+01  0.97797351411E+01  0.27745428472E+02  0.51100000000E-03 0. -1.
        -11    1    3    3    0    0  0.26232234308E+02 -0.73664547660E+01 -0.20472931513E+02  0.34081310092E+02  0.51100000000E-03 0.  1.
         12    1    3    3    0    0 -0.23008589290E+01  0.86617386001E+01 -0.57253966891E+01  0.10634840602E+02  0.00000000000E+00 0. -1.
</event>
<event>
 7    1  0.1874105E-013  0.7246159E+02  0.7816164E-02  0.1226708E+00
        -11   -1    0    0    0    0  0.00000000000E+00  0.00000000000E+00  0.45593999997E+02  0.45594000000E+02  0.51100000000E-03 0.  1.
         11   -1    0    0    0    0 -0.00000000000E+00 -0.00000000000E+00 -0.45593999997E+02  0.45594000000E+02  0.51100000000E-03 0. -1.
    9900012    2    1    2    0    0  0.12466502997E+02 -0.63293581179E+01 -0.12458095211E+02  0.72461585302E+02  0.70000019550E+02 0.  0.
        -12    1    1    2    0    0 -0.12466502997E+02  0.63293581179E+01  0.12458095211E+02  0.18726414698E+02  0.00000000000E+00 0.  1.
         11    1    3    3    0    0  0.29917066298E+01  0.15196147478E+02  0.14098285796E+02  0.20943611660E+02  0.51100000000E-03 0. -1.
        -11    1    3    3    0    0  0.17895652484E+02 -0.15848707116E+02 -0.32041160731E+02  0.39975891189E+02  0.51100000000E-03 0.  1.
        -12    1    3    3    0    0 -0.84208561176E+01 -0.56767984797E+01  0.54847797237E+01  0.11542082453E+02  0.00000000000E+00 0.  1.
</event>
<event>
 7    1  0.1874105E-013  0.7246155E+02  0.7816164E-02  0.1226708E+00
        -11   -1    0    0    0    0  0.00000000000E+00  0.00000000000E+00  0.45593999997E+02  0.45594000000E+02  0.51100000000E-03 0. -1.
         11   -1    0    0    0    0 -0.00000000000E+00 -0.00000000000E+00 -0.45593999997E+02  0.45594000000E+02  0.51100000000E-03 0.  1.
    9900012    2    1    2    0    0  0.18626655280E+02 -0.14871228966E+00  0.19249813945E+01  0.72461549305E+02  0.69999972658E+02 0.  0.
        -12    1    1    2    0    0 -0.18626655280E+02  0.14871228966E+00 -0.19249813945E+01  0.18726450695E+02  0.00000000000E+00 0.  1.
         11    1    3    3    0    0  0.25576854966E+01  0.14586700081E+02 -0.10931437770E+02  0.18406789681E+02  0.51100000000E-03 0.  1.
        -11    1    3    3    0    0  0.13036431784E+02 -0.20383675551E+02  0.28359329299E+02  0.37278604335E+02  0.51100000000E-03 0. -1.
         12    1    3    3    0    0  0.30325379987E+01  0.56482631800E+01 -0.15502910134E+02  0.16776155289E+02  0.00000000000E+00 0. -1.
</event>
<event>
 7    1  0.1874105E-013  0.7246158E+02  0.7816164E-02  0.1226708E+00
        -11   -1    0    0    0    0  0.00000000000E+00  0.00000000000E+00  0.45593999997E+02  0.45594000000E+02  0.51100000000E-03 0.  1.
         11   -1    0    0    0    0 -0.00000000000E+00 -0.00000000000E+00 -0.45593999997E+02  0.45594000000E+02  0.51100000000E-03 0. -1.
    9900012    2    1    2    0    0  0.26361487193E+01 -0.16810217033E+02 -0.78195897890E+01  0.72461583866E+02  0.70000017680E+02 0.  0.
        -12    1    1    2    0    0 -0.26361487193E+01  0.16810217033E+02  0.78195897890E+01  0.18726416134E+02  0.00000000000E+00 0.  1.
         11    1    3    3    0    0  0.72889650412E+00 -0.16693347810E+02 -0.10076845112E+02  0.19512610254E+02  0.51100000000E-03 0. -1.
        -11    1    3    3    0    0 -0.22299498171E+02  0.12076597199E+02 -0.23015875698E+01  0.25463878813E+02  0.51100000000E-03 0.  1.
        -12    1    3    3    0    0  0.24206750386E+02 -0.12193466421E+02  0.45588428931E+01  0.27485094800E+02  0.00000000000E+00 0.  1.
</event>
<event>
 7    1  0.1874105E-013  0.7246173E+02  0.7816164E-02  0.1226708E+00
        -11   -1    0    0    0    0  0.00000000000E+00  0.00000000000E+00  0.45593999997E+02  0.45594000000E+02  0.51100000000E-03 0. -1.
         11   -1    0    0    0    0 -0.00000000000E+00 -0.00000000000E+00 -0.45593999997E+02  0.45594000000E+02  0.51100000000E-03 0.  1.
    9900012    2    1    2    0    0 -0.61479029240E+01 -0.11504097253E+02  0.13436233299E+02  0.72461726232E+02  0.70000203137E+02 0.  0.
        -12    1    1    2    0    0  0.61479029240E+01  0.11504097253E+02 -0.13436233299E+02  0.18726273768E+02  0.00000000000E+00 0.  1.
         11    1    3    3    0    0 -0.42323355266E+01  0.13210991414E+02  0.59995218344E+01  0.15114139759E+02  0.51100000000E-03 0. -1.
        -11    1    3    3    0    0  0.11995764084E+02 -0.34541449228E+02  0.13917765940E+02  0.39124343826E+02  0.51100000000E-03 0.  1.
        -12    1    3    3    0    0 -0.13911331482E+02  0.98263605613E+01 -0.64810544755E+01  0.18223242647E+02  0.00000000000E+00 0.  1.
</event>
<event>
 7    1  0.1874105E-013  0.7246161E+02  0.7816164E-02  0.1226708E+00
        -11   -1    0    0    0    0  0.00000000000E+00  0.00000000000E+00  0.45593999997E+02  0.45594000000E+02  0.51100000000E-03 0.  1.
         11   -1    0    0    0    0 -0.00000000000E+00 -0.00000000000E+00 -0.45593999997E+02  0.45594000000E+02  0.51100000000E-03 0. -1.
    9900012    2    1    2    0    0 -0.31626728617E+01  0.72247968619E+01 -0.16984620159E+02  0.72461614570E+02  0.70000057678E+02 0.  0.
        -12    1    1    2    0    0  0.31626728617E+01 -0.72247968619E+01  0.16984620159E+02  0.18726385430E+02  0.00000000000E+00 0.  1.
         11    1    3    3    0    0 -0.18375663957E+02  0.14053892445E+02 -0.14223050187E+02  0.27156437093E+02  0.51100000000E-03 0. -1.
        -11    1    3    3    0    0  0.25769111474E+02  0.28716665217E+01  0.82700730605E+01  0.27215577956E+02  0.51100000000E-03 0.  1.
         12    1    3    3    0    0 -0.10556120379E+02 -0.97007621046E+01 -0.11031643032E+02  0.18089599522E+02  0.00000000000E+00 0. -1.
</event>
<event>
 7    1  0.1874105E-013  0.7246167E+02  0.7816164E-02  0.1226708E+00
        -11   -1    0    0    0    0  0.00000000000E+00  0.00000000000E+00  0.45593999997E+02  0.45594000000E+02  0.51100000000E-03 0.  1.
         11   -1    0    0    0    0 -0.00000000000E+00 -0.00000000000E+00 -0.45593999997E+02  0.45594000000E+02  0.51100000000E-03 0. -1.
    9900012    2    1    2    0    0 -0.49955278443E+01 -0.10326973661E+02 -0.14801146183E+02  0.72461665287E+02  0.70000123745E+02 0.  0.
        -12    1    1    2    0    0  0.49955278443E+01  0.10326973661E+02  0.14801146183E+02  0.18726334713E+02  0.00000000000E+00 0.  1.
         11    1    3    3    0    0 -0.48180400626E+01  0.12798552818E+02  0.79366361325E+00  0.13698407443E+02  0.51100000000E-03 0. -1.
        -11    1    3    3    0    0 -0.19090363381E+02 -0.30773089710E+02 -0.11058690739E+02  0.37864490825E+02  0.51100000000E-03 0.  1.
        -12    1    3    3    0    0  0.18912875599E+02  0.76475632303E+01 -0.45361190581E+01  0.20898767019E+02  0.00000000000E+00 0.  1.
</event>
<event>
 7    1  0.1874105E-013  0.7246160E+02  0.7816164E-02  0.1226708E+00
        -11   -1    0    0    0    0  0.00000000000E+00  0.00000000000E+00  0.45593999997E+02  0.45594000000E+02  0.51100000000E-03 0. -1.
         11   -1    0    0    0    0 -0.00000000000E+00 -0.00000000000E+00 -0.45593999997E+02  0.45594000000E+02  0.51100000000E-03 0.  1.
    9900012    2    1    2    0    0  0.14712407599E+02 -0.39473953476E+01  0.10892251013E+02  0.72461601534E+02  0.70000040695E+02 0.  0.
        -12    1    1    2    0    0 -0.14712407599E+02  0.39473953476E+01 -0.10892251013E+02  0.18726398466E+02  0.00000000000E+00 0.  1.
         11    1    3    3    0    0  0.14424621232E+02  0.95768800803E+01  0.69452012792E+01  0.18655351801E+02  0.51100000000E-03 0. -1.
        -11    1    3    3    0    0  0.15154576057E+01 -0.33122144895E+02  0.71270856088E+01  0.33914133392E+02  0.51100000000E-03 0.  1.
        -12    1    3    3    0    0 -0.12276712386E+01  0.19597869467E+02 -0.31800358747E+01  0.19892116340E+02  0.00000000000E+00 0.  1.
</event>
<event>
 7    1  0.1874105E-013  0.7246153E+02  0.7816164E-02  0.1226708E+00
        -11   -1    0    0    0    0  0.00000000000E+00  0.00000000000E+00  0.45593999997E+02  0.45594000000E+02  0.51100000000E-03 0. -1.
         11   -1    0    0    0    0 -0.00000000000E+00 -0.00000000000E+00 -0.45593999997E+02  0.45594000000E+02  0.51100000000E-03 0.  1.
    9900012    2    1    2    0    0 -0.18560502856E+02  0.14411982289E+01  0.20276611055E+01  0.72461528679E+02  0.69999945788E+02 0.  0.
        -12    1    1    2    0    0  0.18560502856E+02 -0.14411982289E+01 -0.20276611055E+01  0.18726471321E+02  0.00000000000E+00 0.  1.
         11    1    3    3    0    0  0.32368300866E+01 -0.13357384467E+02  0.20847770315E+02  0.24970508929E+02  0.51100000000E-03 0. -1.
        -11    1    3    3    0    0  0.51438287300E+01  0.87774264209E+01 -0.17017167817E+02  0.19826401321E+02  0.51100000000E-03 0.  1.
        -12    1    3    3    0    0 -0.26941161672E+02  0.60211562745E+01 -0.18029413930E+01  0.27664618429E+02  0.00000000000E+00 0.  1.
</event>
<event>
 7    1  0.1874105E-013  0.7246161E+02  0.7816164E-02  0.1226708E+00
        -11   -1    0    0    0    0  0.00000000000E+00  0.00000000000E+00  0.45593999997E+02  0.45594000000E+02  0.51100000000E-03 0. -1.
         11   -1    0    0    0    0 -0.00000000000E+00 -0.00000000000E+00 -0.45593999997E+02  0.45594000000E+02  0.51100000000E-03 0.  1.
    9900012    2    1    2    0    0  0.62401123584E+00 -0.16444849924E+02  0.89361768855E+01  0.72461608560E+02  0.70000049848E+02 0.  0.
        -12    1    1    2    0    0 -0.62401123584E+00  0.16444849924E+02 -0.89361768855E+01  0.18726391440E+02  0.00000000000E+00 0.  1.
         11    1    3    3    0    0  0.95509664272E+01 -0.82348838224E+01 -0.82176194314E+01  0.15052027792E+02  0.51100000000E-03 0. -1.
        -11    1    3    3    0    0 -0.12860170116E+02 -0.17902193257E+02  0.32238164896E+02  0.39053447670E+02  0.51100000000E-03 0.  1.
        -12    1    3    3    0    0  0.39332149243E+01  0.96922271552E+01 -0.15084368579E+02  0.18356133098E+02  0.00000000000E+00 0.  1.
</event>
<event>
 7    1  0.1874105E-013  0.7246161E+02  0.7816164E-02  0.1226708E+00
        -11   -1    0    0    0    0  0.00000000000E+00  0.00000000000E+00  0.45593999997E+02  0.45594000000E+02  0.51100000000E-03 0. -1.
         11   -1    0    0    0    0 -0.00000000000E+00 -0.00000000000E+00 -0.45593999997E+02  0.45594000000E+02  0.51100000000E-03 0.  1.
    9900012    2    1    2    0    0 -0.57860828849E+01 -0.14799525259E+02  0.99082314707E+01  0.72461608091E+02  0.70000049238E+02 0.  0.
        -12    1    1    2    0    0  0.57860828849E+01  0.14799525259E+02 -0.99082314707E+01  0.18726391909E+02  0.00000000000E+00 0.  1.
         11    1    3    3    0    0 -0.18266924340E+02 -0.14743919550E+02  0.20845214382E+02  0.31394054396E+02  0.51100000000E-03 0. -1.
        -11    1    3    3    0    0  0.53512766788E+01 -0.95436546881E+01 -0.22172128380E+02  0.24724902104E+02  0.51100000000E-03 0.  1.
        -12    1    3    3    0    0  0.71295647759E+01  0.94880489797E+01  0.11235145468E+02  0.16342651591E+02  0.00000000000E+00 0.  1.
</event>
<event>
 7    1  0.1874105E-013  0.7246158E+02  0.7816164E-02  0.1226708E+00
        -11   -1    0    0    0    0  0.00000000000E+00  0.00000000000E+00  0.45593999997E+02  0.45594000000E+02  0.51100000000E-03 0. -1.
         11   -1    0    0    0    0 -0.00000000000E+00 -0.00000000000E+00 -0.45593999997E+02  0.45594000000E+02  0.51100000000E-03 0.  1.
    9900012    2    1    2    0    0  0.14456192518E+02  0.99725758019E+01  0.64996311658E+01  0.72461575473E+02  0.70000006747E+02 0.  0.
        -12    1    1    2    0    0 -0.14456192518E+02 -0.99725758019E+01 -0.64996311658E+01  0.18726424527E+02  0.00000000000E+00 0.  1.
         11    1    3    3    0    0  0.10974426791E+02 -0.26894399170E+02 -0.34918846902E+01  0.29256452434E+02  0.51100000000E-03 0. -1.
        -11    1    3    3    0    0  0.33315867207E+01  0.43592192820E+01 -0.49850473992E+01  0.74130264170E+01  0.51100000000E-03 0.  1.
         12    1    3    3    0    0  0.15017900719E+00  0.32507755689E+02  0.14976563255E+02  0.35792096622E+02  0.00000000000E+00 0. -1.
</event>
<event>
 7    1  0.1874105E-013  0.7246161E+02  0.7816164E-02  0.1226708E+00
        -11   -1    0    0    0    0  0.00000000000E+00  0.00000000000E+00  0.45593999997E+02  0.45594000000E+02  0.51100000000E-03 0.  1.
         11   -1    0    0    0    0 -0.00000000000E+00 -0.00000000000E+00 -0.45593999997E+02  0.45594000000E+02  0.51100000000E-03 0. -1.
    9900012    2    1    2    0    0  0.15226433588E+02  0.26644765124E+01 -0.10570426050E+02  0.72461611620E+02  0.70000053834E+02 0.  0.
        -12    1    1    2    0    0 -0.15226433588E+02 -0.26644765124E+01  0.10570426050E+02  0.18726388380E+02  0.00000000000E+00 0.  1.
         11    1    3    3    0    0 -0.43301027471E+01  0.31488804942E+02 -0.12757553667E+02  0.34249814631E+02  0.51100000000E-03 0. -1.
        -11    1    3    3    0    0  0.16552650432E+02 -0.20533214597E+02  0.81051288359E+01  0.27591597484E+02  0.51100000000E-03 0.  1.
         12    1    3    3    0    0  0.30038859031E+01 -0.82911138326E+01 -0.59180012184E+01  0.10620199505E+02  0.00000000000E+00 0. -1.
</event>
<event>
 7    1  0.1874105E-013  0.7246143E+02  0.7816164E-02  0.1226708E+00
        -11   -1    0    0    0    0  0.00000000000E+00  0.00000000000E+00  0.45593999997E+02  0.45594000000E+02  0.51100000000E-03 0. -1.
         11   -1    0    0    0    0 -0.00000000000E+00 -0.00000000000E+00 -0.45593999997E+02  0.45594000000E+02  0.51100000000E-03 0.  1.
    9900012    2    1    2    0    0  0.85005219369E+01  0.58633776365E+01  0.15621978765E+02  0.72461433549E+02  0.69999821863E+02 0.  0.
        -12    1    1    2    0    0 -0.85005219369E+01 -0.58633776365E+01 -0.15621978765E+02  0.18726566451E+02  0.00000000000E+00 0.  1.
         11    1    3    3    0    0  0.20138646796E+02 -0.12017714943E+01  0.95825857140E+01  0.22334621079E+02  0.51100000000E-03 0. -1.
        -11    1    3    3    0    0 -0.61989140164E+01  0.27254606921E+02  0.81410613046E+01  0.29112145452E+02  0.51100000000E-03 0.  1.
        -12    1    3    3    0    0 -0.54392108428E+01 -0.20189457790E+02 -0.21016682534E+01  0.21014667018E+02  0.00000000000E+00 0.  1.
</event>
<event>
 7    1  0.1874105E-013  0.7246148E+02  0.7816164E-02  0.1226708E+00
        -11   -1    0    0    0    0  0.00000000000E+00  0.00000000000E+00  0.45593999997E+02  0.45594000000E+02  0.51100000000E-03 0.  1.
         11   -1    0    0    0    0 -0.00000000000E+00 -0.00000000000E+00 -0.45593999997E+02  0.45594000000E+02  0.51100000000E-03 0. -1.
    9900012    2    1    2    0    0 -0.11972096039E+02  0.11758278383E+02 -0.83123126921E+01  0.72461475058E+02  0.69999875937E+02 0.  0.
        -12    1    1    2    0    0  0.11972096039E+02 -0.11758278383E+02  0.83123126921E+01  0.18726524942E+02  0.00000000000E+00 0.  1.
         11    1    3    3    0    0  0.13129755425E+02  0.22949563313E+02 -0.16901645622E+02  0.31380544271E+02  0.51100000000E-03 0. -1.
        -11    1    3    3    0    0 -0.74205623611E+01  0.69731676384E+00  0.16696202788E+02  0.18284260560E+02  0.51100000000E-03 0.  1.
         12    1    3    3    0    0 -0.17681289102E+02 -0.11888601694E+02 -0.81068698580E+01  0.22796670227E+02  0.00000000000E+00 0. -1.
</event>
<event>
 7    1  0.1874105E-013  0.7246179E+02  0.7816164E-02  0.1226707E+00
        -11   -1    0    0    0    0  0.00000000000E+00  0.00000000000E+00  0.45593999997E+02  0.45594000000E+02  0.51100000000E-03 0. -1.
         11   -1    0    0    0    0 -0.00000000000E+00 -0.00000000000E+00 -0.45593999997E+02  0.45594000000E+02  0.51100000000E-03 0.  1.
    9900012    2    1    2    0    0 -0.36325191771E+01 -0.11942680320E+02 -0.13958799575E+02  0.72461791244E+02  0.70000287828E+02 0.  0.
        -12    1    1    2    0    0  0.36325191771E+01  0.11942680320E+02  0.13958799575E+02  0.18726208756E+02  0.00000000000E+00 0.  1.
         11    1    3    3    0    0  0.92949073014E+01 -0.32890669726E+01  0.28102729264E+01  0.10252360581E+02  0.51100000000E-03 0. -1.
        -11    1    3    3    0    0 -0.27811776852E+02 -0.10877772570E+02 -0.29883553562E+02  0.42247457219E+02  0.51100000000E-03 0.  1.
        -12    1    3    3    0    0  0.14884350373E+02  0.22241592229E+01  0.13114481061E+02  0.19961973444E+02  0.00000000000E+00 0.  1.
</event>
<event>
 7    1  0.1874105E-013  0.7246155E+02  0.7816164E-02  0.1226708E+00
        -11   -1    0    0    0    0  0.00000000000E+00  0.00000000000E+00  0.45593999997E+02  0.45594000000E+02  0.51100000000E-03 0.  1.
         11   -1    0    0    0    0 -0.00000000000E+00 -0.00000000000E+00 -0.45593999997E+02  0.45594000000E+02  0.51100000000E-03 0. -1.
    9900012    2    1    2    0    0 -0.60487204573E+00  0.54089687716E+01 -0.17918068378E+02  0.72461548447E+02  0.69999971540E+02 0.  0.
        -12    1    1    2    0    0  0.60487204573E+00 -0.54089687716E+01  0.17918068378E+02  0.18726451553E+02  0.00000000000E+00 0.  1.
         11    1    3    3    0    0 -0.17721736780E+02  0.24360683720E+02 -0.10887019039E+02  0.32031703820E+02  0.51100000000E-03 0. -1.
        -11    1    3    3    0    0  0.15390848428E+02 -0.83429495313E+01 -0.17974305928E+02  0.25091008271E+02  0.51100000000E-03 0.  1.
        -12    1    3    3    0    0  0.17260163067E+01 -0.10608765417E+02  0.10943256590E+02  0.15338836356E+02  0.00000000000E+00 0.  1.
</event>
<event>
 7    1  0.1874105E-013  0.7246158E+02  0.7816164E-02  0.1226708E+00
        -11   -1    0    0    0    0  0.00000000000E+00  0.00000000000E+00  0.45593999997E+02  0.45594000000E+02  0.51100000000E-03 0.  1.
         11   -1    0    0    0    0 -0.00000000000E+00 -0.00000000000E+00 -0.45593999997E+02  0.45594000000E+02  0.51100000000E-03 0. -1.
    9900012    2    1    2    0    0 -0.70285169987E+01  0.16378505986E+02 -0.57465746212E+01  0.72461584715E+02  0.70000018786E+02 0.  0.
        -12    1    1    2    0    0  0.70285169987E+01 -0.16378505986E+02  0.57465746212E+01  0.18726415285E+02  0.00000000000E+00 0.  1.
         11    1    3    3    0    0 -0.12459990217E+02  0.39681042153E+02  0.47869582197E+01  0.41865874311E+02  0.51100000000E-03 0. -1.
        -11    1    3    3    0    0  0.49973902714E+01 -0.10703640942E+02  0.29102103585E+01  0.12165983871E+02  0.51100000000E-03 0.  1.
         12    1    3    3    0    0  0.43408294709E+00 -0.12598895225E+02 -0.13443743200E+02  0.18429726534E+02  0.00000000000E+00 0. -1.
</event>
<event>
 7    1  0.1874105E-013  0.7246159E+02  0.7816164E-02  0.1226708E+00
        -11   -1    0    0    0    0  0.00000000000E+00  0.00000000000E+00  0.45593999997E+02  0.45594000000E+02  0.51100000000E-03 0.  1.
         11   -1    0    0    0    0 -0.00000000000E+00 -0.00000000000E+00 -0.45593999997E+02  0.45594000000E+02  0.51100000000E-03 0. -1.
    9900012    2    1    2    0    0  0.46094366545E+01 -0.31878098093E+01 -0.17868109651E+02  0.72461591371E+02  0.70000027456E+02 0.  0.
        -12    1    1    2    0    0 -0.46094366545E+01  0.31878098093E+01  0.17868109651E+02  0.18726408629E+02  0.00000000000E+00 0.  1.
         11    1    3    3    0    0  0.18569002260E+02 -0.28351870115E+02 -0.39864723588E+01  0.34125186388E+02  0.51100000000E-03 0. -1.
        -11    1    3    3    0    0 -0.52136816178E+01  0.18177046362E+02  0.18809750591E+01  0.19003303868E+02  0.51100000000E-03 0.  1.
         12    1    3    3    0    0 -0.87458839874E+01  0.69870139431E+01 -0.15762612351E+02  0.19333101114E+02  0.00000000000E+00 0. -1.
</event>
<event>
 8    1  0.1874105E-013  0.7246159E+02  0.7816164E-02  0.1226708E+00
        -11   -1    0    0    0    0  0.00000000000E+00  0.00000000000E+00  0.45593999997E+02  0.45594000000E+02  0.51100000000E-03 0.  1.
         11   -1    0    0    0    0 -0.00000000000E+00 -0.00000000000E+00 -0.45593999997E+02  0.45594000000E+02  0.51100000000E-03 0. -1.
    9900012    2    1    2    0    0 -0.12333752654E+02  0.13709551592E+02 -0.32565539236E+01  0.72461590765E+02  0.70000026667E+02 0.  0.
        -24    2    3    3    0    0 -0.23050888306E+02  0.21669919999E+02  0.20244298627E+01  0.58104945900E+02  0.48694532931E+02 0.  0.
        -12    1    1    2    0    0  0.12333752654E+02 -0.13709551592E+02  0.32565539236E+01  0.18726409235E+02  0.00000000000E+00 0.  1.
         11    1    4    4    0    0 -0.15727514248E+02  0.31791973054E+02 -0.13698377613E+02  0.38022753774E+02  0.51100000000E-03 0. -1.
        -11    1    3    3    0    0  0.10717135652E+02 -0.79603684062E+01 -0.52809837863E+01  0.14356644865E+02  0.51100000000E-03 0.  1.
        -12    1    4    4    0    0 -0.73233740582E+01 -0.10122053055E+02  0.15722807476E+02  0.20082192126E+02  0.00000000000E+00 0.  1.
</event>
<event>
 7    1  0.1874105E-013  0.7246157E+02  0.7816164E-02  0.1226708E+00
        -11   -1    0    0    0    0  0.00000000000E+00  0.00000000000E+00  0.45593999997E+02  0.45594000000E+02  0.51100000000E-03 0.  1.
         11   -1    0    0    0    0 -0.00000000000E+00 -0.00000000000E+00 -0.45593999997E+02  0.45594000000E+02  0.51100000000E-03 0. -1.
    9900012    2    1    2    0    0 -0.16617775038E+02  0.16598657374E+01 -0.84719354225E+01  0.72461567043E+02  0.69999995764E+02 0.  0.
        -12    1    1    2    0    0  0.16617775038E+02 -0.16598657374E+01  0.84719354225E+01  0.18726432957E+02  0.00000000000E+00 0.  1.
         11    1    3    3    0    0  0.17823706064E+02 -0.21349530324E+02  0.45905469902E+01  0.28187941834E+02  0.51100000000E-03 0. -1.
        -11    1    3    3    0    0 -0.21287320236E+02  0.18920169897E+02 -0.78162049812E+01  0.29533301413E+02  0.51100000000E-03 0.  1.
         12    1    3    3    0    0 -0.13154160866E+02  0.40892261648E+01 -0.52462774315E+01  0.14740323796E+02  0.00000000000E+00 0. -1.
</event>
<event>
 7    1  0.1874105E-013  0.7246164E+02  0.7816164E-02  0.1226708E+00
        -11   -1    0    0    0    0  0.00000000000E+00  0.00000000000E+00  0.45593999997E+02  0.45594000000E+02  0.51100000000E-03 0. -1.
         11   -1    0    0    0    0 -0.00000000000E+00 -0.00000000000E+00 -0.45593999997E+02  0.45594000000E+02  0.51100000000E-03 0.  1.
    9900012    2    1    2    0    0  0.33133139586E+01  0.13224909508E+02  0.12837462882E+02  0.72461635320E+02  0.70000084708E+02 0.  0.
        -12    1    1    2    0    0 -0.33133139586E+01 -0.13224909508E+02 -0.12837462882E+02  0.18726364680E+02  0.00000000000E+00 0.  1.
         11    1    3    3    0    0  0.50866244388E+01  0.37110841669E+02  0.91464586204E+01  0.38558345700E+02  0.51100000000E-03 0. -1.
        -11    1    3    3    0    0 -0.47482780360E+01 -0.91454693009E+01 -0.94133505917E+01  0.13956966815E+02  0.51100000000E-03 0.  1.
         12    1    3    3    0    0  0.29749675558E+01 -0.14740462861E+02  0.13104354854E+02  0.19946322805E+02  0.00000000000E+00 0. -1.
</event>
<event>
 7    1  0.1874105E-013  0.7246149E+02  0.7816164E-02  0.1226708E+00
        -11   -1    0    0    0    0  0.00000000000E+00  0.00000000000E+00  0.45593999997E+02  0.45594000000E+02  0.51100000000E-03 0.  1.
         11   -1    0    0    0    0 -0.00000000000E+00 -0.00000000000E+00 -0.45593999997E+02  0.45594000000E+02  0.51100000000E-03 0. -1.
    9900012    2    1    2    0    0 -0.21720735621E+01  0.12967552502E+02 -0.13334426654E+02  0.72461487894E+02  0.69999892658E+02 0.  0.
        -12    1    1    2    0    0  0.21720735621E+01 -0.12967552502E+02  0.13334426654E+02  0.18726512106E+02  0.00000000000E+00 0.  1.
         11    1    3    3    0    0 -0.39505643111E+01  0.16165280963E+01 -0.25814401365E+02  0.26164927662E+02  0.51100000000E-03 0. -1.
        -11    1    3    3    0    0  0.92591806897E+00  0.27921806871E+02  0.89160965768E+01  0.29325439496E+02  0.51100000000E-03 0.  1.
        -12    1    3    3    0    0  0.85257268010E+00 -0.16570782465E+02  0.35638781339E+01  0.16971120736E+02  0.00000000000E+00 0.  1.
</event>
<event>
 7    1  0.1874105E-013  0.7246154E+02  0.7816164E-02  0.1226708E+00
        -11   -1    0    0    0    0  0.00000000000E+00  0.00000000000E+00  0.45593999997E+02  0.45594000000E+02  0.51100000000E-03 0. -1.
         11   -1    0    0    0    0 -0.00000000000E+00 -0.00000000000E+00 -0.45593999997E+02  0.45594000000E+02  0.51100000000E-03 0.  1.
    9900012    2    1    2    0    0  0.48059118125E+01  0.11602572475E+01  0.18062041729E+02  0.72461539132E+02  0.69999959405E+02 0.  0.
        -12    1    1    2    0    0 -0.48059118125E+01 -0.11602572475E+01 -0.18062041729E+02  0.18726460868E+02  0.00000000000E+00 0.  1.
         11    1    3    3    0    0  0.47625992522E+01  0.11573283118E+02 -0.26168080948E+01  0.12785574630E+02  0.51100000000E-03 0. -1.
        -11    1    3    3    0    0  0.47500369735E+01 -0.18990030333E+02  0.36301337265E+02  0.41242831992E+02  0.51100000000E-03 0.  1.
        -12    1    3    3    0    0 -0.47067244132E+01  0.85770044626E+01 -0.15622487441E+02  0.18433132509E+02  0.00000000000E+00 0.  1.
</event>
<event>
 7    1  0.1874105E-013  0.7246164E+02  0.7816164E-02  0.1226708E+00
        -11   -1    0    0    0    0  0.00000000000E+00  0.00000000000E+00  0.45593999997E+02  0.45594000000E+02  0.51100000000E-03 0.  1.
         11   -1    0    0    0    0 -0.00000000000E+00 -0.00000000000E+00 -0.45593999997E+02  0.45594000000E+02  0.51100000000E-03 0. -1.
    9900012    2    1    2    0    0 -0.28730278521E+01  0.21036834698E+01 -0.18384691050E+02  0.72461637881E+02  0.70000088045E+02 0.  0.
        -12    1    1    2    0    0  0.28730278521E+01 -0.21036834698E+01  0.18384691050E+02  0.18726362119E+02  0.00000000000E+00 0.  1.
         11    1    3    3    0    0 -0.13242272355E+02 -0.23272247897E+02 -0.28073568718E+02  0.38795367766E+02  0.51100000000E-03 0. -1.
        -11    1    3    3    0    0  0.97038156193E+01  0.17605179161E+02 -0.13528528290E+01  0.20147867925E+02  0.51100000000E-03 0.  1.
         12    1    3    3    0    0  0.66542888391E+00  0.77707522051E+01  0.11041730496E+02  0.13518402191E+02  0.00000000000E+00 0. -1.
</event>
<event>
 7    1  0.1874105E-013  0.7246163E+02  0.7816164E-02  0.1226708E+00
        -11   -1    0    0    0    0  0.00000000000E+00  0.00000000000E+00  0.45593999997E+02  0.45594000000E+02  0.51100000000E-03 0. -1.
         11   -1    0    0    0    0 -0.00000000000E+00 -0.00000000000E+00 -0.45593999997E+02  0.45594000000E+02  0.51100000000E-03 0.  1.
    9900012    2    1    2    0    0  0.32867704866E+00  0.46082335745E+01  0.18147537812E+02  0.72461628918E+02  0.70000076368E+02 0.  0.
        -12    1    1    2    0    0 -0.32867704866E+00 -0.46082335745E+01 -0.18147537812E+02  0.18726371082E+02  0.00000000000E+00 0.  1.
         11    1    3    3    0    0 -0.44940805831E+01  0.98922970142E+01  0.27848920291E+02  0.29893421720E+02  0.51100000000E-03 0. -1.
        -11    1    3    3    0    0 -0.11508006533E+02 -0.16918492226E+02 -0.93933994930E+01  0.22514563017E+02  0.51100000000E-03 0.  1.
         12    1    3    3    0    0  0.16330764165E+02  0.11634428786E+02 -0.30798298548E+00  0.20053644180E+02  0.00000000000E+00 0. -1.
</event>
<event>
 7    1  0.1874105E-013  0.7246157E+02  0.7816164E-02  0.1226708E+00
        -11   -1    0    0    0    0  0.00000000000E+00  0.00000000000E+00  0.45593999997E+02  0.45594000000E+02  0.51100000000E-03 0.  1.
         11   -1    0    0    0    0 -0.00000000000E+00 -0.00000000000E+00 -0.45593999997E+02  0.45594000000E+02  0.51100000000E-03 0. -1.
    9900012    2    1    2    0    0  0.14547910654E+02  0.95182185077E+01 -0.69599633980E+01  0.72461567386E+02  0.69999996211E+02 0.  0.
        -12    1    1    2    0    0 -0.14547910654E+02 -0.95182185077E+01  0.69599633980E+01  0.18726432614E+02  0.00000000000E+00 0.  1.
         11    1    3    3    0    0 -0.23479265905E+01  0.82931299044E+01 -0.11797674875E+02  0.14610745894E+02  0.51100000000E-03 0. -1.
        -11    1    3    3    0    0 -0.23371233228E+01 -0.21328189193E+02  0.15371871907E+02  0.26394094905E+02  0.51100000000E-03 0.  1.
        -12    1    3    3    0    0  0.19232960567E+02  0.22553277796E+02 -0.10534160431E+02  0.31456726586E+02  0.00000000000E+00 0.  1.
</event>
<event>
 7    1  0.1874105E-013  0.7246156E+02  0.7816164E-02  0.1226708E+00
        -11   -1    0    0    0    0  0.00000000000E+00  0.00000000000E+00  0.45593999997E+02  0.45594000000E+02  0.51100000000E-03 0. -1.
         11   -1    0    0    0    0 -0.00000000000E+00 -0.00000000000E+00 -0.45593999997E+02  0.45594000000E+02  0.51100000000E-03 0.  1.
    9900012    2    1    2    0    0 -0.21354746339E+01 -0.10730256727E+02  0.15198050596E+02  0.72461564053E+02  0.69999991870E+02 0.  0.
        -12    1    1    2    0    0  0.21354746339E+01  0.10730256727E+02 -0.15198050596E+02  0.18726435947E+02  0.00000000000E+00 0.  1.
         11    1    3    3    0    0  0.21107896068E+02 -0.13026435393E+01 -0.56486588668E+01  0.21889438181E+02  0.51100000000E-03 0. -1.
        -11    1    3    3    0    0 -0.94725703930E+01 -0.14508189560E+02 -0.73206151206E+01  0.18809799578E+02  0.51100000000E-03 0.  1.
         12    1    3    3    0    0 -0.13770800309E+02  0.50805763720E+01  0.28167324584E+02  0.31762326294E+02  0.00000000000E+00 0. -1.
</event>
<event>
 7    1  0.1874105E-013  0.7246159E+02  0.7816164E-02  0.1226708E+00
        -11   -1    0    0    0    0  0.00000000000E+00  0.00000000000E+00  0.45593999997E+02  0.45594000000E+02  0.51100000000E-03 0. -1.
         11   -1    0    0    0    0 -0.00000000000E+00 -0.00000000000E+00 -0.45593999997E+02  0.45594000000E+02  0.51100000000E-03 0.  1.
    9900012    2    1    2    0    0  0.83631640573E+01 -0.16647873720E+02  0.18932062175E+01  0.72461589713E+02  0.70000025296E+02 0.  0.
        -12    1    1    2    0    0 -0.83631640573E+01  0.16647873720E+02 -0.18932062175E+01  0.18726410287E+02  0.00000000000E+00 0.  1.
         11    1    3    3    0    0 -0.13299409457E+02 -0.24052247223E+02 -0.14695878403E+02  0.31166548264E+02  0.51100000000E-03 0. -1.
        -11    1    3    3    0    0  0.20991904732E+02 -0.38859368390E+01  0.20232142287E+02  0.29412584911E+02  0.51100000000E-03 0.  1.
         12    1    3    3    0    0  0.67066878217E+00  0.11290310341E+02 -0.36430576656E+01  0.11882456538E+02  0.00000000000E+00 0. -1.
</event>
<event>
 7    1  0.1874105E-013  0.7246227E+02  0.7816164E-02  0.1226706E+00
        -11   -1    0    0    0    0  0.00000000000E+00  0.00000000000E+00  0.45593999997E+02  0.45594000000E+02  0.51100000000E-03 0.  1.
         11   -1    0    0    0    0 -0.00000000000E+00 -0.00000000000E+00 -0.45593999997E+02  0.45594000000E+02  0.51100000000E-03 0. -1.
    9900012    2    1    2    0    0  0.78140001227E+01 -0.12292166130E+02 -0.11768472208E+02  0.72462272132E+02  0.70000914267E+02 0.  0.
        -12    1    1    2    0    0 -0.78140001227E+01  0.12292166130E+02  0.11768472208E+02  0.18725727868E+02  0.00000000000E+00 0.  1.
         11    1    3    3    0    0  0.34554645438E+01 -0.25284157126E+02 -0.10099449955E+01  0.25539162593E+02  0.51100000000E-03 0.  1.
        -11    1    3    3    0    0 -0.65269777611E+00  0.28364982720E+02 -0.17797619420E+01  0.28428257280E+02  0.51100000000E-03 0. -1.
         12    1    3    3    0    0  0.50112333550E+01 -0.15372991725E+02 -0.89787652707E+01  0.18494852259E+02  0.00000000000E+00 0. -1.
</event>
<event>
 7    1  0.1874105E-013  0.7246210E+02  0.7816164E-02  0.1226707E+00
        -11   -1    0    0    0    0  0.00000000000E+00  0.00000000000E+00  0.45593999997E+02  0.45594000000E+02  0.51100000000E-03 0.  1.
         11   -1    0    0    0    0 -0.00000000000E+00 -0.00000000000E+00 -0.45593999997E+02  0.45594000000E+02  0.51100000000E-03 0. -1.
    9900012    2    1    2    0    0  0.14077865624E+02  0.58822414147E+01 -0.10856904589E+02  0.72462097035E+02  0.70000686174E+02 0.  0.
        -12    1    1    2    0    0 -0.14077865624E+02 -0.58822414147E+01  0.10856904589E+02  0.18725902965E+02  0.00000000000E+00 0.  1.
         11    1    3    3    0    0  0.24555379354E+02  0.16793581744E+02 -0.22594713136E+02  0.37356553708E+02  0.51100000000E-03 0. -1.
        -11    1    3    3    0    0 -0.17442693410E+02 -0.12388047397E+02  0.16082294500E+02  0.26764743009E+02  0.51100000000E-03 0.  1.
        -12    1    3    3    0    0  0.69651796797E+01  0.14767070682E+01 -0.43444859535E+01  0.83408003175E+01  0.00000000000E+00 0.  1.
</event>
<event>
 7    1  0.2075288E-013  0.7246155E+02  0.7816164E-02  0.1226708E+00
        -11   -1    0    0    0    0  0.00000000000E+00  0.00000000000E+00  0.45593999997E+02  0.45594000000E+02  0.51100000000E-03 0. -1.
         11   -1    0    0    0    0 -0.00000000000E+00 -0.00000000000E+00 -0.45593999997E+02  0.45594000000E+02  0.51100000000E-03 0.  1.
    9900012    2    1    2    0    0 -0.49661989439E+01  0.90452984794E+01  0.15626875824E+02  0.72461553339E+02  0.69999977912E+02 0.  0.
        -12    1    1    2    0    0  0.49661989439E+01 -0.90452984794E+01 -0.15626875824E+02  0.18726446661E+02  0.00000000000E+00 0.  1.
         11    1    3    3    0    0 -0.78174021020E+01  0.79080716879E+01  0.22894523539E+02  0.25452084036E+02  0.51100000000E-03 0. -1.
        -11    1    3    3    0    0  0.16757750240E+02 -0.16453596002E+02 -0.15787948824E+00  0.23485483617E+02  0.51100000000E-03 0.  1.
        -12    1    3    3    0    0 -0.13906547082E+02  0.17590822793E+02 -0.71097682268E+01  0.23523985686E+02  0.00000000000E+00 0.  1.
</event>
<event>
 7    1  0.1874105E-013  0.7246156E+02  0.7816164E-02  0.1226708E+00
        -11   -1    0    0    0    0  0.00000000000E+00  0.00000000000E+00  0.45593999997E+02  0.45594000000E+02  0.51100000000E-03 0.  1.
         11   -1    0    0    0    0 -0.00000000000E+00 -0.00000000000E+00 -0.45593999997E+02  0.45594000000E+02  0.51100000000E-03 0. -1.
    9900012    2    1    2    0    0  0.13092250285E+02 -0.88701459638E+01 -0.10029599499E+02  0.72461564860E+02  0.69999992921E+02 0.  0.
        -12    1    1    2    0    0 -0.13092250285E+02  0.88701459638E+01  0.10029599499E+02  0.18726435140E+02  0.00000000000E+00 0.  1.
         11    1    3    3    0    0  0.19470748206E+02 -0.17628957676E+02 -0.19217702192E+01  0.26335971322E+02  0.51100000000E-03 0. -1.
        -11    1    3    3    0    0  0.12887702737E+02  0.17329352301E+02 -0.11964898512E+02  0.24689231047E+02  0.51100000000E-03 0.  1.
        -12    1    3    3    0    0 -0.19266200659E+02 -0.85705405889E+01  0.38570692317E+01  0.21436362492E+02  0.00000000000E+00 0.  1.
</event>
<event>
 7    1  0.1874105E-013  0.7246157E+02  0.7816164E-02  0.1226708E+00
        -11   -1    0    0    0    0  0.00000000000E+00  0.00000000000E+00  0.45593999997E+02  0.45594000000E+02  0.51100000000E-03 0. -1.
         11   -1    0    0    0    0 -0.00000000000E+00 -0.00000000000E+00 -0.45593999997E+02  0.45594000000E+02  0.51100000000E-03 0.  1.
    9900012    2    1    2    0    0 -0.15649045087E+02  0.41140249896E+01 -0.94266339123E+01  0.72461568395E+02  0.69999997526E+02 0.  0.
        -12    1    1    2    0    0  0.15649045087E+02 -0.41140249896E+01  0.94266339123E+01  0.18726431605E+02  0.00000000000E+00 0.  1.
         11    1    3    3    0    0 -0.14568725299E+02 -0.53538212468E+01 -0.47658748653E+01  0.16236524329E+02  0.51100000000E-03 0. -1.
        -11    1    3    3    0    0  0.24162394691E+02  0.17975003986E+01  0.98040019799E+01  0.26137535843E+02  0.51100000000E-03 0.  1.
        -12    1    3    3    0    0 -0.25242714478E+02  0.76703458379E+01 -0.14464761027E+02  0.30087508223E+02  0.00000000000E+00 0.  1.
</event>
<event>
 7    1  0.1874105E-013  0.7246157E+02  0.7816164E-02  0.1226708E+00
        -11   -1    0    0    0    0  0.00000000000E+00  0.00000000000E+00  0.45593999997E+02  0.45594000000E+02  0.51100000000E-03 0.  1.
         11   -1    0    0    0    0 -0.00000000000E+00 -0.00000000000E+00 -0.45593999997E+02  0.45594000000E+02  0.51100000000E-03 0. -1.
    9900012    2    1    2    0    0  0.86704962030E+01  0.13351878800E+02 -0.98604836786E+01  0.72461566536E+02  0.69999995104E+02 0.  0.
        -12    1    1    2    0    0 -0.86704962030E+01 -0.13351878800E+02  0.98604836786E+01  0.18726433464E+02  0.00000000000E+00 0.  1.
         11    1    3    3    0    0 -0.18056212564E+02  0.98279900935E+01 -0.73102439055E+01  0.21818704537E+02  0.51100000000E-03 0. -1.
        -11    1    3    3    0    0  0.35538440666E+02  0.12557465876E+02  0.35409515899E+00  0.37693449004E+02  0.51100000000E-03 0.  1.
         12    1    3    3    0    0 -0.88117318988E+01 -0.90335771695E+01 -0.29043349321E+01  0.12949412996E+02  0.00000000000E+00 0. -1.
</event>
<event>
 7    1  0.1874105E-013  0.7246158E+02  0.7816164E-02  0.1226708E+00
        -11   -1    0    0    0    0  0.00000000000E+00  0.00000000000E+00  0.45593999997E+02  0.45594000000E+02  0.51100000000E-03 0.  1.
         11   -1    0    0    0    0 -0.00000000000E+00 -0.00000000000E+00 -0.45593999997E+02  0.45594000000E+02  0.51100000000E-03 0. -1.
    9900012    2    1    2    0    0 -0.92314884404E+01  0.14027743604E+02  0.82873880598E+01  0.72461580954E+02  0.70000013886E+02 0.  0.
        -12    1    1    2    0    0  0.92314884404E+01 -0.14027743604E+02 -0.82873880598E+01  0.18726419046E+02  0.00000000000E+00 0.  1.
         11    1    3    3    0    0  0.63905243625E+01  0.13529572349E+02  0.37034560970E+01  0.15414399661E+02  0.51100000000E-03 0. -1.
        -11    1    3    3    0    0 -0.23832249156E+02  0.42404842957E+01 -0.19656261779E+02  0.31182149290E+02  0.51100000000E-03 0.  1.
        -12    1    3    3    0    0  0.82102363534E+01 -0.37423130415E+01  0.24240193742E+02  0.25865032003E+02  0.00000000000E+00 0.  1.
</event>
<event>
 7    1  0.1874105E-013  0.7246171E+02  0.7816164E-02  0.1226708E+00
        -11   -1    0    0    0    0  0.00000000000E+00  0.00000000000E+00  0.45593999997E+02  0.45594000000E+02  0.51100000000E-03 0.  1.
         11   -1    0    0    0    0 -0.00000000000E+00 -0.00000000000E+00 -0.45593999997E+02  0.45594000000E+02  0.51100000000E-03 0. -1.
    9900012    2    1    2    0    0  0.70257301951E+00 -0.17568525032E+02  0.64441656086E+01  0.72461709629E+02  0.70000181509E+02 0.  0.
        -12    1    1    2    0    0 -0.70257301951E+00  0.17568525032E+02 -0.64441656086E+01  0.18726290371E+02  0.00000000000E+00 0.  1.
         11    1    3    3    0    0 -0.96439240579E+01  0.35947720613E+01 -0.11069399774E+01  0.10351472059E+02  0.51100000000E-03 0. -1.
        -11    1    3    3    0    0  0.30922145073E+01 -0.40646492452E+02  0.33606922986E+01  0.40902241897E+02  0.51100000000E-03 0.  1.
        -12    1    3    3    0    0  0.72542825701E+01  0.19483195358E+02  0.41904132874E+01  0.21207995674E+02  0.00000000000E+00 0.  1.
</event>
<event>
 7    1  0.1874105E-013  0.7246157E+02  0.7816164E-02  0.1226708E+00
        -11   -1    0    0    0    0  0.00000000000E+00  0.00000000000E+00  0.45593999997E+02  0.45594000000E+02  0.51100000000E-03 0.  1.
         11   -1    0    0    0    0 -0.00000000000E+00 -0.00000000000E+00 -0.45593999997E+02  0.45594000000E+02  0.51100000000E-03 0. -1.
    9900012    2    1    2    0    0 -0.64114419846E+01 -0.17559102978E+02  0.11182636508E+01  0.72461569499E+02  0.69999998964E+02 0.  0.
        -12    1    1    2    0    0  0.64114419846E+01  0.17559102978E+02 -0.11182636508E+01  0.18726430501E+02  0.00000000000E+00 0.  1.
         11    1    3    3    0    0 -0.11386682805E+02 -0.15603406562E+02 -0.24178620651E+02  0.30947189508E+02  0.51100000000E-03 0. -1.
        -11    1    3    3    0    0  0.11387294123E+02  0.12563525180E+02  0.14583991317E+02  0.22365272978E+02  0.51100000000E-03 0.  1.
        -12    1    3    3    0    0 -0.64120533029E+01 -0.14519221595E+02  0.10712892984E+02  0.19149107013E+02  0.00000000000E+00 0.  1.
</event>
<event>
 7    1  0.1874105E-013  0.7246142E+02  0.7816164E-02  0.1226708E+00
        -11   -1    0    0    0    0  0.00000000000E+00  0.00000000000E+00  0.45593999997E+02  0.45594000000E+02  0.51100000000E-03 0. -1.
         11   -1    0    0    0    0 -0.00000000000E+00 -0.00000000000E+00 -0.45593999997E+02  0.45594000000E+02  0.51100000000E-03 0.  1.
    9900012    2    1    2    0    0  0.13633355533E+02 -0.60274077361E+01  0.11335205437E+02  0.72461417038E+02  0.69999800355E+02 0.  0.
        -12    1    1    2    0    0 -0.13633355533E+02  0.60274077361E+01 -0.11335205437E+02  0.18726582962E+02  0.00000000000E+00 0.  1.
         11    1    3    3    0    0 -0.30656701023E+01 -0.13628773665E+02  0.72684157669E+00  0.13988213028E+02  0.51100000000E-03 0. -1.
        -11    1    3    3    0    0  0.34522696393E+02  0.60572025865E+01 -0.41316121874E+01  0.35292725723E+02  0.51100000000E-03 0.  1.
        -12    1    3    3    0    0 -0.17823670758E+02  0.15441633425E+01  0.14739976048E+02  0.23180478287E+02  0.00000000000E+00 0.  1.
</event>
<event>
 7    1  0.1874105E-013  0.7246171E+02  0.7816164E-02  0.1226708E+00
        -11   -1    0    0    0    0  0.00000000000E+00  0.00000000000E+00  0.45593999997E+02  0.45594000000E+02  0.51100000000E-03 0. -1.
         11   -1    0    0    0    0 -0.00000000000E+00 -0.00000000000E+00 -0.45593999997E+02  0.45594000000E+02  0.51100000000E-03 0.  1.
    9900012    2    1    2    0    0 -0.44687472666E+01  0.39753768358E+01  0.17745435241E+02  0.72461713796E+02  0.70000186937E+02 0.  0.
        -12    1    1    2    0    0  0.44687472666E+01 -0.39753768358E+01 -0.17745435241E+02  0.18726286204E+02  0.00000000000E+00 0.  1.
         11    1    3    3    0    0  0.58491048720E+01  0.48339839343E+01  0.39884471219E+02  0.40599882674E+02  0.51100000000E-03 0. -1.
        -11    1    3    3    0    0 -0.15159629219E+02  0.31973348443E+01 -0.10811820152E+02  0.18892664275E+02  0.51100000000E-03 0.  1.
         12    1    3    3    0    0  0.48417770801E+01 -0.40559419428E+01 -0.11327215826E+02  0.12969166847E+02  0.00000000000E+00 0. -1.
</event>
<event>
 7    1  0.1874105E-013  0.7246150E+02  0.7816164E-02  0.1226708E+00
        -11   -1    0    0    0    0  0.00000000000E+00  0.00000000000E+00  0.45593999997E+02  0.45594000000E+02  0.51100000000E-03 0.  1.
         11   -1    0    0    0    0 -0.00000000000E+00 -0.00000000000E+00 -0.45593999997E+02  0.45594000000E+02  0.51100000000E-03 0. -1.
    9900012    2    1    2    0    0 -0.15014660693E+02 -0.10484843786E+02  0.39127928510E+01  0.72461496513E+02  0.69999903886E+02 0.  0.
        -12    1    1    2    0    0  0.15014660693E+02  0.10484843786E+02 -0.39127928510E+01  0.18726503487E+02  0.00000000000E+00 0.  1.
         11    1    3    3    0    0 -0.17433215170E+02 -0.23687540635E+02 -0.13121190178E+02  0.32205313295E+02  0.51100000000E-03 0. -1.
        -11    1    3    3    0    0  0.15779153604E+02 -0.21276911411E+01  0.53144112743E+01  0.16785461731E+02  0.51100000000E-03 0.  1.
         12    1    3    3    0    0 -0.13360599128E+02  0.15330387990E+02  0.11719571755E+02  0.23470721487E+02  0.00000000000E+00 0. -1.
</event>
<event>
 7    1  0.1874105E-013  0.7246159E+02  0.7816164E-02  0.1226708E+00
        -11   -1    0    0    0    0  0.00000000000E+00  0.00000000000E+00  0.45593999997E+02  0.45594000000E+02  0.51100000000E-03 0.  1.
         11   -1    0    0    0    0 -0.00000000000E+00 -0.00000000000E+00 -0.45593999997E+02  0.45594000000E+02  0.51100000000E-03 0. -1.
    9900012    2    1    2    0    0 -0.48904284337E+01  0.14581080861E+02 -0.10684304451E+02  0.72461586277E+02  0.70000020820E+02 0.  0.
        -12    1    1    2    0    0  0.48904284337E+01 -0.14581080861E+02  0.10684304451E+02  0.18726413723E+02  0.00000000000E+00 0.  1.
         11    1    3    3    0    0 -0.35919256132E+01 -0.24607707967E+02 -0.12028488550E+02  0.27624730914E+02  0.51100000000E-03 0. -1.
        -11    1    3    3    0    0 -0.10746935088E+02  0.28959000200E+02  0.11365026941E+01  0.30909738676E+02  0.51100000000E-03 0.  1.
         12    1    3    3    0    0  0.94484322671E+01  0.10229788627E+02  0.20768140462E+00  0.13927116688E+02  0.00000000000E+00 0. -1.
</event>
<event>
 7    1  0.1874105E-013  0.7246156E+02  0.7816164E-02  0.1226708E+00
        -11   -1    0    0    0    0  0.00000000000E+00  0.00000000000E+00  0.45593999997E+02  0.45594000000E+02  0.51100000000E-03 0. -1.
         11   -1    0    0    0    0 -0.00000000000E+00 -0.00000000000E+00 -0.45593999997E+02  0.45594000000E+02  0.51100000000E-03 0.  1.
    9900012    2    1    2    0    0 -0.62171411785E+01 -0.71018338475E+01  0.16173766295E+02  0.72461558677E+02  0.69999984867E+02 0.  0.
        -12    1    1    2    0    0  0.62171411785E+01  0.71018338475E+01 -0.16173766295E+02  0.18726441323E+02  0.00000000000E+00 0.  1.
         11    1    3    3    0    0 -0.60857674567E+01 -0.10933014082E+02  0.31810667176E+02  0.34183123159E+02  0.51100000000E-03 0. -1.
        -11    1    3    3    0    0  0.10408352559E+02  0.31541362322E+01 -0.22974193054E+02  0.25418417046E+02  0.51100000000E-03 0.  1.
        -12    1    3    3    0    0 -0.10539726281E+02  0.67704400238E+00  0.73372921734E+01  0.12860018472E+02  0.00000000000E+00 0.  1.
</event>
<event>
 7    1  0.1874105E-013  0.7246158E+02  0.7816164E-02  0.1226708E+00
        -11   -1    0    0    0    0  0.00000000000E+00  0.00000000000E+00  0.45593999997E+02  0.45594000000E+02  0.51100000000E-03 0.  1.
         11   -1    0    0    0    0 -0.00000000000E+00 -0.00000000000E+00 -0.45593999997E+02  0.45594000000E+02  0.51100000000E-03 0. -1.
    9900012    2    1    2    0    0  0.11423810694E+02  0.92078208974E+01 -0.11635784658E+02  0.72461577463E+02  0.70000009338E+02 0.  0.
        -12    1    1    2    0    0 -0.11423810694E+02 -0.92078208974E+01  0.11635784658E+02  0.18726422537E+02  0.00000000000E+00 0.  1.
         11    1    3    3    0    0  0.11013514471E+02  0.10143805611E+02  0.10302400279E+02  0.18175085833E+02  0.51100000000E-03 0. -1.
        -11    1    3    3    0    0 -0.23718147562E+02  0.58825932273E+01 -0.87487121054E+01  0.25955642750E+02  0.51100000000E-03 0.  1.
        -12    1    3    3    0    0  0.24128443785E+02 -0.68185779414E+01 -0.13189472832E+02  0.28330848879E+02  0.00000000000E+00 0.  1.
</event>
<event>
 7    1  0.1874105E-013  0.7246153E+02  0.7816164E-02  0.1226708E+00
        -11   -1    0    0    0    0  0.00000000000E+00  0.00000000000E+00  0.45593999997E+02  0.45594000000E+02  0.51100000000E-03 0.  1.
         11   -1    0    0    0    0 -0.00000000000E+00 -0.00000000000E+00 -0.45593999997E+02  0.45594000000E+02  0.51100000000E-03 0. -1.
    9900012    2    1    2    0    0  0.79276230937E+01 -0.16074201774E+02  0.54271206439E+01  0.72461526518E+02  0.69999942973E+02 0.  0.
        -12    1    1    2    0    0 -0.79276230937E+01  0.16074201774E+02 -0.54271206439E+01  0.18726473482E+02  0.00000000000E+00 0.  1.
         11    1    3    3    0    0  0.22443570445E+02  0.64376843316E+01  0.38211144449E+01  0.23659217014E+02  0.51100000000E-03 0. -1.
        -11    1    3    3    0    0  0.55944753037E+00 -0.22458539751E+02 -0.14502432115E+02  0.26739849042E+02  0.51100000000E-03 0.  1.
        -12    1    3    3    0    0 -0.15075394882E+02 -0.53346354853E-01  0.16108438314E+02  0.22062460461E+02  0.00000000000E+00 0.  1.
</event>
<event>
 7    1  0.1874105E-013  0.7246151E+02  0.7816164E-02  0.1226708E+00
        -11   -1    0    0    0    0  0.00000000000E+00  0.00000000000E+00  0.45593999997E+02  0.45594000000E+02  0.51100000000E-03 0.  1.
         11   -1    0    0    0    0 -0.00000000000E+00 -0.00000000000E+00 -0.45593999997E+02  0.45594000000E+02  0.51100000000E-03 0. -1.
    9900012    2    1    2    0    0 -0.15797208207E+02  0.92043297485E+01 -0.40509341578E+01  0.72461506981E+02  0.69999917522E+02 0.  0.
        -12    1    1    2    0    0  0.15797208207E+02 -0.92043297485E+01  0.40509341578E+01  0.18726493019E+02  0.00000000000E+00 0.  1.
         11    1    3    3    0    0 -0.16790431343E+02 -0.17526066530E+02 -0.16291425354E+01  0.24325618150E+02  0.51100000000E-03 0.  1.
        -11    1    3    3    0    0  0.10107668170E+02 -0.60507406032E+01  0.58018220615E+01  0.13131548164E+02  0.51100000000E-03 0. -1.
         12    1    3    3    0    0 -0.91144450342E+01  0.32781136881E+02 -0.82236136838E+01  0.35004340667E+02  0.00000000000E+00 0. -1.
</event>
<event>
 7    1  0.1874105E-013  0.7246166E+02  0.7816164E-02  0.1226708E+00
        -11   -1    0    0    0    0  0.00000000000E+00  0.00000000000E+00  0.45593999997E+02  0.45594000000E+02  0.51100000000E-03 0.  1.
         11   -1    0    0    0    0 -0.00000000000E+00 -0.00000000000E+00 -0.45593999997E+02  0.45594000000E+02  0.51100000000E-03 0. -1.
    9900012    2    1    2    0    0 -0.84403484201E+01 -0.26422295478E+01 -0.16506209709E+02  0.72461659797E+02  0.70000116594E+02 0.  0.
        -12    1    1    2    0    0  0.84403484201E+01  0.26422295478E+01  0.16506209709E+02  0.18726340203E+02  0.00000000000E+00 0.  1.
         11    1    3    3    0    0 -0.16913608722E+02 -0.53402970805E+01 -0.40870684806E+02  0.44553359129E+02  0.51100000000E-03 0. -1.
        -11    1    3    3    0    0  0.58602627813E+01  0.32905707545E+01  0.50444997833E+01  0.84034227599E+01  0.51100000000E-03 0.  1.
         12    1    3    3    0    0  0.26129975201E+01 -0.59250322183E+00  0.19319975313E+02  0.19504877908E+02  0.00000000000E+00 0. -1.
</event>
<event>
 7    1  0.1874105E-013  0.7246144E+02  0.7816164E-02  0.1226708E+00
        -11   -1    0    0    0    0  0.00000000000E+00  0.00000000000E+00  0.45593999997E+02  0.45594000000E+02  0.51100000000E-03 0.  1.
         11   -1    0    0    0    0 -0.00000000000E+00 -0.00000000000E+00 -0.45593999997E+02  0.45594000000E+02  0.51100000000E-03 0. -1.
    9900012    2    1    2    0    0 -0.97885640994E+01 -0.11414432138E+02 -0.11161481673E+02  0.72461443421E+02  0.69999834724E+02 0.  0.
        -12    1    1    2    0    0  0.97885640994E+01  0.11414432138E+02  0.11161481673E+02  0.18726556579E+02  0.00000000000E+00 0.  1.
         11    1    3    3    0    0 -0.23793705436E+01 -0.29838382622E+02 -0.92253328839E+01  0.31322471945E+02  0.51100000000E-03 0. -1.
        -11    1    3    3    0    0 -0.15486083227E+02  0.12815943798E+02  0.12500867460E+02  0.23671478126E+02  0.51100000000E-03 0.  1.
         12    1    3    3    0    0  0.80768896713E+01  0.56080066851E+01 -0.14437016249E+02  0.17467493350E+02  0.00000000000E+00 0. -1.
</event>
<event>
 7    1  0.1874105E-013  0.7246153E+02  0.7816164E-02  0.1226708E+00
        -11   -1    0    0    0    0  0.00000000000E+00  0.00000000000E+00  0.45593999997E+02  0.45594000000E+02  0.51100000000E-03 0. -1.
         11   -1    0    0    0    0 -0.00000000000E+00 -0.00000000000E+00 -0.45593999997E+02  0.45594000000E+02  0.51100000000E-03 0.  1.
    9900012    2    1    2    0    0 -0.18401691975E+02  0.10524960886E+01  0.33091593809E+01  0.72461533399E+02  0.69999951937E+02 0.  0.
        -12    1    1    2    0    0  0.18401691975E+02 -0.10524960886E+01 -0.33091593809E+01  0.18726466601E+02  0.00000000000E+00 0.  1.
         11    1    3    3    0    0  0.41535324317E+01 -0.97511370317E+01 -0.12641885708E+02  0.16497083972E+02  0.51100000000E-03 0. -1.
        -11    1    3    3    0    0 -0.82109928817E+01  0.28629399401E+02  0.14260644396E+02  0.33021642797E+02  0.51100000000E-03 0.  1.
         12    1    3    3    0    0 -0.14344231525E+02 -0.17825766281E+02  0.16904006932E+01  0.22942806630E+02  0.00000000000E+00 0. -1.
</event>
<event>
 7    1  0.1874105E-013  0.7246169E+02  0.7816164E-02  0.1226708E+00
        -11   -1    0    0    0    0  0.00000000000E+00  0.00000000000E+00  0.45593999997E+02  0.45594000000E+02  0.51100000000E-03 0.  1.
         11   -1    0    0    0    0 -0.00000000000E+00 -0.00000000000E+00 -0.45593999997E+02  0.45594000000E+02  0.51100000000E-03 0. -1.
    9900012    2    1    2    0    0 -0.13368074014E+02 -0.11488963652E+02  0.63224270207E+01  0.72461687707E+02  0.70000152952E+02 0.  0.
        -12    1    1    2    0    0  0.13368074014E+02  0.11488963652E+02 -0.63224270207E+01  0.18726312293E+02  0.00000000000E+00 0.  1.
         11    1    3    3    0    0  0.19693066738E+02  0.33479441209E+01 -0.17206736317E+02  0.26364699549E+02  0.51100000000E-03 0. -1.
        -11    1    3    3    0    0 -0.16893530942E+02 -0.73707541094E+01  0.21271793560E+02  0.28146200549E+02  0.51100000000E-03 0.  1.
         12    1    3    3    0    0 -0.16167609810E+02 -0.74661536639E+01  0.22573697776E+01  0.17950787610E+02  0.00000000000E+00 0. -1.
</event>
<event>
 7    1  0.1874105E-013  0.7246167E+02  0.7816164E-02  0.1226708E+00
        -11   -1    0    0    0    0  0.00000000000E+00  0.00000000000E+00  0.45593999997E+02  0.45594000000E+02  0.51100000000E-03 0.  1.
         11   -1    0    0    0    0 -0.00000000000E+00 -0.00000000000E+00 -0.45593999997E+02  0.45594000000E+02  0.51100000000E-03 0. -1.
    9900012    2    1    2    0    0 -0.35532007575E+01 -0.10680130914E+02 -0.14966133002E+02  0.72461666430E+02  0.70000125234E+02 0.  0.
        -12    1    1    2    0    0  0.35532007575E+01  0.10680130914E+02  0.14966133002E+02  0.18726333570E+02  0.00000000000E+00 0.  1.
         11    1    3    3    0    0  0.69828442240E+01  0.12063445628E+02 -0.32786989438E+02  0.35626865012E+02  0.51100000000E-03 0. -1.
        -11    1    3    3    0    0 -0.64337832815E+01 -0.19592946726E+01  0.13686818836E+02  0.15249964362E+02  0.51100000000E-03 0.  1.
         12    1    3    3    0    0 -0.41022617000E+01 -0.20784281869E+02  0.41340376005E+01  0.21584837057E+02  0.00000000000E+00 0. -1.
</event>
<event>
 8    1  0.1874105E-013  0.7246155E+02  0.7816164E-02  0.1226708E+00
        -11   -1    0    0    0    0  0.00000000000E+00  0.00000000000E+00  0.45593999997E+02  0.45594000000E+02  0.51100000000E-03 0.  1.
         11   -1    0    0    0    0 -0.00000000000E+00 -0.00000000000E+00 -0.45593999997E+02  0.45594000000E+02  0.51100000000E-03 0. -1.
    9900012    2    1    2    0    0 -0.67950612398E+01  0.80088584558E+01 -0.15503720076E+02  0.72461547928E+02  0.69999970864E+02 0.  0.
        -24    2    3    3    0    0  0.69534762835E+01  0.18443278760E+02 -0.12864064852E+02  0.55001101454E+02  0.49710478099E+02 0.  0.
        -12    1    1    2    0    0  0.67950612398E+01 -0.80088584558E+01  0.15503720076E+02  0.18726452072E+02  0.00000000000E+00 0.  1.
         11    1    4    4    0    0  0.11024286439E+02  0.33979412345E+02 -0.15104344726E+02  0.38785004637E+02  0.51100000000E-03 0.  1.
        -11    1    3    3    0    0 -0.13748537523E+02 -0.10434420304E+02 -0.26396552234E+01  0.17460446474E+02  0.51100000000E-03 0. -1.
        -12    1    4    4    0    0 -0.40708101558E+01 -0.15536133585E+02  0.22402798742E+01  0.16216096818E+02  0.00000000000E+00 0.  1.
</event>
<event>
 7    1  0.1874105E-013  0.7246155E+02  0.7816164E-02  0.1226708E+00
        -11   -1    0    0    0    0  0.00000000000E+00  0.00000000000E+00  0.45593999997E+02  0.45594000000E+02  0.51100000000E-03 0.  1.
         11   -1    0    0    0    0 -0.00000000000E+00 -0.00000000000E+00 -0.45593999997E+02  0.45594000000E+02  0.51100000000E-03 0. -1.
    9900012    2    1    2    0    0 -0.10069046464E+02 -0.10635761356E+02 -0.11669402588E+02  0.72461546169E+02  0.69999968572E+02 0.  0.
        -12    1    1    2    0    0  0.10069046464E+02  0.10635761356E+02  0.11669402588E+02  0.18726453831E+02  0.00000000000E+00 0.  1.
         11    1    3    3    0    0 -0.15012607891E+01 -0.56205938088E+01 -0.33430327387E+02  0.33932751851E+02  0.51100000000E-03 0. -1.
        -11    1    3    3    0    0  0.11184980569E+02 -0.28884811476E+00  0.52754220155E+01  0.12370016219E+02  0.51100000000E-03 0.  1.
         12    1    3    3    0    0 -0.19752766243E+02 -0.47263194327E+01  0.16485502783E+02  0.26158778099E+02  0.00000000000E+00 0. -1.
</event>
<event>
 7    1  0.1874105E-013  0.7246155E+02  0.7816164E-02  0.1226708E+00
        -11   -1    0    0    0    0  0.00000000000E+00  0.00000000000E+00  0.45593999997E+02  0.45594000000E+02  0.51100000000E-03 0. -1.
         11   -1    0    0    0    0 -0.00000000000E+00 -0.00000000000E+00 -0.45593999997E+02  0.45594000000E+02  0.51100000000E-03 0.  1.
    9900012    2    1    2    0    0 -0.43671198860E+01  0.15255999680E+02  0.99429664458E+01  0.72461552284E+02  0.69999976538E+02 0.  0.
        -12    1    1    2    0    0  0.43671198860E+01 -0.15255999680E+02 -0.99429664458E+01  0.18726447716E+02  0.00000000000E+00 0.  1.
         11    1    3    3    0    0 -0.66216894652E-01  0.40092532011E+02 -0.27790351583E+00  0.40093549835E+02  0.51100000000E-03 0. -1.
        -11    1    3    3    0    0 -0.84158118555E+01 -0.23089846757E+02  0.12249016163E+02  0.27459157119E+02  0.51100000000E-03 0.  1.
         12    1    3    3    0    0  0.41149088641E+01 -0.17466855742E+01 -0.20281462013E+01  0.49088453295E+01  0.00000000000E+00 0. -1.
</event>
<event>
 7    1  0.1874105E-013  0.7246161E+02  0.7816164E-02  0.1226708E+00
        -11   -1    0    0    0    0  0.00000000000E+00  0.00000000000E+00  0.45593999997E+02  0.45594000000E+02  0.51100000000E-03 0. -1.
         11   -1    0    0    0    0 -0.00000000000E+00 -0.00000000000E+00 -0.45593999997E+02  0.45594000000E+02  0.51100000000E-03 0.  1.
    9900012    2    1    2    0    0 -0.10052062094E+02 -0.86576538743E+00  0.15776058742E+02  0.72461614030E+02  0.70000056974E+02 0.  0.
        -12    1    1    2    0    0  0.10052062094E+02  0.86576538743E+00 -0.15776058742E+02  0.18726385970E+02  0.00000000000E+00 0.  1.
         11    1    3    3    0    0 -0.28909121448E+02 -0.13947861056E+02  0.66005572046E+01  0.32769612244E+02  0.51100000000E-03 0. -1.
        -11    1    3    3    0    0  0.19784573192E+02  0.21717106285E+01  0.17047582152E+02  0.26206215311E+02  0.51100000000E-03 0.  1.
        -12    1    3    3    0    0 -0.92751383806E+00  0.10910385040E+02 -0.78720806146E+01  0.13485786475E+02  0.00000000000E+00 0.  1.
</event>
<event>
 7    1  0.1874105E-013  0.7246159E+02  0.7816164E-02  0.1226708E+00
        -11   -1    0    0    0    0  0.00000000000E+00  0.00000000000E+00  0.45593999997E+02  0.45594000000E+02  0.51100000000E-03 0.  1.
         11   -1    0    0    0    0 -0.00000000000E+00 -0.00000000000E+00 -0.45593999997E+02  0.45594000000E+02  0.51100000000E-03 0. -1.
    9900012    2    1    2    0    0 -0.93087458272E+01  0.84204531025E+01 -0.13896826788E+02  0.72461586192E+02  0.70000020710E+02 0.  0.
        -12    1    1    2    0    0  0.93087458272E+01 -0.84204531025E+01  0.13896826788E+02  0.18726413808E+02  0.00000000000E+00 0.  1.
         11    1    3    3    0    0 -0.64938668975E+01 -0.12542257146E+02 -0.27030889632E+02  0.30498319890E+02  0.51100000000E-03 0. -1.
        -11    1    3    3    0    0 -0.19824052396E+01  0.30218209319E+02  0.78952681295E+01  0.31295452770E+02  0.51100000000E-03 0.  1.
        -12    1    3    3    0    0 -0.83247369003E+00 -0.92554990705E+01  0.52387947139E+01  0.10667813531E+02  0.00000000000E+00 0.  1.
</event>
<event>
 7    1  0.1874105E-013  0.7246160E+02  0.7816164E-02  0.1226708E+00
        -11   -1    0    0    0    0  0.00000000000E+00  0.00000000000E+00  0.45593999997E+02  0.45594000000E+02  0.51100000000E-03 0.  1.
         11   -1    0    0    0    0 -0.00000000000E+00 -0.00000000000E+00 -0.45593999997E+02  0.45594000000E+02  0.51100000000E-03 0. -1.
    9900012    2    1    2    0    0 -0.14158840748E+02  0.12252111462E+02  0.30189938265E+00  0.72461597520E+02  0.70000035467E+02 0.  0.
        -12    1    1    2    0    0  0.14158840748E+02 -0.12252111462E+02 -0.30189938265E+00  0.18726402480E+02  0.00000000000E+00 0.  1.
         11    1    3    3    0    0  0.80687464762E+01  0.53263985252E+00 -0.16569224453E+01  0.82543180918E+01  0.51100000000E-03 0. -1.
        -11    1    3    3    0    0 -0.24385031563E+02  0.33724726416E+02 -0.23384599016E+01  0.41682794186E+02  0.51100000000E-03 0.  1.
        -12    1    3    3    0    0  0.21574443387E+01 -0.22005254807E+02  0.42972817295E+01  0.22524485243E+02  0.00000000000E+00 0.  1.
</event>
<event>
 7    1  0.1874105E-013  0.7246130E+02  0.7816164E-02  0.1226709E+00
        -11   -1    0    0    0    0  0.00000000000E+00  0.00000000000E+00  0.45593999997E+02  0.45594000000E+02  0.51100000000E-03 0.  1.
         11   -1    0    0    0    0 -0.00000000000E+00 -0.00000000000E+00 -0.45593999997E+02  0.45594000000E+02  0.51100000000E-03 0. -1.
    9900012    2    1    2    0    0  0.81128863212E+01  0.16516101887E+00 -0.16877296648E+02  0.72461298614E+02  0.69999646086E+02 0.  0.
        -12    1    1    2    0    0 -0.81128863212E+01 -0.16516101887E+00  0.16877296648E+02  0.18726701386E+02  0.00000000000E+00 0.  1.
         11    1    3    3    0    0  0.56609580838E+01  0.10405678870E+02 -0.19317760033E+02  0.22660548363E+02  0.51100000000E-03 0. -1.
        -11    1    3    3    0    0  0.10756360549E+01  0.53815259230E+01  0.23167910996E+02  0.23809030101E+02  0.51100000000E-03 0.  1.
        -12    1    3    3    0    0  0.13762921825E+01 -0.15622043774E+02 -0.20727447612E+02  0.25991720150E+02  0.00000000000E+00 0.  1.
</event>
<event>
 7    1  0.1874105E-013  0.7246160E+02  0.7816164E-02  0.1226708E+00
        -11   -1    0    0    0    0  0.00000000000E+00  0.00000000000E+00  0.45593999997E+02  0.45594000000E+02  0.51100000000E-03 0.  1.
         11   -1    0    0    0    0 -0.00000000000E+00 -0.00000000000E+00 -0.45593999997E+02  0.45594000000E+02  0.51100000000E-03 0. -1.
    9900012    2    1    2    0    0  0.71656874541E+01  0.22514653835E+01 -0.17154058973E+02  0.72461603862E+02  0.70000043728E+02 0.  0.
        -12    1    1    2    0    0 -0.71656874541E+01 -0.22514653835E+01  0.17154058973E+02  0.18726396138E+02  0.00000000000E+00 0.  1.
         11    1    3    3    0    0 -0.16474907211E+02  0.13829762665E+02 -0.19795822976E+02  0.29232849853E+02  0.51100000000E-03 0. -1.
        -11    1    3    3    0    0  0.84426001390E+01 -0.20838159794E+02 -0.62476824245E+01  0.23335379505E+02  0.51100000000E-03 0.  1.
        -12    1    3    3    0    0  0.15197994527E+02  0.92598625119E+01  0.88894464271E+01  0.19893374504E+02  0.00000000000E+00 0.  1.
</event>
<event>
 7    1  0.1874105E-013  0.7246157E+02  0.7816164E-02  0.1226708E+00
        -11   -1    0    0    0    0  0.00000000000E+00  0.00000000000E+00  0.45593999997E+02  0.45594000000E+02  0.51100000000E-03 0. -1.
         11   -1    0    0    0    0 -0.00000000000E+00 -0.00000000000E+00 -0.45593999997E+02  0.45594000000E+02  0.51100000000E-03 0.  1.
    9900012    2    1    2    0    0  0.12992735449E+02  0.86858905760E+01 -0.10316159327E+02  0.72461574479E+02  0.70000005451E+02 0.  0.
        -12    1    1    2    0    0 -0.12992735449E+02 -0.86858905760E+01  0.10316159327E+02  0.18726425521E+02  0.00000000000E+00 0.  1.
         11    1    3    3    0    0 -0.49823717974E+01 -0.93114562381E+01  0.11828345031E+02  0.15856764879E+02  0.51100000000E-03 0. -1.
        -11    1    3    3    0    0 -0.15892407055E+00  0.30143417781E+02 -0.14760170813E+02  0.33563574528E+02  0.51100000000E-03 0.  1.
        -12    1    3    3    0    0  0.18134031317E+02 -0.12146070967E+02 -0.73843335446E+01  0.23041235072E+02  0.00000000000E+00 0.  1.
</event>
<event>
 7    1  0.1874105E-013  0.7246158E+02  0.7816164E-02  0.1226708E+00
        -11   -1    0    0    0    0  0.00000000000E+00  0.00000000000E+00  0.45593999997E+02  0.45594000000E+02  0.51100000000E-03 0.  1.
         11   -1    0    0    0    0 -0.00000000000E+00 -0.00000000000E+00 -0.45593999997E+02  0.45594000000E+02  0.51100000000E-03 0. -1.
    9900012    2    1    2    0    0  0.17880830648E+02 -0.55466081106E+01  0.43585870934E+00  0.72461576449E+02  0.70000008017E+02 0.  0.
        -12    1    1    2    0    0 -0.17880830648E+02  0.55466081106E+01 -0.43585870934E+00  0.18726423551E+02  0.00000000000E+00 0.  1.
         11    1    3    3    0    0  0.21961268263E+02  0.76234129600E+01  0.16489427090E+02  0.28501139185E+02  0.51100000000E-03 0. -1.
        -11    1    3    3    0    0 -0.71727943479E+01  0.12206421399E+02 -0.77617046173E+00  0.14179144649E+02  0.51100000000E-03 0.  1.
         12    1    3    3    0    0  0.30923567337E+01 -0.25376442470E+02 -0.15277397919E+02  0.29781292614E+02  0.00000000000E+00 0. -1.
</event>
<event>
 7    1  0.1874105E-013  0.7246159E+02  0.7816164E-02  0.1226708E+00
        -11   -1    0    0    0    0  0.00000000000E+00  0.00000000000E+00  0.45593999997E+02  0.45594000000E+02  0.51100000000E-03 0. -1.
         11   -1    0    0    0    0 -0.00000000000E+00 -0.00000000000E+00 -0.45593999997E+02  0.45594000000E+02  0.51100000000E-03 0.  1.
    9900012    2    1    2    0    0 -0.17922136243E+02  0.42975960968E+01 -0.33175687505E+01  0.72461586511E+02  0.70000021125E+02 0.  0.
        -12    1    1    2    0    0  0.17922136243E+02 -0.42975960968E+01  0.33175687505E+01  0.18726413489E+02  0.00000000000E+00 0.  1.
         11    1    3    3    0    0 -0.30309518280E+02  0.19460164498E+02 -0.99481688754E+01  0.37367512158E+02  0.51100000000E-03 0. -1.
        -11    1    3    3    0    0  0.93023053230E+01  0.66412374102E+01  0.63417100116E+01  0.13071197527E+02  0.51100000000E-03 0.  1.
         12    1    3    3    0    0  0.30850767135E+01 -0.21803805811E+02  0.28889011332E+00  0.22022876826E+02  0.00000000000E+00 0. -1.
</event>
<event>
 7    1  0.1874105E-013  0.7246162E+02  0.7816164E-02  0.1226708E+00
        -11   -1    0    0    0    0  0.00000000000E+00  0.00000000000E+00  0.45593999997E+02  0.45594000000E+02  0.51100000000E-03 0. -1.
         11   -1    0    0    0    0 -0.00000000000E+00 -0.00000000000E+00 -0.45593999997E+02  0.45594000000E+02  0.51100000000E-03 0.  1.
    9900012    2    1    2    0    0  0.48510031011E+01  0.16621263099E+02  0.71329314759E+01  0.72461619423E+02  0.70000063999E+02 0.  0.
        -12    1    1    2    0    0 -0.48510031011E+01 -0.16621263099E+02 -0.71329314759E+01  0.18726380577E+02  0.00000000000E+00 0.  1.
         11    1    3    3    0    0  0.26722901916E+02  0.58217624909E+01  0.25671916774E+02  0.37510714689E+02  0.51100000000E-03 0. -1.
        -11    1    3    3    0    0 -0.12089114230E+02 -0.30091340462E+01 -0.10115387377E+02  0.16047511727E+02  0.51100000000E-03 0.  1.
         12    1    3    3    0    0 -0.97827845848E+01  0.13808634654E+02 -0.84235979217E+01  0.18903393007E+02  0.00000000000E+00 0. -1.
</event>
<event>
 7    1  0.1874105E-013  0.7246157E+02  0.7816164E-02  0.1226708E+00
        -11   -1    0    0    0    0  0.00000000000E+00  0.00000000000E+00  0.45593999997E+02  0.45594000000E+02  0.51100000000E-03 0.  1.
         11   -1    0    0    0    0 -0.00000000000E+00 -0.00000000000E+00 -0.45593999997E+02  0.45594000000E+02  0.51100000000E-03 0. -1.
    9900012    2    1    2    0    0  0.11260067233E+02  0.22331099498E+01 -0.14795376637E+02  0.72461573113E+02  0.70000003672E+02 0.  0.
        -12    1    1    2    0    0 -0.11260067233E+02 -0.22331099498E+01  0.14795376637E+02  0.18726426887E+02  0.00000000000E+00 0.  1.
         11    1    3    3    0    0  0.22519677344E+02  0.87129236471E+01 -0.25710798136E+02  0.35271745735E+02  0.51100000000E-03 0. -1.
        -11    1    3    3    0    0 -0.25501806450E+01 -0.18024524963E+02  0.13284126957E+02  0.22535637349E+02  0.51100000000E-03 0.  1.
        -12    1    3    3    0    0 -0.87094294663E+01  0.11544711266E+02 -0.23687054582E+01  0.14654190028E+02  0.00000000000E+00 0.  1.
</event>
<event>
 7    1  0.1874105E-013  0.7246157E+02  0.7816164E-02  0.1226708E+00
        -11   -1    0    0    0    0  0.00000000000E+00  0.00000000000E+00  0.45593999997E+02  0.45594000000E+02  0.51100000000E-03 0.  1.
         11   -1    0    0    0    0 -0.00000000000E+00 -0.00000000000E+00 -0.45593999997E+02  0.45594000000E+02  0.51100000000E-03 0. -1.
    9900012    2    1    2    0    0 -0.13007729157E+01 -0.18461023891E+02 -0.28596685452E+01  0.72461571684E+02  0.70000001810E+02 0.  0.
        -12    1    1    2    0    0  0.13007729157E+01  0.18461023891E+02  0.28596685452E+01  0.18726428316E+02  0.00000000000E+00 0.  1.
         11    1    3    3    0    0  0.24038818228E+02 -0.93016449659E+01 -0.19295767364E+02  0.32198012661E+02  0.51100000000E-03 0. -1.
        -11    1    3    3    0    0 -0.76786014715E+01 -0.10879229003E+01  0.19146301207E+02  0.20657331555E+02  0.51100000000E-03 0.  1.
         12    1    3    3    0    0 -0.17660989672E+02 -0.80714560251E+01 -0.27102023882E+01  0.19606227469E+02  0.00000000000E+00 0. -1.
</event>
<event>
 7    1  0.1874105E-013  0.7246163E+02  0.7816164E-02  0.1226708E+00
        -11   -1    0    0    0    0  0.00000000000E+00  0.00000000000E+00  0.45593999997E+02  0.45594000000E+02  0.51100000000E-03 0.  1.
         11   -1    0    0    0    0 -0.00000000000E+00 -0.00000000000E+00 -0.45593999997E+02  0.45594000000E+02  0.51100000000E-03 0. -1.
    9900012    2    1    2    0    0 -0.31757907209E+01  0.72257855150E+01 -0.16981739895E+02  0.72461625207E+02  0.70000071534E+02 0.  0.
        -12    1    1    2    0    0  0.31757907209E+01 -0.72257855150E+01  0.16981739895E+02  0.18726374793E+02  0.00000000000E+00 0.  1.
         11    1    3    3    0    0 -0.25895936693E+02 -0.11584234387E+02  0.26179840922E+01  0.28489434261E+02  0.51100000000E-03 0. -1.
        -11    1    3    3    0    0  0.12765911393E+02  0.46073327241E+01  0.44839958737E+01  0.14293433030E+02  0.51100000000E-03 0.  1.
         12    1    3    3    0    0  0.99542345785E+01  0.14202687178E+02 -0.24083719861E+02  0.29678757916E+02  0.00000000000E+00 0. -1.
</event>
<event>
 7    1  0.1874105E-013  0.7246153E+02  0.7816164E-02  0.1226708E+00
        -11   -1    0    0    0    0  0.00000000000E+00  0.00000000000E+00  0.45593999997E+02  0.45594000000E+02  0.51100000000E-03 0. -1.
         11   -1    0    0    0    0 -0.00000000000E+00 -0.00000000000E+00 -0.45593999997E+02  0.45594000000E+02  0.51100000000E-03 0.  1.
    9900012    2    1    2    0    0 -0.89201611229E+01  0.13012911232E+02  0.10088392875E+02  0.72461526653E+02  0.69999943150E+02 0.  0.
        -12    1    1    2    0    0  0.89201611229E+01 -0.13012911232E+02 -0.10088392875E+02  0.18726473347E+02  0.00000000000E+00 0.  1.
         11    1    3    3    0    0  0.12220611762E+02 -0.16853203761E+02 -0.15198514184E+00  0.20818187447E+02  0.51100000000E-03 0. -1.
        -11    1    3    3    0    0  0.34695038793E+00  0.25565053032E+02  0.14391733181E+02  0.29339636932E+02  0.51100000000E-03 0.  1.
        -12    1    3    3    0    0 -0.21487723273E+02  0.43010619609E+01 -0.41513551639E+01  0.22303702274E+02  0.00000000000E+00 0.  1.
</event>
<event>
 7    1  0.1874105E-013  0.7246162E+02  0.7816164E-02  0.1226708E+00
        -11   -1    0    0    0    0  0.00000000000E+00  0.00000000000E+00  0.45593999997E+02  0.45594000000E+02  0.51100000000E-03 0. -1.
         11   -1    0    0    0    0 -0.00000000000E+00 -0.00000000000E+00 -0.45593999997E+02  0.45594000000E+02  0.51100000000E-03 0.  1.
    9900012    2    1    2    0    0 -0.13491849714E+02 -0.73164443148E+01 -0.10729264953E+02  0.72461615070E+02  0.70000058329E+02 0.  0.
        -12    1    1    2    0    0  0.13491849714E+02  0.73164443148E+01  0.10729264953E+02  0.18726384930E+02  0.00000000000E+00 0.  1.
         11    1    3    3    0    0 -0.10491622690E+02  0.17374853316E+02  0.22363389006E+02  0.30200676193E+02  0.51100000000E-03 0. -1.
        -11    1    3    3    0    0 -0.58750301145E+01 -0.18428364577E+02 -0.25526406717E+02  0.32026833125E+02  0.51100000000E-03 0.  1.
         12    1    3    3    0    0  0.28748030905E+01 -0.62629330534E+01 -0.75662472414E+01  0.10234105753E+02  0.00000000000E+00 0. -1.
</event>
<event>
 7    1  0.1874105E-013  0.7246143E+02  0.7816164E-02  0.1226708E+00
        -11   -1    0    0    0    0  0.00000000000E+00  0.00000000000E+00  0.45593999997E+02  0.45594000000E+02  0.51100000000E-03 0. -1.
         11   -1    0    0    0    0 -0.00000000000E+00 -0.00000000000E+00 -0.45593999997E+02  0.45594000000E+02  0.51100000000E-03 0.  1.
    9900012    2    1    2    0    0  0.11079476328E+02 -0.60342200368E+01  0.13839002417E+02  0.72461425432E+02  0.69999811290E+02 0.  0.
        -12    1    1    2    0    0 -0.11079476328E+02  0.60342200368E+01 -0.13839002417E+02  0.18726574568E+02  0.00000000000E+00 0.  1.
         11    1    3    3    0    0 -0.36927442415E+01 -0.25802855762E+01  0.22563630978E+02  0.23008947757E+02  0.51100000000E-03 0. -1.
        -11    1    3    3    0    0  0.24828561884E+02 -0.18191375806E+02 -0.66593600100E+01  0.31491756302E+02  0.51100000000E-03 0.  1.
         12    1    3    3    0    0 -0.10056341315E+02  0.14737441346E+02 -0.20652685516E+01  0.17960721373E+02  0.00000000000E+00 0. -1.
</event>
<event>
 7    1  0.1874105E-013  0.7246157E+02  0.7816164E-02  0.1226708E+00
        -11   -1    0    0    0    0  0.00000000000E+00  0.00000000000E+00  0.45593999997E+02  0.45594000000E+02  0.51100000000E-03 0.  1.
         11   -1    0    0    0    0 -0.00000000000E+00 -0.00000000000E+00 -0.45593999997E+02  0.45594000000E+02  0.51100000000E-03 0. -1.
    9900012    2    1    2    0    0 -0.17900370047E+02 -0.53277685064E+01  0.13678214614E+01  0.72461566793E+02  0.69999995440E+02 0.  0.
        -12    1    1    2    0    0  0.17900370047E+02  0.53277685064E+01 -0.13678214614E+01  0.18726433207E+02  0.00000000000E+00 0.  1.
         11    1    3    3    0    0 -0.23857375049E+02  0.14926314373E+02 -0.37212741358E+01  0.28386917523E+02  0.51100000000E-03 0. -1.
        -11    1    3    3    0    0  0.21374872942E+02 -0.11062559709E+02  0.90144034187E+01  0.25700678782E+02  0.51100000000E-03 0.  1.
         12    1    3    3    0    0 -0.15417867940E+02 -0.91915231699E+01 -0.39253078215E+01  0.18373970488E+02  0.00000000000E+00 0. -1.
</event>
<event>
 8    1  0.1874105E-013  0.7246159E+02  0.7816164E-02  0.1226708E+00
        -11   -1    0    0    0    0  0.00000000000E+00  0.00000000000E+00  0.45593999997E+02  0.45594000000E+02  0.51100000000E-03 0.  1.
         11   -1    0    0    0    0 -0.00000000000E+00 -0.00000000000E+00 -0.45593999997E+02  0.45594000000E+02  0.51100000000E-03 0. -1.
    9900012    2    1    2    0    0  0.80862894394E+01  0.15783071197E+02 -0.60154129752E+01  0.72461585326E+02  0.70000019581E+02 0.  0.
         24    2    3    3    0    0 -0.71423776222E+01  0.20696720233E+02 -0.45347009290E+00  0.55520763143E+02  0.51019424912E+02 0.  0.
        -12    1    1    2    0    0 -0.80862894394E+01 -0.15783071197E+02  0.60154129752E+01  0.18726414674E+02  0.00000000000E+00 0.  1.
         11    1    3    3    0    0  0.15228667062E+02 -0.49136490367E+01 -0.55619428823E+01  0.16940822182E+02  0.51100000000E-03 0. -1.
        -11    1    4    4    0    0 -0.25788821560E+02  0.56342436976E+00 -0.80945883815E+01  0.27035220099E+02  0.51100000000E-03 0.  1.
         12    1    4    4    0    0  0.18646443937E+02  0.20133295864E+02  0.76411182886E+01  0.28485543045E+02  0.00000000000E+00 0. -1.
</event>
<event>
 7    1  0.1874105E-013  0.7246157E+02  0.7816164E-02  0.1226708E+00
        -11   -1    0    0    0    0  0.00000000000E+00  0.00000000000E+00  0.45593999997E+02  0.45594000000E+02  0.51100000000E-03 0.  1.
         11   -1    0    0    0    0 -0.00000000000E+00 -0.00000000000E+00 -0.45593999997E+02  0.45594000000E+02  0.51100000000E-03 0. -1.
    9900012    2    1    2    0    0  0.58413187762E+01  0.15817395647E+02  0.81466576374E+01  0.72461573733E+02  0.70000004479E+02 0.  0.
        -12    1    1    2    0    0 -0.58413187762E+01 -0.15817395647E+02 -0.81466576374E+01  0.18726426267E+02  0.00000000000E+00 0.  1.
         11    1    3    3    0    0 -0.38319571931E+01 -0.93491821033E+01 -0.19769161979E+02  0.22201596059E+02  0.51100000000E-03 0. -1.
        -11    1    3    3    0    0  0.10649198139E+02 -0.25266060627E+01  0.17532177594E+02  0.20668004515E+02  0.51100000000E-03 0.  1.
         12    1    3    3    0    0 -0.97592216980E+00  0.27693183813E+02  0.10383642023E+02  0.29591973159E+02  0.00000000000E+00 0. -1.
</event>
<event>
 7    1  0.1874105E-013  0.7246121E+02  0.7816164E-02  0.1226709E+00
        -11   -1    0    0    0    0  0.00000000000E+00  0.00000000000E+00  0.45593999997E+02  0.45594000000E+02  0.51100000000E-03 0. -1.
         11   -1    0    0    0    0 -0.00000000000E+00 -0.00000000000E+00 -0.45593999997E+02  0.45594000000E+02  0.51100000000E-03 0.  1.
    9900012    2    1    2    0    0  0.10096184787E+02 -0.13756520912E+02 -0.77147841657E+01  0.72461208775E+02  0.69999529052E+02 0.  0.
        -12    1    1    2    0    0 -0.10096184787E+02  0.13756520912E+02  0.77147841657E+01  0.18726791225E+02  0.00000000000E+00 0.  1.
         11    1    3    3    0    0 -0.80307931120E+01 -0.32365934171E+02 -0.55840219876E+01  0.33811664179E+02  0.51100000000E-03 0. -1.
        -11    1    3    3    0    0  0.13549855895E+02  0.10276608782E+02 -0.14981788442E+02  0.22664096453E+02  0.51100000000E-03 0.  1.
        -12    1    3    3    0    0  0.45771220040E+01  0.83328044768E+01  0.12851026264E+02  0.15985448143E+02  0.00000000000E+00 0.  1.
</event>
<event>
 7    1  0.1874105E-013  0.7246158E+02  0.7816164E-02  0.1226708E+00
        -11   -1    0    0    0    0  0.00000000000E+00  0.00000000000E+00  0.45593999997E+02  0.45594000000E+02  0.51100000000E-03 0.  1.
         11   -1    0    0    0    0 -0.00000000000E+00 -0.00000000000E+00 -0.45593999997E+02  0.45594000000E+02  0.51100000000E-03 0. -1.
    9900012    2    1    2    0    0  0.13505114614E+02  0.10674737211E+02 -0.73716007784E+01  0.72461584612E+02  0.70000018651E+02 0.  0.
        -12    1    1    2    0    0 -0.13505114614E+02 -0.10674737211E+02  0.73716007784E+01  0.18726415388E+02  0.00000000000E+00 0.  1.
         11    1    3    3    0    0 -0.48736464836E+01  0.25424161007E+02  0.20423734731E+02  0.32973767355E+02  0.51100000000E-03 0. -1.
        -11    1    3    3    0    0 -0.26538091992E+00 -0.70970795315E+01 -0.34879104543E+01  0.79122995714E+01  0.51100000000E-03 0.  1.
         12    1    3    3    0    0  0.18644142017E+02 -0.76523442638E+01 -0.24307425055E+02  0.31575517686E+02  0.00000000000E+00 0. -1.
</event>
<event>
 7    1  0.1874105E-013  0.7246157E+02  0.7816164E-02  0.1226708E+00
        -11   -1    0    0    0    0  0.00000000000E+00  0.00000000000E+00  0.45593999997E+02  0.45594000000E+02  0.51100000000E-03 0. -1.
         11   -1    0    0    0    0 -0.00000000000E+00 -0.00000000000E+00 -0.45593999997E+02  0.45594000000E+02  0.51100000000E-03 0.  1.
    9900012    2    1    2    0    0 -0.63319773554E+01 -0.12050247792E+02  0.12859888900E+02  0.72461570773E+02  0.70000000623E+02 0.  0.
        -12    1    1    2    0    0  0.63319773554E+01  0.12050247792E+02 -0.12859888900E+02  0.18726429227E+02  0.00000000000E+00 0.  1.
         11    1    3    3    0    0  0.13616660263E+02  0.58150422582E+01  0.31221921264E+02  0.34554833538E+02  0.51100000000E-03 0. -1.
        -11    1    3    3    0    0 -0.99141148229E+01 -0.19629427791E+02 -0.80707588095E+01  0.23425226918E+02  0.51100000000E-03 0.  1.
         12    1    3    3    0    0 -0.10034522795E+02  0.17641377407E+01 -0.10291273554E+02  0.14481510317E+02  0.00000000000E+00 0. -1.
</event>
<event>
 7    1  0.1874105E-013  0.7246156E+02  0.7816164E-02  0.1226708E+00
        -11   -1    0    0    0    0  0.00000000000E+00  0.00000000000E+00  0.45593999997E+02  0.45594000000E+02  0.51100000000E-03 0.  1.
         11   -1    0    0    0    0 -0.00000000000E+00 -0.00000000000E+00 -0.45593999997E+02  0.45594000000E+02  0.51100000000E-03 0. -1.
    9900012    2    1    2    0    0  0.15402414541E+02  0.70669165815E+01 -0.79689248159E+01  0.72461562902E+02  0.69999990370E+02 0.  0.
        -12    1    1    2    0    0 -0.15402414541E+02 -0.70669165815E+01  0.79689248159E+01  0.18726437098E+02  0.00000000000E+00 0.  1.
         11    1    3    3    0    0 -0.12597664136E+02 -0.61229057644E+01  0.95011589922E+01  0.16925221982E+02  0.51100000000E-03 0.  1.
        -11    1    3    3    0    0  0.12997256035E+02  0.24683142132E+02 -0.22657496737E+02  0.35938118045E+02  0.51100000000E-03 0. -1.
        -12    1    3    3    0    0  0.15002822642E+02 -0.11493319787E+02  0.51874129291E+01  0.19598222875E+02  0.00000000000E+00 0.  1.
</event>
<event>
 7    1  0.1874105E-013  0.7246165E+02  0.7816164E-02  0.1226708E+00
        -11   -1    0    0    0    0  0.00000000000E+00  0.00000000000E+00  0.45593999997E+02  0.45594000000E+02  0.51100000000E-03 0.  1.
         11   -1    0    0    0    0 -0.00000000000E+00 -0.00000000000E+00 -0.45593999997E+02  0.45594000000E+02  0.51100000000E-03 0. -1.
    9900012    2    1    2    0    0 -0.42274701331E+01  0.13985573539E+02  0.11713603216E+02  0.72461647679E+02  0.70000100808E+02 0.  0.
        -12    1    1    2    0    0  0.42274701331E+01 -0.13985573539E+02 -0.11713603216E+02  0.18726352321E+02  0.00000000000E+00 0.  1.
         11    1    3    3    0    0 -0.11336362109E+02 -0.22773906624E+02 -0.20680935542E+01  0.25523341082E+02  0.51100000000E-03 0. -1.
        -11    1    3    3    0    0  0.57597589981E+01  0.23426381971E+02 -0.42258687721E+01  0.24491389571E+02  0.51100000000E-03 0.  1.
         12    1    3    3    0    0  0.13491329780E+01  0.13333098192E+02  0.18007565543E+02  0.22446917026E+02  0.00000000000E+00 0. -1.
</event>
<event>
 7    1  0.1874105E-013  0.7246158E+02  0.7816164E-02  0.1226708E+00
        -11   -1    0    0    0    0  0.00000000000E+00  0.00000000000E+00  0.45593999997E+02  0.45594000000E+02  0.51100000000E-03 0.  1.
         11   -1    0    0    0    0 -0.00000000000E+00 -0.00000000000E+00 -0.45593999997E+02  0.45594000000E+02  0.51100000000E-03 0. -1.
    9900012    2    1    2    0    0 -0.12092781561E+01 -0.16623046914E+02 -0.85376083028E+01  0.72461580217E+02  0.70000012926E+02 0.  0.
        -12    1    1    2    0    0  0.12092781561E+01  0.16623046914E+02  0.85376083028E+01  0.18726419783E+02  0.00000000000E+00 0.  1.
         11    1    3    3    0    0 -0.59511550019E+01 -0.27303009030E+02 -0.87224546082E+01  0.29273738446E+02  0.51100000000E-03 0. -1.
        -11    1    3    3    0    0  0.11463074626E+02  0.24704166893E+02 -0.27116167268E+01  0.27368792579E+02  0.51100000000E-03 0.  1.
        -12    1    3    3    0    0 -0.67211977798E+01 -0.14024204777E+02  0.28964630322E+01  0.15819049191E+02  0.00000000000E+00 0.  1.
</event>
<event>
 7    1  0.1874105E-013  0.7246157E+02  0.7816164E-02  0.1226708E+00
        -11   -1    0    0    0    0  0.00000000000E+00  0.00000000000E+00  0.45593999997E+02  0.45594000000E+02  0.51100000000E-03 0.  1.
         11   -1    0    0    0    0 -0.00000000000E+00 -0.00000000000E+00 -0.45593999997E+02  0.45594000000E+02  0.51100000000E-03 0. -1.
    9900012    2    1    2    0    0  0.53648525877E+01  0.17744324648E+02 -0.26526281958E+01  0.72461571167E+02  0.70000001136E+02 0.  0.
        -12    1    1    2    0    0 -0.53648525877E+01 -0.17744324648E+02  0.26526281958E+01  0.18726428833E+02  0.00000000000E+00 0.  1.
         11    1    3    3    0    0  0.12445191023E+02  0.14148032826E+02 -0.31542231821E+02  0.36741829037E+02  0.51100000000E-03 0. -1.
        -11    1    3    3    0    0 -0.13048933181E+02  0.12095411294E+01  0.12482554869E+02  0.18098392835E+02  0.51100000000E-03 0.  1.
         12    1    3    3    0    0  0.59685947449E+01  0.23867506923E+01  0.16407048755E+02  0.17621349295E+02  0.00000000000E+00 0. -1.
</event>
<event>
 7    1  0.2465619E-013  0.7246160E+02  0.7816164E-02  0.1226708E+00
        -11   -1    0    0    0    0  0.00000000000E+00  0.00000000000E+00  0.45593999997E+02  0.45594000000E+02  0.51100000000E-03 0. -1.
         11   -1    0    0    0    0 -0.00000000000E+00 -0.00000000000E+00 -0.45593999997E+02  0.45594000000E+02  0.51100000000E-03 0.  1.
    9900012    2    1    2    0    0  0.59778129192E+01  0.51374159050E+01  0.16986782462E+02  0.72461599708E+02  0.70000038317E+02 0.  0.
        -12    1    1    2    0    0 -0.59778129192E+01 -0.51374159050E+01 -0.16986782462E+02  0.18726400292E+02  0.00000000000E+00 0.  1.
         11    1    3    3    0    0 -0.10451205683E+01 -0.68199618800E+01  0.16713840098E+02  0.18081941492E+02  0.51100000000E-03 0. -1.
        -11    1    3    3    0    0 -0.17719515866E+02  0.21072271667E+02 -0.34599991443E+01  0.27748756189E+02  0.51100000000E-03 0.  1.
        -12    1    3    3    0    0  0.24742449353E+02 -0.91148938817E+01  0.37329415085E+01  0.26630902027E+02  0.00000000000E+00 0.  1.
</event>
<event>
 7    1  0.1874105E-013  0.7246156E+02  0.7816164E-02  0.1226708E+00
        -11   -1    0    0    0    0  0.00000000000E+00  0.00000000000E+00  0.45593999997E+02  0.45594000000E+02  0.51100000000E-03 0. -1.
         11   -1    0    0    0    0 -0.00000000000E+00 -0.00000000000E+00 -0.45593999997E+02  0.45594000000E+02  0.51100000000E-03 0.  1.
    9900012    2    1    2    0    0 -0.46426110634E+00  0.18689017556E+02 -0.10884081952E+01  0.72461560189E+02  0.69999986837E+02 0.  0.
        -12    1    1    2    0    0  0.46426110634E+00 -0.18689017556E+02  0.10884081952E+01  0.18726439811E+02  0.00000000000E+00 0.  1.
         11    1    3    3    0    0  0.11394152231E+02  0.22816734066E+02  0.24004270120E+02  0.35023349964E+02  0.51100000000E-03 0. -1.
        -11    1    3    3    0    0 -0.17092986923E+02 -0.66390483111E+01 -0.91944526132E+01  0.20513047641E+02  0.51100000000E-03 0.  1.
         12    1    3    3    0    0  0.52345735853E+01  0.25113318014E+01 -0.15898225702E+02  0.16925162584E+02  0.00000000000E+00 0. -1.
</event>
<event>
 7    1  0.1874105E-013  0.7246156E+02  0.7816164E-02  0.1226708E+00
        -11   -1    0    0    0    0  0.00000000000E+00  0.00000000000E+00  0.45593999997E+02  0.45594000000E+02  0.51100000000E-03 0.  1.
         11   -1    0    0    0    0 -0.00000000000E+00 -0.00000000000E+00 -0.45593999997E+02  0.45594000000E+02  0.51100000000E-03 0. -1.
    9900012    2    1    2    0    0 -0.84302514467E+01  0.27221730700E+01 -0.16498494454E+02  0.72461556532E+02  0.69999982073E+02 0.  0.
        -12    1    1    2    0    0  0.84302514467E+01 -0.27221730700E+01  0.16498494454E+02  0.18726443468E+02  0.00000000000E+00 0.  1.
         11    1    3    3    0    0 -0.78287476721E+01  0.30322064390E+01 -0.17013223067E+02  0.18971908850E+02  0.51100000000E-03 0. -1.
        -11    1    3    3    0    0  0.25341196718E+02 -0.55831925751E+01 -0.50553688192E+01  0.26436812300E+02  0.51100000000E-03 0.  1.
        -12    1    3    3    0    0 -0.25942700492E+02  0.52731592060E+01  0.55700974320E+01  0.27052835383E+02  0.00000000000E+00 0.  1.
</event>
<event>
 7    1  0.1874105E-013  0.7246152E+02  0.7816164E-02  0.1226708E+00
        -11   -1    0    0    0    0  0.00000000000E+00  0.00000000000E+00  0.45593999997E+02  0.45594000000E+02  0.51100000000E-03 0.  1.
         11   -1    0    0    0    0 -0.00000000000E+00 -0.00000000000E+00 -0.45593999997E+02  0.45594000000E+02  0.51100000000E-03 0. -1.
    9900012    2    1    2    0    0 -0.39637340691E+01 -0.17659538184E+00 -0.18301326813E+02  0.72461523107E+02  0.69999938529E+02 0.  0.
        -12    1    1    2    0    0  0.39637340691E+01  0.17659538184E+00  0.18301326813E+02  0.18726476893E+02  0.00000000000E+00 0.  1.
         11    1    3    3    0    0  0.12292916185E+02  0.57788243228E+01  0.13417383151E+02  0.19092846036E+02  0.51100000000E-03 0.  1.
        -11    1    3    3    0    0 -0.98015700521E+01 -0.22719245293E+02 -0.20974420852E+02  0.32437034582E+02  0.51100000000E-03 0. -1.
        -12    1    3    3    0    0 -0.64550802016E+01  0.16763825588E+02 -0.10744289112E+02  0.20931642489E+02  0.00000000000E+00 0.  1.
</event>
<event>
 7    1  0.1874105E-013  0.7246158E+02  0.7816164E-02  0.1226708E+00
        -11   -1    0    0    0    0  0.00000000000E+00  0.00000000000E+00  0.45593999997E+02  0.45594000000E+02  0.51100000000E-03 0. -1.
         11   -1    0    0    0    0 -0.00000000000E+00 -0.00000000000E+00 -0.45593999997E+02  0.45594000000E+02  0.51100000000E-03 0.  1.
    9900012    2    1    2    0    0  0.64800752772E+01  0.35805913168E+01  0.17200775678E+02  0.72461582999E+02  0.70000016550E+02 0.  0.
        -12    1    1    2    0    0 -0.64800752772E+01 -0.35805913168E+01 -0.17200775678E+02  0.18726417001E+02  0.00000000000E+00 0.  1.
         11    1    3    3    0    0 -0.23644750193E+02  0.11076328415E+02  0.90765769407E+01  0.27643145843E+02  0.51100000000E-03 0. -1.
        -11    1    3    3    0    0  0.18208371882E+02 -0.14008242584E+02  0.17013901689E+02  0.28587558794E+02  0.51100000000E-03 0.  1.
         12    1    3    3    0    0  0.11916453589E+02  0.65125054857E+01 -0.88897029518E+01  0.16230878362E+02  0.00000000000E+00 0. -1.
</event>
<event>
 7    1  0.1874105E-013  0.7246157E+02  0.7816164E-02  0.1226708E+00
        -11   -1    0    0    0    0  0.00000000000E+00  0.00000000000E+00  0.45593999997E+02  0.45594000000E+02  0.51100000000E-03 0. -1.
         11   -1    0    0    0    0 -0.00000000000E+00 -0.00000000000E+00 -0.45593999997E+02  0.45594000000E+02  0.51100000000E-03 0.  1.
    9900012    2    1    2    0    0 -0.30140596058E+01  0.17708272103E+02  0.52925989343E+01  0.72461573228E+02  0.70000003821E+02 0.  0.
        -12    1    1    2    0    0  0.30140596058E+01 -0.17708272103E+02 -0.52925989343E+01  0.18726426772E+02  0.00000000000E+00 0.  1.
         11    1    3    3    0    0  0.41681481430E+01  0.51739674233E+01  0.48399679173E+00  0.66616552743E+01  0.51100000000E-03 0. -1.
        -11    1    3    3    0    0  0.86296023572E+01 -0.23255542273E+02 -0.53504017242E+01  0.25375521318E+02  0.51100000000E-03 0.  1.
        -12    1    3    3    0    0 -0.15811810106E+02  0.35789846953E+02  0.10159003867E+02  0.40424396635E+02  0.00000000000E+00 0.  1.
</event>
<event>
 7    1  0.1874105E-013  0.7246161E+02  0.7816164E-02  0.1226708E+00
        -11   -1    0    0    0    0  0.00000000000E+00  0.00000000000E+00  0.45593999997E+02  0.45594000000E+02  0.51100000000E-03 0.  1.
         11   -1    0    0    0    0 -0.00000000000E+00 -0.00000000000E+00 -0.45593999997E+02  0.45594000000E+02  0.51100000000E-03 0. -1.
    9900012    2    1    2    0    0  0.16857138393E+01  0.26704810435E+01 -0.18458184645E+02  0.72461610050E+02  0.70000051789E+02 0.  0.
        -12    1    1    2    0    0 -0.16857138393E+01 -0.26704810435E+01  0.18458184645E+02  0.18726389950E+02  0.00000000000E+00 0.  1.
         11    1    3    3    0    0 -0.39818685040E+01 -0.15559506758E+02  0.72685325381E+01  0.17629097903E+02  0.51100000000E-03 0. -1.
        -11    1    3    3    0    0 -0.72441318529E+01  0.25932197089E+02 -0.23352539124E+01  0.27026093008E+02  0.51100000000E-03 0.  1.
        -12    1    3    3    0    0  0.12911714196E+02 -0.77022092877E+01 -0.23391463271E+02  0.27806419139E+02  0.00000000000E+00 0.  1.
</event>
<event>
 7    1  0.1874105E-013  0.7246155E+02  0.7816164E-02  0.1226708E+00
        -11   -1    0    0    0    0  0.00000000000E+00  0.00000000000E+00  0.45593999997E+02  0.45594000000E+02  0.51100000000E-03 0.  1.
         11   -1    0    0    0    0 -0.00000000000E+00 -0.00000000000E+00 -0.45593999997E+02  0.45594000000E+02  0.51100000000E-03 0. -1.
    9900012    2    1    2    0    0  0.75780020565E+01 -0.99541801551E+01 -0.13934418325E+02  0.72461552612E+02  0.69999976965E+02 0.  0.
        -12    1    1    2    0    0 -0.75780020565E+01  0.99541801551E+01  0.13934418325E+02  0.18726447388E+02  0.00000000000E+00 0.  1.
         11    1    3    3    0    0  0.28252970964E+02 -0.27116215573E+02 -0.14031835612E+02  0.41598220229E+02  0.51100000000E-03 0. -1.
        -11    1    3    3    0    0 -0.18501135059E+02  0.76975603326E+01 -0.38068087217E+01  0.20396966109E+02  0.51100000000E-03 0.  1.
         12    1    3    3    0    0 -0.21738338481E+01  0.94644750854E+01  0.39042260088E+01  0.10466366273E+02  0.00000000000E+00 0. -1.
</event>
<event>
 7    1  0.1874105E-013  0.7246155E+02  0.7816164E-02  0.1226708E+00
        -11   -1    0    0    0    0  0.00000000000E+00  0.00000000000E+00  0.45593999997E+02  0.45594000000E+02  0.51100000000E-03 0.  1.
         11   -1    0    0    0    0 -0.00000000000E+00 -0.00000000000E+00 -0.45593999997E+02  0.45594000000E+02  0.51100000000E-03 0. -1.
    9900012    2    1    2    0    0  0.16888253558E+02 -0.79438076501E+01 -0.15371733339E+01  0.72461545715E+02  0.69999967981E+02 0.  0.
        -12    1    1    2    0    0 -0.16888253558E+02  0.79438076501E+01  0.15371733339E+01  0.18726454285E+02  0.00000000000E+00 0.  1.
         11    1    3    3    0    0  0.12771430928E+02  0.11801184630E+02 -0.22616667713E+02  0.28528776093E+02  0.51100000000E-03 0. -1.
        -11    1    3    3    0    0 -0.51343554921E+01 -0.25836365554E+02  0.97494263488E+01  0.28087910313E+02  0.51100000000E-03 0.  1.
         12    1    3    3    0    0  0.92511781215E+01  0.60913732731E+01  0.11330068030E+02  0.15844859310E+02  0.00000000000E+00 0. -1.
</event>
<event>
 7    1  0.1874105E-013  0.7246158E+02  0.7816164E-02  0.1226708E+00
        -11   -1    0    0    0    0  0.00000000000E+00  0.00000000000E+00  0.45593999997E+02  0.45594000000E+02  0.51100000000E-03 0.  1.
         11   -1    0    0    0    0 -0.00000000000E+00 -0.00000000000E+00 -0.45593999997E+02  0.45594000000E+02  0.51100000000E-03 0. -1.
    9900012    2    1    2    0    0  0.13720808145E+02  0.57826684578E+01 -0.11356887386E+02  0.72461582250E+02  0.70000015575E+02 0.  0.
        -12    1    1    2    0    0 -0.13720808145E+02 -0.57826684578E+01  0.11356887386E+02  0.18726417750E+02  0.00000000000E+00 0.  1.
         11    1    3    3    0    0  0.18543150422E+02 -0.96720638977E+01 -0.11644018703E+02  0.23937009409E+02  0.51100000000E-03 0. -1.
        -11    1    3    3    0    0  0.36105443645E+00 -0.52938278996E+01  0.19234106608E+02  0.19952589591E+02  0.51100000000E-03 0.  1.
        -12    1    3    3    0    0 -0.51833967135E+01  0.20748560255E+02 -0.18946975291E+02  0.28571983250E+02  0.00000000000E+00 0.  1.
</event>
<event>
 7    1  0.1874105E-013  0.7246150E+02  0.7816164E-02  0.1226708E+00
        -11   -1    0    0    0    0  0.00000000000E+00  0.00000000000E+00  0.45593999997E+02  0.45594000000E+02  0.51100000000E-03 0. -1.
         11   -1    0    0    0    0 -0.00000000000E+00 -0.00000000000E+00 -0.45593999997E+02  0.45594000000E+02  0.51100000000E-03 0.  1.
    9900012    2    1    2    0    0  0.13777354833E+02 -0.83505831352E+01  0.95464221600E+01  0.72461496831E+02  0.69999904300E+02 0.  0.
        -12    1    1    2    0    0 -0.13777354833E+02  0.83505831352E+01 -0.95464221600E+01  0.18726503169E+02  0.00000000000E+00 0.  1.
         11    1    3    3    0    0 -0.14190505814E+02 -0.18348120163E+02  0.18441826272E+02  0.29633172717E+02  0.51100000000E-03 0. -1.
        -11    1    3    3    0    0  0.22419261852E+02  0.64240334110E+01 -0.19458417234E+02  0.30373039176E+02  0.51100000000E-03 0.  1.
        -12    1    3    3    0    0  0.55485987950E+01  0.35735036164E+01  0.10563013122E+02  0.12455284938E+02  0.00000000000E+00 0.  1.
</event>
<event>
 7    1  0.1874105E-013  0.7246159E+02  0.7816164E-02  0.1226708E+00
        -11   -1    0    0    0    0  0.00000000000E+00  0.00000000000E+00  0.45593999997E+02  0.45594000000E+02  0.51100000000E-03 0. -1.
         11   -1    0    0    0    0 -0.00000000000E+00 -0.00000000000E+00 -0.45593999997E+02  0.45594000000E+02  0.51100000000E-03 0.  1.
    9900012    2    1    2    0    0 -0.23358016673E+01 -0.15905280846E+02  0.96044043178E+01  0.72461587890E+02  0.70000022922E+02 0.  0.
        -12    1    1    2    0    0  0.23358016673E+01  0.15905280846E+02 -0.96044043178E+01  0.18726412110E+02  0.00000000000E+00 0.  1.
         11    1    3    3    0    0 -0.13886322243E+02 -0.65840917928E+01  0.30230766993E+02  0.33912821815E+02  0.51100000000E-03 0. -1.
        -11    1    3    3    0    0  0.74219235620E+01 -0.18574927217E+02 -0.62428501972E+01  0.20954380194E+02  0.51100000000E-03 0.  1.
         12    1    3    3    0    0  0.41285970138E+01  0.92537381641E+01 -0.14383512478E+02  0.17594385881E+02  0.00000000000E+00 0. -1.
</event>
<event>
 7    1  0.1874105E-013  0.7246152E+02  0.7816164E-02  0.1226708E+00
        -11   -1    0    0    0    0  0.00000000000E+00  0.00000000000E+00  0.45593999997E+02  0.45594000000E+02  0.51100000000E-03 0. -1.
         11   -1    0    0    0    0 -0.00000000000E+00 -0.00000000000E+00 -0.45593999997E+02  0.45594000000E+02  0.51100000000E-03 0.  1.
    9900012    2    1    2    0    0  0.14927729337E+02 -0.33574498632E+00 -0.11301825543E+02  0.72461519058E+02  0.69999933256E+02 0.  0.
        -12    1    1    2    0    0 -0.14927729337E+02  0.33574498632E+00  0.11301825543E+02  0.18726480942E+02  0.00000000000E+00 0.  1.
         11    1    3    3    0    0 -0.14120262081E+02 -0.19074590422E+02 -0.82591010635E+01  0.25128361500E+02  0.51100000000E-03 0.  1.
        -11    1    3    3    0    0  0.33700800477E+02  0.72565644457E+01  0.39651871718E+00  0.34475482705E+02  0.51100000000E-03 0. -1.
         12    1    3    3    0    0 -0.46528090595E+01  0.11482280990E+02 -0.34392431970E+01  0.12857674854E+02  0.00000000000E+00 0. -1.
</event>
<event>
 7    1  0.1874105E-013  0.7246152E+02  0.7816164E-02  0.1226708E+00
        -11   -1    0    0    0    0  0.00000000000E+00  0.00000000000E+00  0.45593999997E+02  0.45594000000E+02  0.51100000000E-03 0.  1.
         11   -1    0    0    0    0 -0.00000000000E+00 -0.00000000000E+00 -0.45593999997E+02  0.45594000000E+02  0.51100000000E-03 0. -1.
    9900012    2    1    2    0    0  0.72120958584E+01 -0.61278265169E+01 -0.16159098906E+02  0.72461519766E+02  0.69999934178E+02 0.  0.
        -12    1    1    2    0    0 -0.72120958584E+01  0.61278265169E+01  0.16159098906E+02  0.18726480234E+02  0.00000000000E+00 0.  1.
         11    1    3    3    0    0 -0.19167698044E+02  0.35686011594E+01 -0.76962407876E+01  0.20961099328E+02  0.51100000000E-03 0. -1.
        -11    1    3    3    0    0  0.27204434300E+02 -0.23878332126E+02 -0.31525651431E+01  0.36334483042E+02  0.51100000000E-03 0.  1.
         12    1    3    3    0    0 -0.82464039748E+00  0.14181904450E+02 -0.53102929753E+01  0.15165937396E+02  0.00000000000E+00 0. -1.
</event>
<event>
 7    1  0.1874105E-013  0.7246160E+02  0.7816164E-02  0.1226708E+00
        -11   -1    0    0    0    0  0.00000000000E+00  0.00000000000E+00  0.45593999997E+02  0.45594000000E+02  0.51100000000E-03 0.  1.
         11   -1    0    0    0    0 -0.00000000000E+00 -0.00000000000E+00 -0.45593999997E+02  0.45594000000E+02  0.51100000000E-03 0. -1.
    9900012    2    1    2    0    0 -0.80179081787E+01  0.10231687139E+02 -0.13479754377E+02  0.72461600150E+02  0.70000038893E+02 0.  0.
        -12    1    1    2    0    0  0.80179081787E+01 -0.10231687139E+02  0.13479754377E+02  0.18726399850E+02  0.00000000000E+00 0.  1.
         11    1    3    3    0    0 -0.70368301392E+00  0.17661133923E+02 -0.18656199858E+02  0.25699506117E+02  0.51100000000E-03 0. -1.
        -11    1    3    3    0    0  0.11059482792E+01 -0.22588334027E+02  0.14705331961E+02  0.26975966044E+02  0.51100000000E-03 0.  1.
         12    1    3    3    0    0 -0.84201734440E+01  0.15158887242E+02 -0.95288864794E+01  0.19786127989E+02  0.00000000000E+00 0. -1.
</event>
<event>
 7    1  0.1874105E-013  0.7246161E+02  0.7816164E-02  0.1226708E+00
        -11   -1    0    0    0    0  0.00000000000E+00  0.00000000000E+00  0.45593999997E+02  0.45594000000E+02  0.51100000000E-03 0.  1.
         11   -1    0    0    0    0 -0.00000000000E+00 -0.00000000000E+00 -0.45593999997E+02  0.45594000000E+02  0.51100000000E-03 0. -1.
    9900012    2    1    2    0    0 -0.17824809420E+02  0.57308602487E+01  0.33311374217E+00  0.72461613408E+02  0.70000056163E+02 0.  0.
        -12    1    1    2    0    0  0.17824809420E+02 -0.57308602487E+01 -0.33311374217E+00  0.18726386592E+02  0.00000000000E+00 0.  1.
         11    1    3    3    0    0  0.95493212901E+01  0.40006016407E+00 -0.60377693524E+01  0.11305053925E+02  0.51100000000E-03 0. -1.
        -11    1    3    3    0    0 -0.28502432776E+02  0.26286671606E+02 -0.13453057116E+01  0.38796747621E+02  0.51100000000E-03 0.  1.
        -12    1    3    3    0    0  0.11283020662E+01 -0.20955871521E+02  0.77161888062E+01  0.22359811861E+02  0.00000000000E+00 0.  1.
</event>
<event>
 7    1  0.1874105E-013  0.7246156E+02  0.7816164E-02  0.1226708E+00
        -11   -1    0    0    0    0  0.00000000000E+00  0.00000000000E+00  0.45593999997E+02  0.45594000000E+02  0.51100000000E-03 0.  1.
         11   -1    0    0    0    0 -0.00000000000E+00 -0.00000000000E+00 -0.45593999997E+02  0.45594000000E+02  0.51100000000E-03 0. -1.
    9900012    2    1    2    0    0 -0.44500625851E+01 -0.13638838435E+02 -0.12035724196E+02  0.72461558058E+02  0.69999984060E+02 0.  0.
        -12    1    1    2    0    0  0.44500625851E+01  0.13638838435E+02  0.12035724196E+02  0.18726441942E+02  0.00000000000E+00 0.  1.
         11    1    3    3    0    0  0.20282384120E+01 -0.46363596517E+01 -0.49074526892E+01  0.70493030885E+01  0.51100000000E-03 0. -1.
        -11    1    3    3    0    0  0.63500958416E+01  0.64458645231E+00  0.26975360056E+02  0.27720195874E+02  0.51100000000E-03 0.  1.
        -12    1    3    3    0    0 -0.12828396839E+02 -0.96470652357E+01 -0.34103631563E+02  0.37692059096E+02  0.00000000000E+00 0.  1.
</event>
<event>
 8    1  0.1874105E-013  0.7246161E+02  0.7816164E-02  0.1226708E+00
        -11   -1    0    0    0    0  0.00000000000E+00  0.00000000000E+00  0.45593999997E+02  0.45594000000E+02  0.51100000000E-03 0.  1.
         11   -1    0    0    0    0 -0.00000000000E+00 -0.00000000000E+00 -0.45593999997E+02  0.45594000000E+02  0.51100000000E-03 0. -1.
    9900012    2    1    2    0    0 -0.18196896893E+02  0.20934129999E+01  0.38946653544E+01  0.72461605452E+02  0.70000045800E+02 0.  0.
         24    2    3    3    0    0 -0.23555178965E+02 -0.12641999242E+02  0.32409388675E+00  0.56380792613E+02  0.49638917574E+02 0.  0.
        -12    1    1    2    0    0  0.18196896893E+02 -0.20934129999E+01 -0.38946653544E+01  0.18726394548E+02  0.00000000000E+00 0.  1.
         11    1    3    3    0    0  0.53582820722E+01  0.14735412242E+02  0.35705714677E+01  0.16080812839E+02  0.51100000000E-03 0. -1.
        -11    1    4    4    0    0 -0.32682931958E+02 -0.19810080175E+02  0.11861069434E+02  0.40016225288E+02  0.51100000000E-03 0.  1.
         12    1    4    4    0    0  0.91277529926E+01  0.71680809325E+01 -0.11536975548E+02  0.16364567325E+02  0.00000000000E+00 0. -1.
</event>
<event>
 7    1  0.1874105E-013  0.7246159E+02  0.7816164E-02  0.1226708E+00
        -11   -1    0    0    0    0  0.00000000000E+00  0.00000000000E+00  0.45593999997E+02  0.45594000000E+02  0.51100000000E-03 0.  1.
         11   -1    0    0    0    0 -0.00000000000E+00 -0.00000000000E+00 -0.45593999997E+02  0.45594000000E+02  0.51100000000E-03 0. -1.
    9900012    2    1    2    0    0 -0.12549178870E+02  0.10445523780E+02 -0.91699262662E+01  0.72461590705E+02  0.70000026589E+02 0.  0.
        -12    1    1    2    0    0  0.12549178870E+02 -0.10445523780E+02  0.91699262662E+01  0.18726409295E+02  0.00000000000E+00 0.  1.
         11    1    3    3    0    0  0.12320954486E+02 -0.16151801973E+02 -0.19877122263E+02  0.28421587150E+02  0.51100000000E-03 0. -1.
        -11    1    3    3    0    0 -0.10566244383E+02  0.18965475155E+02  0.16017954151E+02  0.26979800289E+02  0.51100000000E-03 0.  1.
         12    1    3    3    0    0 -0.14303888973E+02  0.76318505981E+01 -0.53107581542E+01  0.17060203266E+02  0.00000000000E+00 0. -1.
</event>
<event>
 7    1  0.1874105E-013  0.7246160E+02  0.7816164E-02  0.1226708E+00
        -11   -1    0    0    0    0  0.00000000000E+00  0.00000000000E+00  0.45593999997E+02  0.45594000000E+02  0.51100000000E-03 0.  1.
         11   -1    0    0    0    0 -0.00000000000E+00 -0.00000000000E+00 -0.45593999997E+02  0.45594000000E+02  0.51100000000E-03 0. -1.
    9900012    2    1    2    0    0  0.24645839370E+00  0.93371877601E+01 -0.16230655428E+02  0.72461601717E+02  0.70000040934E+02 0.  0.
        -12    1    1    2    0    0 -0.24645839370E+00 -0.93371877601E+01  0.16230655428E+02  0.18726398283E+02  0.00000000000E+00 0.  1.
         11    1    3    3    0    0  0.14852810766E+02  0.25336919615E+02  0.11350066907E+01  0.29391388597E+02  0.51100000000E-03 0. -1.
        -11    1    3    3    0    0  0.60317430945E+00 -0.19651740248E+02  0.50468485128E-01  0.19661059517E+02  0.51100000000E-03 0.  1.
         12    1    3    3    0    0 -0.15209526682E+02  0.36520083929E+01 -0.17416130604E+02  0.23409153603E+02  0.00000000000E+00 0. -1.
</event>
<event>
 7    1  0.1874105E-013  0.7246154E+02  0.7816164E-02  0.1226708E+00
        -11   -1    0    0    0    0  0.00000000000E+00  0.00000000000E+00  0.45593999997E+02  0.45594000000E+02  0.51100000000E-03 0. -1.
         11   -1    0    0    0    0 -0.00000000000E+00 -0.00000000000E+00 -0.45593999997E+02  0.45594000000E+02  0.51100000000E-03 0.  1.
    9900012    2    1    2    0    0  0.17648449007E+02 -0.36464484827E+01  0.50907736890E+01  0.72461539693E+02  0.69999960136E+02 0.  0.
        -12    1    1    2    0    0 -0.17648449007E+02  0.36464484827E+01 -0.50907736890E+01  0.18726460307E+02  0.00000000000E+00 0.  1.
         11    1    3    3    0    0  0.19510385139E+02  0.11035065671E+02 -0.88437158050E+01  0.24096454348E+02  0.51100000000E-03 0. -1.
        -11    1    3    3    0    0 -0.20398583592E+02  0.17553123689E+01  0.11994630521E+01  0.20509072284E+02  0.51100000000E-03 0.  1.
        -12    1    3    3    0    0  0.18536647459E+02 -0.16436826523E+02  0.12735026442E+02  0.27856013061E+02  0.00000000000E+00 0.  1.
</event>
<event>
 7    1  0.1874105E-013  0.7246159E+02  0.7816164E-02  0.1226708E+00
        -11   -1    0    0    0    0  0.00000000000E+00  0.00000000000E+00  0.45593999997E+02  0.45594000000E+02  0.51100000000E-03 0.  1.
         11   -1    0    0    0    0 -0.00000000000E+00 -0.00000000000E+00 -0.45593999997E+02  0.45594000000E+02  0.51100000000E-03 0. -1.
    9900012    2    1    2    0    0 -0.15278539730E+02  0.85949848472E+01 -0.65856667152E+01  0.72461586919E+02  0.70000021657E+02 0.  0.
        -12    1    1    2    0    0  0.15278539730E+02 -0.85949848472E+01  0.65856667152E+01  0.18726413081E+02  0.00000000000E+00 0.  1.
         11    1    3    3    0    0  0.26992435888E+01  0.25786680633E+01 -0.30635657320E+02  0.30862257608E+02  0.51100000000E-03 0. -1.
        -11    1    3    3    0    0 -0.15586145663E+01  0.10951539671E+02  0.21616733122E+02  0.24282682135E+02  0.51100000000E-03 0.  1.
        -12    1    3    3    0    0 -0.16419168752E+02 -0.49352228872E+01  0.24332574827E+01  0.17316647176E+02  0.00000000000E+00 0.  1.
</event>
<event>
 7    1  0.1874105E-013  0.7246155E+02  0.7816164E-02  0.1226708E+00
        -11   -1    0    0    0    0  0.00000000000E+00  0.00000000000E+00  0.45593999997E+02  0.45594000000E+02  0.51100000000E-03 0.  1.
         11   -1    0    0    0    0 -0.00000000000E+00 -0.00000000000E+00 -0.45593999997E+02  0.45594000000E+02  0.51100000000E-03 0. -1.
    9900012    2    1    2    0    0  0.22472603775E+01 -0.15135950636E+02 -0.10795029126E+02  0.72461552534E+02  0.69999976863E+02 0.  0.
        -12    1    1    2    0    0 -0.22472603775E+01  0.15135950636E+02  0.10795029126E+02  0.18726447466E+02  0.00000000000E+00 0.  1.
         11    1    3    3    0    0 -0.56133420586E+01 -0.21529805668E+02 -0.33851173946E+01  0.22505580668E+02  0.51100000000E-03 0. -1.
        -11    1    3    3    0    0 -0.11185948116E+02  0.15462970003E+02  0.10938579886E+02  0.21997304534E+02  0.51100000000E-03 0.  1.
        -12    1    3    3    0    0  0.19046550552E+02 -0.90691149716E+01 -0.18348491617E+02  0.27958667331E+02  0.00000000000E+00 0.  1.
</event>
<event>
 7    1  0.1874105E-013  0.7246155E+02  0.7816164E-02  0.1226708E+00
        -11   -1    0    0    0    0  0.00000000000E+00  0.00000000000E+00  0.45593999997E+02  0.45594000000E+02  0.51100000000E-03 0.  1.
         11   -1    0    0    0    0 -0.00000000000E+00 -0.00000000000E+00 -0.45593999997E+02  0.45594000000E+02  0.51100000000E-03 0. -1.
    9900012    2    1    2    0    0  0.79678255353E+01 -0.34417407149E+00 -0.16943297240E+02  0.72461547562E+02  0.69999970387E+02 0.  0.
        -12    1    1    2    0    0 -0.79678255353E+01  0.34417407149E+00  0.16943297240E+02  0.18726452438E+02  0.00000000000E+00 0.  1.
         11    1    3    3    0    0  0.13970453942E+02 -0.98805868650E+01 -0.25574009411E+02  0.30770595343E+02  0.51100000000E-03 0. -1.
        -11    1    3    3    0    0 -0.22472021800E+02  0.70588266675E+01  0.15869866536E+01  0.23607992812E+02  0.51100000000E-03 0.  1.
        -12    1    3    3    0    0  0.16469393394E+02  0.24775861260E+01  0.70437255176E+01  0.18082959408E+02  0.00000000000E+00 0.  1.
</event>
<event>
 7    1  0.1874105E-013  0.7246143E+02  0.7816164E-02  0.1226708E+00
        -11   -1    0    0    0    0  0.00000000000E+00  0.00000000000E+00  0.45593999997E+02  0.45594000000E+02  0.51100000000E-03 0.  1.
         11   -1    0    0    0    0 -0.00000000000E+00 -0.00000000000E+00 -0.45593999997E+02  0.45594000000E+02  0.51100000000E-03 0. -1.
    9900012    2    1    2    0    0 -0.81396572052E+01 -0.44728931824E+01 -0.16261112872E+02  0.72461425709E+02  0.69999811650E+02 0.  0.
        -12    1    1    2    0    0  0.81396572052E+01  0.44728931824E+01  0.16261112872E+02  0.18726574291E+02  0.00000000000E+00 0.  1.
         11    1    3    3    0    0  0.12186484186E+02  0.18478984695E+02  0.63001145191E+01  0.23014663051E+02  0.51100000000E-03 0. -1.
        -11    1    3    3    0    0 -0.25529574775E+02 -0.90751359785E+01 -0.21500049788E+02  0.34588573581E+02  0.51100000000E-03 0.  1.
         12    1    3    3    0    0  0.52034333846E+01 -0.13876741899E+02 -0.10611776038E+01  0.14858189076E+02  0.00000000000E+00 0. -1.
</event>
<event>
 7    1  0.1874105E-013  0.7246154E+02  0.7816164E-02  0.1226708E+00
        -11   -1    0    0    0    0  0.00000000000E+00  0.00000000000E+00  0.45593999997E+02  0.45594000000E+02  0.51100000000E-03 0.  1.
         11   -1    0    0    0    0 -0.00000000000E+00 -0.00000000000E+00 -0.45593999997E+02  0.45594000000E+02  0.51100000000E-03 0. -1.
    9900012    2    1    2    0    0 -0.18191413939E+02  0.11174537245E+01  0.43016395661E+01  0.72461538859E+02  0.69999959050E+02 0.  0.
        -12    1    1    2    0    0  0.18191413939E+02 -0.11174537245E+01 -0.43016395661E+01  0.18726461141E+02  0.00000000000E+00 0.  1.
         11    1    3    3    0    0 -0.16997988645E+01 -0.67972154876E+01 -0.90102068444E+01  0.11413819790E+02  0.51100000000E-03 0. -1.
        -11    1    3    3    0    0  0.13065504438E+02  0.25115984891E+01  0.25389493360E+02  0.28664296721E+02  0.51100000000E-03 0.  1.
        -12    1    3    3    0    0 -0.29557119512E+02  0.54030707230E+01 -0.12077646949E+02  0.32383422347E+02  0.00000000000E+00 0.  1.
</event>
<event>
 7    1  0.1874105E-013  0.7246160E+02  0.7816164E-02  0.1226708E+00
        -11   -1    0    0    0    0  0.00000000000E+00  0.00000000000E+00  0.45593999997E+02  0.45594000000E+02  0.51100000000E-03 0. -1.
         11   -1    0    0    0    0 -0.00000000000E+00 -0.00000000000E+00 -0.45593999997E+02  0.45594000000E+02  0.51100000000E-03 0.  1.
    9900012    2    1    2    0    0 -0.73803328084E+01 -0.11303056662E+02  0.12978811934E+02  0.72461602549E+02  0.70000042018E+02 0.  0.
        -12    1    1    2    0    0  0.73803328084E+01  0.11303056662E+02 -0.12978811934E+02  0.18726397451E+02  0.00000000000E+00 0.  1.
         11    1    3    3    0    0 -0.31706224942E+02 -0.13966338834E+02  0.97263607317E+01  0.35985349989E+02  0.51100000000E-03 0.  1.
        -11    1    3    3    0    0  0.15696500698E+02  0.13131439751E+02  0.81847833499E+01  0.22040996412E+02  0.51100000000E-03 0. -1.
         12    1    3    3    0    0  0.86293914354E+01 -0.10468157579E+02 -0.49323321476E+01  0.14435256148E+02  0.00000000000E+00 0. -1.
</event>
<event>
 7    1  0.1874105E-013  0.7246158E+02  0.7816164E-02  0.1226708E+00
        -11   -1    0    0    0    0  0.00000000000E+00  0.00000000000E+00  0.45593999997E+02  0.45594000000E+02  0.51100000000E-03 0.  1.
         11   -1    0    0    0    0 -0.00000000000E+00 -0.00000000000E+00 -0.45593999997E+02  0.45594000000E+02  0.51100000000E-03 0. -1.
    9900012    2    1    2    0    0 -0.11735252554E+02  0.10011882807E+02 -0.10617200285E+02  0.72461577711E+02  0.70000009662E+02 0.  0.
        -12    1    1    2    0    0  0.11735252554E+02 -0.10011882807E+02  0.10617200285E+02  0.18726422289E+02  0.00000000000E+00 0.  1.
         11    1    3    3    0    0  0.10593890407E+01  0.19846909005E+01 -0.36284017979E+01  0.42692625802E+01  0.51100000000E-03 0. -1.
        -11    1    3    3    0    0 -0.39700130098E+02  0.97066196157E+01 -0.46494346664E+01  0.41133150100E+02  0.51100000000E-03 0.  1.
        -12    1    3    3    0    0  0.26905488504E+02 -0.16794277087E+01 -0.23393638209E+01  0.27059165030E+02  0.00000000000E+00 0.  1.
</event>
<event>
 7    1  0.1874105E-013  0.7246160E+02  0.7816164E-02  0.1226708E+00
        -11   -1    0    0    0    0  0.00000000000E+00  0.00000000000E+00  0.45593999997E+02  0.45594000000E+02  0.51100000000E-03 0. -1.
         11   -1    0    0    0    0 -0.00000000000E+00 -0.00000000000E+00 -0.45593999997E+02  0.45594000000E+02  0.51100000000E-03 0.  1.
    9900012    2    1    2    0    0 -0.14770271967E+01  0.57895785645E+01  0.17747601259E+02  0.72461596721E+02  0.70000034426E+02 0.  0.
        -12    1    1    2    0    0  0.14770271967E+01 -0.57895785645E+01 -0.17747601259E+02  0.18726403279E+02  0.00000000000E+00 0.  1.
         11    1    3    3    0    0  0.26387151404E+02  0.99599364173E+01  0.20176666811E+02  0.34678234910E+02  0.51100000000E-03 0. -1.
        -11    1    3    3    0    0 -0.12807866049E+02  0.92006636713E+01 -0.68071430271E+01  0.17176461835E+02  0.51100000000E-03 0.  1.
         12    1    3    3    0    0 -0.15056312551E+02 -0.13371021524E+02  0.43780774754E+01  0.20606899976E+02  0.00000000000E+00 0. -1.
</event>
<event>
 7    1  0.1874105E-013  0.7246148E+02  0.7816164E-02  0.1226708E+00
        -11   -1    0    0    0    0  0.00000000000E+00  0.00000000000E+00  0.45593999997E+02  0.45594000000E+02  0.51100000000E-03 0.  1.
         11   -1    0    0    0    0 -0.00000000000E+00 -0.00000000000E+00 -0.45593999997E+02  0.45594000000E+02  0.51100000000E-03 0. -1.
    9900012    2    1    2    0    0 -0.77213558143E+01  0.11945156416E+02 -0.12180980700E+02  0.72461484354E+02  0.69999888047E+02 0.  0.
        -12    1    1    2    0    0  0.77213558143E+01 -0.11945156416E+02  0.12180980700E+02  0.18726515646E+02  0.00000000000E+00 0.  1.
         11    1    3    3    0    0 -0.12951706580E+02  0.61455043482E+01 -0.30998717484E+02  0.34153102538E+02  0.51100000000E-03 0. -1.
        -11    1    3    3    0    0  0.30219319452E+01  0.17496928317E+02  0.19515203698E+02  0.26384043451E+02  0.51100000000E-03 0.  1.
         12    1    3    3    0    0  0.22084188208E+01 -0.11697276249E+02 -0.69746691418E+00  0.11924338365E+02  0.00000000000E+00 0. -1.
</event>
<event>
 7    1  0.1874105E-013  0.7246150E+02  0.7816164E-02  0.1226708E+00
        -11   -1    0    0    0    0  0.00000000000E+00  0.00000000000E+00  0.45593999997E+02  0.45594000000E+02  0.51100000000E-03 0. -1.
         11   -1    0    0    0    0 -0.00000000000E+00 -0.00000000000E+00 -0.45593999997E+02  0.45594000000E+02  0.51100000000E-03 0.  1.
    9900012    2    1    2    0    0  0.23868545560E+01 -0.80745288641E+01  0.16726827658E+02  0.72461498604E+02  0.69999906610E+02 0.  0.
        -12    1    1    2    0    0 -0.23868545560E+01  0.80745288641E+01 -0.16726827658E+02  0.18726501396E+02  0.00000000000E+00 0.  1.
         11    1    3    3    0    0  0.26056238177E+02  0.14740327129E+00  0.30530278390E+02  0.40137852140E+02  0.51100000000E-03 0. -1.
        -11    1    3    3    0    0 -0.37463611816E+01 -0.60082205967E+01 -0.94540905020E+01  0.11811594487E+02  0.51100000000E-03 0.  1.
         12    1    3    3    0    0 -0.19923022439E+02 -0.22137115387E+01 -0.43493602300E+01  0.20512051977E+02  0.00000000000E+00 0. -1.
</event>
<event>
 7    1  0.1874105E-013  0.7246153E+02  0.7816164E-02  0.1226708E+00
        -11   -1    0    0    0    0  0.00000000000E+00  0.00000000000E+00  0.45593999997E+02  0.45594000000E+02  0.51100000000E-03 0.  1.
         11   -1    0    0    0    0 -0.00000000000E+00 -0.00000000000E+00 -0.45593999997E+02  0.45594000000E+02  0.51100000000E-03 0. -1.
    9900012    2    1    2    0    0  0.15718261497E+01 -0.15518649143E+02 -0.10362499725E+02  0.72461534524E+02  0.69999953402E+02 0.  0.
        -12    1    1    2    0    0 -0.15718261497E+01  0.15518649143E+02  0.10362499725E+02  0.18726465476E+02  0.00000000000E+00 0.  1.
         11    1    3    3    0    0 -0.99490168622E+01  0.14609753254E+01 -0.11025293294E+02  0.14922281257E+02  0.51100000000E-03 0. -1.
        -11    1    3    3    0    0  0.21340574309E+02 -0.30838064884E+02 -0.81897267855E+01  0.38385908647E+02  0.51100000000E-03 0.  1.
        -12    1    3    3    0    0 -0.98197312970E+01  0.13858440415E+02  0.88525203544E+01  0.19153344620E+02  0.00000000000E+00 0.  1.
</event>
<event>
 7    1  0.1874105E-013  0.7246151E+02  0.7816164E-02  0.1226708E+00
        -11   -1    0    0    0    0  0.00000000000E+00  0.00000000000E+00  0.45593999997E+02  0.45594000000E+02  0.51100000000E-03 0.  1.
         11   -1    0    0    0    0 -0.00000000000E+00 -0.00000000000E+00 -0.45593999997E+02  0.45594000000E+02  0.51100000000E-03 0. -1.
    9900012    2    1    2    0    0  0.98775312601E+01  0.11735133321E+02 -0.10742560062E+02  0.72461506080E+02  0.69999916348E+02 0.  0.
        -12    1    1    2    0    0 -0.98775312601E+01 -0.11735133321E+02  0.10742560062E+02  0.18726493920E+02  0.00000000000E+00 0.  1.
         11    1    3    3    0    0  0.13003968407E+02  0.11576032591E+02 -0.11223193543E+02  0.20713951782E+02  0.51100000000E-03 0. -1.
        -11    1    3    3    0    0 -0.51515814787E+01  0.20134703133E+02  0.16116100597E+02  0.26299691266E+02  0.51100000000E-03 0.  1.
        -12    1    3    3    0    0  0.20251443323E+01 -0.19975602403E+02 -0.15635467116E+02  0.25447863031E+02  0.00000000000E+00 0.  1.
</event>
<event>
 7    1  0.1874105E-013  0.7246156E+02  0.7816164E-02  0.1226708E+00
        -11   -1    0    0    0    0  0.00000000000E+00  0.00000000000E+00  0.45593999997E+02  0.45594000000E+02  0.51100000000E-03 0. -1.
         11   -1    0    0    0    0 -0.00000000000E+00 -0.00000000000E+00 -0.45593999997E+02  0.45594000000E+02  0.51100000000E-03 0.  1.
    9900012    2    1    2    0    0  0.66776344256E+01 -0.17187065534E+02  0.32701171680E+01  0.72461556411E+02  0.69999981915E+02 0.  0.
        -12    1    1    2    0    0 -0.66776344256E+01  0.17187065534E+02 -0.32701171680E+01  0.18726443589E+02  0.00000000000E+00 0.  1.
         11    1    3    3    0    0 -0.29072086141E+02 -0.17702795064E+02  0.17460701793E+01  0.34082604170E+02  0.51100000000E-03 0. -1.
        -11    1    3    3    0    0  0.26501747387E+02  0.57785976860E+01  0.40958894840E+01  0.27431936073E+02  0.51100000000E-03 0.  1.
         12    1    3    3    0    0  0.92479731799E+01 -0.52628681562E+01 -0.25718424953E+01  0.10947016168E+02  0.00000000000E+00 0. -1.
</event>
<event>
 7    1  0.1874105E-013  0.7246091E+02  0.7816164E-02  0.1226710E+00
        -11   -1    0    0    0    0  0.00000000000E+00  0.00000000000E+00  0.45593999997E+02  0.45594000000E+02  0.51100000000E-03 0.  1.
         11   -1    0    0    0    0 -0.00000000000E+00 -0.00000000000E+00 -0.45593999997E+02  0.45594000000E+02  0.51100000000E-03 0. -1.
    9900012    2    1    2    0    0  0.13968612532E+02 -0.11302533616E+02  0.52758447100E+01  0.72460908939E+02  0.69999138456E+02 0.  0.
        -12    1    1    2    0    0 -0.13968612532E+02  0.11302533616E+02 -0.52758447100E+01  0.18727091061E+02  0.00000000000E+00 0.  1.
         11    1    3    3    0    0  0.66924535143E+01 -0.30036683902E+02 -0.23737172486E+00  0.30774139459E+02  0.51100000000E-03 0. -1.
        -11    1    3    3    0    0 -0.11573769018E+01  0.19546291279E+02  0.17999982342E+02  0.26596924420E+02  0.51100000000E-03 0.  1.
         12    1    3    3    0    0  0.84335359194E+01 -0.81214099322E+00 -0.12486765907E+02  0.15089845059E+02  0.00000000000E+00 0. -1.
</event>
<event>
 7    1  0.1874105E-013  0.7246158E+02  0.7816164E-02  0.1226708E+00
        -11   -1    0    0    0    0  0.00000000000E+00  0.00000000000E+00  0.45593999997E+02  0.45594000000E+02  0.51100000000E-03 0. -1.
         11   -1    0    0    0    0 -0.00000000000E+00 -0.00000000000E+00 -0.45593999997E+02  0.45594000000E+02  0.51100000000E-03 0.  1.
    9900012    2    1    2    0    0 -0.11687320004E+02 -0.10300693357E+02  0.10391400771E+02  0.72461576356E+02  0.70000007896E+02 0.  0.
        -12    1    1    2    0    0  0.11687320004E+02  0.10300693357E+02 -0.10391400771E+02  0.18726423644E+02  0.00000000000E+00 0.  1.
         11    1    3    3    0    0 -0.10649442642E+02 -0.23075912353E+02 -0.97269551490E+01  0.27212534176E+02  0.51100000000E-03 0. -1.
        -11    1    3    3    0    0 -0.96425102058E+01  0.23264701446E+02  0.64634593687E+01  0.26000012379E+02  0.51100000000E-03 0.  1.
        -12    1    3    3    0    0  0.86046328443E+01 -0.10489482450E+02  0.13654896552E+02  0.19249029801E+02  0.00000000000E+00 0.  1.
</event>
<event>
 7    1  0.1874105E-013  0.7246158E+02  0.7816164E-02  0.1226708E+00
        -11   -1    0    0    0    0  0.00000000000E+00  0.00000000000E+00  0.45593999997E+02  0.45594000000E+02  0.51100000000E-03 0. -1.
         11   -1    0    0    0    0 -0.00000000000E+00 -0.00000000000E+00 -0.45593999997E+02  0.45594000000E+02  0.51100000000E-03 0.  1.
    9900012    2    1    2    0    0 -0.29395739123E+01 -0.17147029842E+02  0.69294487035E+01  0.72461575181E+02  0.70000006365E+02 0.  0.
        -12    1    1    2    0    0  0.29395739123E+01  0.17147029842E+02 -0.69294487035E+01  0.18726424819E+02  0.00000000000E+00 0.  1.
         11    1    3    3    0    0 -0.80862552269E+01  0.48371761481E+01 -0.18169064714E+02  0.20467064019E+02  0.51100000000E-03 0. -1.
        -11    1    3    3    0    0 -0.39306789601E+01 -0.31805320963E+02  0.16000309954E+02  0.35819528159E+02  0.51100000000E-03 0.  1.
         12    1    3    3    0    0  0.90773602747E+01  0.98211149733E+01  0.90982034641E+01  0.16174983003E+02  0.00000000000E+00 0. -1.
</event>
<event>
 8    1  0.1874105E-013  0.7246152E+02  0.7816164E-02  0.1226708E+00
        -11   -1    0    0    0    0  0.00000000000E+00  0.00000000000E+00  0.45593999997E+02  0.45594000000E+02  0.51100000000E-03 0. -1.
         11   -1    0    0    0    0 -0.00000000000E+00 -0.00000000000E+00 -0.45593999997E+02  0.45594000000E+02  0.51100000000E-03 0.  1.
    9900012    2    1    2    0    0 -0.64981753944E+01 -0.15264472016E+02  0.86862250444E+01  0.72461524226E+02  0.69999939987E+02 0.  0.
        -24    2    3    3    0    0  0.39045781819E+01 -0.18886209807E+02  0.19163930463E+02  0.57259005431E+02  0.50392487739E+02 0.  0.
        -12    1    1    2    0    0  0.64981753944E+01  0.15264472016E+02 -0.86862250444E+01  0.18726475774E+02  0.00000000000E+00 0.  1.
         11    1    4    4    0    0 -0.21021559782E+02 -0.96601121604E+01  0.20124279052E+02  0.30662849676E+02  0.51100000000E-03 0. -1.
        -11    1    3    3    0    0 -0.10402753576E+02  0.36217377906E+01 -0.10477705419E+02  0.15202518795E+02  0.51100000000E-03 0.  1.
        -12    1    4    4    0    0  0.24926137964E+02 -0.92260976464E+01 -0.96034858863E+00  0.26596155756E+02  0.00000000000E+00 0.  1.
</event>
